                               Psi4 1.9.1 release

  ==> Input File <==

--------------------------------------------------------------------------
molecule {
1 2
B   0.00000        0.60000        0.00000
Na   0.00000       -0.60000        0.00000
}

set {
basis              cc-pvdz
reference          uks
maxiter            500
geom_maxiter       500
DAMPING_PERCENTAGE 1
guess              SAP
}

optimize('b3lyp')
--------------------------------------------------------------------------

    Molecular point group: c2v
  Charge       = 1
  Multiplicity = 2
  Basis Set: CC-PVDZ
    Blend: CC-PVDZ
  Basis Set: (CC-PVDZ AUX)
    Blend: CC-PVDZ-JKFIT + DEF2-UNIVERSAL-JKFIT
  @DF-UKS Final Energy:  -186.31566608110933
    Total Energy =                       -186.3156660811093275
 Dipole X            :          0.0000000            0.0000000            0.0000000
 Dipole Y            :          0.0000000            0.0000000            0.0000000
 Dipole Z            :         -0.6068432           -0.4104272           -1.0172704
 Magnitude           :                                                    1.0172704
    Molecular point group: c2v
  Basis Set: CC-PVDZ
    Blend: CC-PVDZ
  Basis Set: (CC-PVDZ AUX)
    Blend: CC-PVDZ-JKFIT + DEF2-UNIVERSAL-JKFIT
  Basis Set: CC-PVDZ
    Blend: CC-PVDZ
  Basis Set: (CC-PVDZ AUX)
    Blend: CC-PVDZ-JKFIT + DEF2-UNIVERSAL-JKFIT
  @DF-UKS Final Energy:  -186.40592039256487
    Total Energy =                       -186.4059203925648660
  Basis Set: CC-PVDZ
    Blend: CC-PVDZ
  Basis Set: (CC-PVDZ AUX)
    Blend: CC-PVDZ-JKFIT + DEF2-UNIVERSAL-JKFIT
  Basis Set: CC-PVDZ
    Blend: CC-PVDZ
  @DF-UKS Final Energy:  -186.51175162883825
    Total Energy =                       -186.5117516288382546
  @DF-UKS Final Energy:  -186.63496800034386
    Total Energy =                       -186.6349680003438607
  @DF-UKS Final Energy:  -186.69940160081447
    Total Energy =                       -186.6994016008144683
  @DF-UKS Final Energy:  -186.72928990765212
    Total Energy =                       -186.7292899076521167
  @DF-UKS Final Energy:  -186.74342039542978
    Total Energy =                       -186.7434203954297800
  @DF-UKS Final Energy:  -186.75026146329358
    Total Energy =                       -186.7502614632935547
  @DF-UKS Final Energy:  -186.75363847135097
    Total Energy =                       -186.7536384713509676
  @DF-UKS Final Energy:  -186.75512302519732
    Total Energy =                       -186.7551230251973209
  @DF-UKS Final Energy:  -186.75565490542240
    Total Energy =                       -186.7556549054224035
  @DF-UKS Final Energy:  -186.75579782038164
    Total Energy =                       -186.7557978203816731
  @DF-UKS Final Energy:  -186.75581765134413
    Total Energy =                       -186.7558176513441310
  Basis Set: (CC-PVDZ AUX)
    Blend: CC-PVDZ-JKFIT + DEF2-UNIVERSAL-JKFIT
  Basis Set: CC-PVDZ
    Blend: CC-PVDZ
  Basis Set: (CC-PVDZ AUX)
    Blend: CC-PVDZ-JKFIT + DEF2-UNIVERSAL-JKFIT
  @DF-UKS Final Energy:  -186.75582082146897
    Total Energy =                       -186.7558208214689728
  Basis Set: CC-PVDZ
    Blend: CC-PVDZ
  Basis Set: (CC-PVDZ AUX)
    Blend: CC-PVDZ-JKFIT + DEF2-UNIVERSAL-JKFIT
  Charge       = 1
  Multiplicity = 2
  Basis Set: CC-PVDZ
    Blend: CC-PVDZ
  Basis Set: (CC-PVDZ AUX)
    Blend: CC-PVDZ-JKFIT + DEF2-UNIVERSAL-JKFIT

    Orbital Energies [Eh]
    ---------------------

    Alpha Occupied:

       1A1   -38.760497     2A1    -7.042036     3A1    -2.497925
       1B1    -1.429206     4A1    -1.429170     1B2    -1.429009
       5A1    -0.574506     2B2    -0.361596

    Alpha Virtual:

       6A1    -0.297481     2B1    -0.268819     7A1    -0.221680
       3B2    -0.145808     3B1    -0.141025     8A1    -0.117252
       9A1    -0.064776     4B2    -0.048243     4B1    -0.046666
      10A1    -0.037067     1A2     0.011066     5B2     0.011425
      11A1     0.012356     5B1     0.015972    12A1     0.068552
       6B2     0.154923     6B1     0.173633    13A1     0.184086
      14A1     0.374323     2A2     0.514080    15A1     0.522164
       7B2     0.550653     7B1     0.567491    16A1     0.688225

    Beta Occupied:

       1A1   -38.760505     2A1    -7.032253     3A1    -2.497943
       4A1    -1.429227     1B1    -1.429219     1B2    -1.428971
       5A1    -0.531823

    Beta Virtual:

       6A1    -0.288687     2B1    -0.258472     2B2    -0.223908
       7A1    -0.219895     3B1    -0.141142     3B2    -0.137978
       8A1    -0.115265     9A1    -0.062128     4B1    -0.046279
       4B2    -0.045805    10A1    -0.035787     1A2     0.010242
      11A1     0.010750     5B1     0.015051     5B2     0.019806
      12A1     0.071913     6B1     0.177837    13A1     0.189414
       6B2     0.201331    14A1     0.390713    15A1     0.564833
       2A2     0.565802     7B1     0.570508     7B2     0.600041
      16A1     0.705819

    Final Occupation by Irrep:
             A1    A2    B1    B2
    DOCC [     5,    0,    1,    1 ]
    SOCC [     0,    0,    0,    1 ]
    NA   [     5,    0,    1,    2 ]
    NB   [     5,    0,    1,    1 ]

  @DF-UKS Final Energy:  -186.75582134056643

   => Energetics <=

    Nuclear Repulsion Energy =              9.6670861932908299
    One-Electron Energy =                -275.7004194798108756
    Two-Electron Energy =                  93.9440314438270860
    DFT Exchange-Correlation Energy =     -14.6665194978734768
    Empirical Dispersion Energy =           0.0000000000000000
    VV10 Nonlocal Energy =                  0.0000000000000000
    Total Energy =                       -186.7558213405663992

  UHF NO Occupations:
  HONO-2 :    4 A1 1.9999998
  HONO-1 :    5 A1 1.9973077
  HONO-0 :    2 B2 1.0000000
  LUNO+0 :    6 A1 0.0026923
  LUNO+1 :    7 A1 0.0000002
  LUNO+2 :    3 B2 0.0000000
  LUNO+3 :    8 A1 0.0000000

Computation Completed

Properties will be evaluated at   0.000000,   0.000000,   0.000000 [a0]

Properties computed using the SCF density matrix

 Multipole Moments:

 ------------------------------------------------------------------------------------
     Multipole            Electronic (a.u.)      Nuclear  (a.u.)        Total (a.u.)
 ------------------------------------------------------------------------------------

 L = 1.  Multiply by 2.5417464519 to convert [e a0] to [Debye]
 Dipole X            :          0.0000000            0.0000000            0.0000000
 Dipole Y            :          0.0000000            0.0000000            0.0000000
 Dipole Z            :         -0.2226404           -1.0297294           -1.2523697
 Magnitude           :                                                    1.2523697

 ------------------------------------------------------------------------------------

*** tstop() called on Joses-MacBook-Pro-2.local at Thu Jul 17 13:33:00 2025
Module time:
	user time   =       1.64 seconds =       0.03 minutes
	system time =       4.12 seconds =       0.07 minutes
	total time  =          1 seconds =       0.02 minutes
Total time:
	user time   =      64.83 seconds =       1.08 minutes
	system time =      92.46 seconds =       1.54 minutes
	total time  =         16 seconds =       0.27 minutes

*** tstart() called on Joses-MacBook-Pro-2.local
*** at Thu Jul 17 13:33:00 2025

         ------------------------------------------------------------
                                   SCF GRAD
                          Rob Parrish, Justin Turney,
                       Andy Simmonett, and Alex Sokolov
         ------------------------------------------------------------

  ==> Geometry <==

    Molecular point group: c2v
    Full point group: C_inf_v

    Geometry (in Angstrom), charge = 1, multiplicity = 2:

       Center              X                  Y                   Z               Mass
    ------------   -----------------  -----------------  -----------------  -----------------
         B            0.000000000000     0.000000000000     2.035802987371    11.009305360000
         NA           0.000000000000     0.000000000000    -0.974902203926    22.989769282000

  Nuclear repulsion =    9.667086193290830

  ==> Basis Set <==

  Basis Set: CC-PVDZ
    Blend: CC-PVDZ
    Number of shells: 14
    Number of basis functions: 32
    Number of Cartesian functions: 34
    Spherical Harmonics?: true
    Max angular momentum: 2

  ==> DFJKGrad: Density-Fitted SCF Gradients <==

    Gradient:                    1
    J tasked:                  Yes
    K tasked:                  Yes
    wK tasked:                  No
    OpenMP threads:              1
    Integrals threads:           1
    Memory [MiB]:              375
    Schwarz Cutoff:          1E-12
    Fitting Condition:       1E-10

   => Auxiliary Basis Set <=

  Basis Set: (CC-PVDZ AUX)
    Blend: CC-PVDZ-JKFIT + DEF2-UNIVERSAL-JKFIT
    Number of shells: 58
    Number of basis functions: 182
    Number of Cartesian functions: 218
    Spherical Harmonics?: true
    Max angular momentum: 4

  ==> DFT Potential <==

   => LibXC <=

    Version 6.2.2
    S. Lehtola, C. Steigemann, M. J.T. Oliveira, and M. A.L. Marques.,  SoftwareX 7, 1â€“5 (2018) (10.1016/j.softx.2017.11.002)

   => Composite Functional: B3LYP <=

    B3LYP Hyb-GGA Exchange-Correlation Functional

    P. J. Stephens, F. J. Devlin, C. F. Chabalowski, and M. J. Frisch.,  J. Phys. Chem. 98, 11623 (1994) (10.1021/j100096a001)

    Deriv               =              1
    GGA                 =           TRUE
    Meta                =          FALSE

    Exchange Hybrid     =           TRUE
    MP2 Hybrid          =          FALSE

   => Exchange Functionals <=

    0.0800   Slater exchange
    0.7200         Becke 88

   => Exact (HF) Exchange <=

    0.2000               HF

   => Correlation Functionals <=

    0.1900   Vosko, Wilk & Nusair (VWN5_RPA)
    0.8100   Lee, Yang & Parr

   => LibXC Density Thresholds  <==

    XC_HYB_GGA_XC_B3LYP:  1.00E-15

   => Molecular Quadrature <=

    Radial Scheme          =       TREUTLER
    Pruning Scheme         =           NONE
    Nuclear Scheme         =       TREUTLER

    Blocking Scheme        =         OCTREE
    BS radius alpha        =              1
    Pruning alpha          =              1
    Radial Points          =             75
    Spherical Points       =            302
    Total Points           =          43861
    Total Blocks           =            434
    Max Points             =            256
    Max Functions          =             32
    Weights Tolerance      =       1.00E-15

  -Total Gradient:
     Atom            X                  Y                   Z
    ------   -----------------  -----------------  -----------------
       1        0.000000000000    -0.000000000000    -0.000039240691
       2        0.000000000000    -0.000000000000     0.000023373163

*** tstop() called on Joses-MacBook-Pro-2.local at Thu Jul 17 13:33:00 2025
Module time:
	user time   =       1.06 seconds =       0.02 minutes
	system time =       1.45 seconds =       0.02 minutes
	total time  =          0 seconds =       0.00 minutes
Total time:
	user time   =      65.89 seconds =       1.10 minutes
	system time =      93.91 seconds =       1.57 minutes
	total time  =         16 seconds =       0.27 minutes

    			-----------------------------------------

    			 OPTKING 3.0: for geometry optimizations

    			     By R.A. King, Bethel University

    			        with contributions from

    			    A.V. Copan, J. Cayton, A. Heide

    			-----------------------------------------

	                            ===> Fragment 1 <==

	 Z (Atomic Numbers)          Masses                          Geom
	       5.000000            11.009305          0.00000000  0.00000000  3.84711009
	      11.000000            22.989769          0.00000000  0.00000000 -1.84229816

	 - Coordinate -           - BOHR/RAD -       - ANG/DEG -
	 R(1,2)           =         5.689408           3.010705

	        --- Internal Coordinate Step in ANG or DEG, aJ/ANG or AJ/DEG ---
	-------------------------------------------------------------------------------
	           Coordinate      Previous         Force          Change          New
	           ----------      --------        ------          ------        ------
	               R(1,2)       3.01071        0.00026        0.00322       3.01393
	-------------------------------------------------------------------------------

	                                 ==> Convergence Check <==

	Measures of convergence in internal coordinates in au.

	Criteria marked as inactive (o), active & met (*), and active & unmet ( ).

	----------------------------------------------------------------------------------------------
	   Step    Total Energy     Delta E     Max Force     RMS Force      Max Disp      RMS Disp
	----------------------------------------------------------------------------------------------
	  Convergence Criteria     1.00e-06 *    3.00e-04 *             o    1.20e-03 *             o
	----------------------------------------------------------------------------------------------
	    15    -186.75582134   -5.19e-07 *    3.13e-05 *    3.13e-05 o    6.09e-03      6.09e-03 o  ~
	----------------------------------------------------------------------------------------------

Next Geometry in Ang
	Fragment 1 (Ang)

	    B   0.0000000000   0.0000000000   2.0374141700
	   Na   0.0000000000   0.0000000000  -0.9765133866

    Final optimized geometry and variables:
    Molecular point group: c2v
    Full point group: C_inf_v

    Geometry (in Angstrom), charge = 1, multiplicity = 2:

    B            0.000000000000     0.000000000000     2.035802987371
    NA           0.000000000000     0.000000000000    -0.974902203926

    Psi4 stopped on: Thursday, 17 July 2025 01:33PM
    Psi4 wall time for execution: 0:00:17.45

*** Psi4 exiting successfully. Buy a developer a beer!
