                               Psi4 1.9.1 release

  ==> Input File <==

--------------------------------------------------------------------------
molecule {
1 2
N   0.00000        0.60000        0.00000
Cl   0.00000       -0.60000        0.00000
}

set {
basis              cc-pvdz
reference          uks
maxiter            500
geom_maxiter       500
DAMPING_PERCENTAGE 1
guess              SAP
}

optimize('b3lyp')
--------------------------------------------------------------------------

    Molecular point group: c2v
  Charge       = 1
  Multiplicity = 2
  Basis Set: CC-PVDZ
    Blend: CC-PVDZ
  Basis Set: (CC-PVDZ AUX)
    Blend: CC-PVDZ-JKFIT
  @DF-UKS Final Energy:  -514.25970020338582
    Total Energy =                       -514.2597002033858189
 Dipole X            :          0.0000000            0.0000000            0.0000000
 Dipole Y            :          0.0000000            0.0000000            0.0000000
 Dipole Z            :         -1.0535884            0.3116229           -0.7419656
 Magnitude           :                                                    0.7419656
    Molecular point group: c2v
  Basis Set: CC-PVDZ
    Blend: CC-PVDZ
  Basis Set: (CC-PVDZ AUX)
    Blend: CC-PVDZ-JKFIT
  Basis Set: CC-PVDZ
    Blend: CC-PVDZ
  Basis Set: (CC-PVDZ AUX)
    Blend: CC-PVDZ-JKFIT
  @DF-UKS Final Energy:  -514.37784821441346
    Total Energy =                       -514.3778482144134614
  Basis Set: CC-PVDZ
    Blend: CC-PVDZ
  Basis Set: (CC-PVDZ AUX)
    Blend: CC-PVDZ-JKFIT
  Basis Set: CC-PVDZ
    Blend: CC-PVDZ
  @DF-UKS Final Energy:  -514.42593072742181
    Total Energy =                       -514.4259307274218145
  @DF-UKS Final Energy:  -514.43830912852275
    Total Energy =                       -514.4383091285227465
  @DF-UKS Final Energy:  -514.44224464480578
    Total Energy =                       -514.4422446448058963
  @DF-UKS Final Energy:  -514.44403631651824
    Total Energy =                       -514.4440363165182362
  @DF-UKS Final Energy:  -514.44443897273902
    Total Energy =                       -514.4444389727390217
  @DF-UKS Final Energy:  -514.44455488655433
    Total Energy =                       -514.4445548865543287
  Basis Set: (CC-PVDZ AUX)
    Blend: CC-PVDZ-JKFIT
  Basis Set: CC-PVDZ
    Blend: CC-PVDZ
  Basis Set: (CC-PVDZ AUX)
    Blend: CC-PVDZ-JKFIT
  @DF-UKS Final Energy:  -514.44456835455355
    Total Energy =                       -514.4445683545535530
  Basis Set: CC-PVDZ
    Blend: CC-PVDZ
  Basis Set: (CC-PVDZ AUX)
    Blend: CC-PVDZ-JKFIT
  Charge       = 1
  Multiplicity = 2
  Basis Set: CC-PVDZ
    Blend: CC-PVDZ
  Basis Set: (CC-PVDZ AUX)
    Blend: CC-PVDZ-JKFIT

    Orbital Energies [Eh]
    ---------------------

    Alpha Occupied:

       1A1  -102.013358     2A1   -14.845429     3A1    -9.927347
       4A1    -7.687558     1B2    -7.683954     1B1    -7.680067
       5A1    -1.399230     6A1    -1.061557     2B1    -0.810007
       2B2    -0.787788     7A1    -0.787487     3B1    -0.620537

    Alpha Virtual:

       3B2    -0.523149     8A1    -0.294094     9A1     0.182411
       4B2     0.195668     4B1     0.200362    10A1     0.226724
       5B1     0.287591     5B2     0.298820     1A2     0.306131
      11A1     0.306897    12A1     0.384107     6B1     0.450668
       6B2     0.458667    13A1     0.739181    14A1     0.869758
       2A2     1.342281    15A1     1.346223     7B1     1.564811
       7B2     1.569934    16A1     2.105617

    Beta Occupied:

       1A1  -102.012020     2A1   -14.826093     3A1    -9.926071
       4A1    -7.687221     1B2    -7.684591     1B1    -7.673948
       5A1    -1.376935     6A1    -1.026759     2B2    -0.781784
       7A1    -0.763421     2B1    -0.753200

    Beta Virtual:

       3B2    -0.501554     3B1    -0.456989     8A1    -0.280336
       9A1     0.186967     4B2     0.194018     4B1     0.208399
      10A1     0.230655     5B2     0.304772     1A2     0.317416
      11A1     0.317551     5B1     0.333388    12A1     0.397236
       6B2     0.468447     6B1     0.494891    13A1     0.758708
      14A1     0.884892    15A1     1.407011     2A2     1.407101
       7B2     1.581520     7B1     1.617334    16A1     2.130935

    Final Occupation by Irrep:
             A1    A2    B1    B2
    DOCC [     7,    0,    2,    2 ]
    SOCC [     0,    0,    1,    0 ]
    NA   [     7,    0,    3,    2 ]
    NB   [     7,    0,    2,    2 ]

  @DF-UKS Final Energy:  -514.44456901372052

   => Energetics <=

    Nuclear Repulsion Energy =             41.3465423825379688
    One-Electron Energy =                -781.8494573315583693
    Two-Electron Energy =                 254.0163928577962054
    DFT Exchange-Correlation Energy =     -27.9580469224963757
    Empirical Dispersion Energy =           0.0000000000000000
    VV10 Nonlocal Energy =                  0.0000000000000000
    Total Energy =                       -514.4445690137205247

  UHF NO Occupations:
  HONO-2 :    2 B1 1.9992427
  HONO-1 :    2 B2 1.9974022
  HONO-0 :    3 B1 1.0000000
  LUNO+0 :    3 B2 0.0025978
  LUNO+1 :    4 B1 0.0007573
  LUNO+2 :    8 A1 0.0005224
  LUNO+3 :    9 A1 0.0001318

Computation Completed

Properties will be evaluated at   0.000000,   0.000000,   0.000000 [a0]

Properties computed using the SCF density matrix

 Multipole Moments:

 ------------------------------------------------------------------------------------
     Multipole            Electronic (a.u.)      Nuclear  (a.u.)        Total (a.u.)
 ------------------------------------------------------------------------------------

 L = 1.  Multiply by 2.5417464519 to convert [e a0] to [Debye]
 Dipole X            :          0.0000000            0.0000000            0.0000000
 Dipole Y            :          0.0000000            0.0000000            0.0000000
 Dipole Z            :         -0.6623377            0.3955095           -0.2668282
 Magnitude           :                                                    0.2668282

 ------------------------------------------------------------------------------------

*** tstop() called on Joses-MacBook-Pro-2.local at Thu Jul 17 13:57:46 2025
Module time:
	user time   =       2.49 seconds =       0.04 minutes
	system time =       5.80 seconds =       0.10 minutes
	total time  =          0 seconds =       0.00 minutes
Total time:
	user time   =      38.85 seconds =       0.65 minutes
	system time =      83.19 seconds =       1.39 minutes
	total time  =         12 seconds =       0.20 minutes

*** tstart() called on Joses-MacBook-Pro-2.local
*** at Thu Jul 17 13:57:46 2025

         ------------------------------------------------------------
                                   SCF GRAD
                          Rob Parrish, Justin Turney,
                       Andy Simmonett, and Alex Sokolov
         ------------------------------------------------------------

  ==> Geometry <==

    Molecular point group: c2v
    Full point group: C_inf_v

    Geometry (in Angstrom), charge = 1, multiplicity = 2:

       Center              X                  Y                   Z               Mass
    ------------   -----------------  -----------------  -----------------  -----------------
         N            0.000000000000     0.000000000000     1.087534616557    14.003074004430
         CL           0.000000000000     0.000000000000    -0.435496922262    34.968852682000

  Nuclear repulsion =   41.346542382537969

  ==> Basis Set <==

  Basis Set: CC-PVDZ
    Blend: CC-PVDZ
    Number of shells: 14
    Number of basis functions: 32
    Number of Cartesian functions: 34
    Spherical Harmonics?: true
    Max angular momentum: 2

  ==> DFJKGrad: Density-Fitted SCF Gradients <==

    Gradient:                    1
    J tasked:                  Yes
    K tasked:                  Yes
    wK tasked:                  No
    OpenMP threads:              1
    Integrals threads:           1
    Memory [MiB]:              375
    Schwarz Cutoff:          1E-12
    Fitting Condition:       1E-10

   => Auxiliary Basis Set <=

  Basis Set: (CC-PVDZ AUX)
    Blend: CC-PVDZ-JKFIT
    Number of shells: 60
    Number of basis functions: 182
    Number of Cartesian functions: 211
    Spherical Harmonics?: true
    Max angular momentum: 3

  ==> DFT Potential <==

   => LibXC <=

    Version 6.2.2
    S. Lehtola, C. Steigemann, M. J.T. Oliveira, and M. A.L. Marques.,  SoftwareX 7, 1â€“5 (2018) (10.1016/j.softx.2017.11.002)

   => Composite Functional: B3LYP <=

    B3LYP Hyb-GGA Exchange-Correlation Functional

    P. J. Stephens, F. J. Devlin, C. F. Chabalowski, and M. J. Frisch.,  J. Phys. Chem. 98, 11623 (1994) (10.1021/j100096a001)

    Deriv               =              1
    GGA                 =           TRUE
    Meta                =          FALSE

    Exchange Hybrid     =           TRUE
    MP2 Hybrid          =          FALSE

   => Exchange Functionals <=

    0.0800   Slater exchange
    0.7200         Becke 88

   => Exact (HF) Exchange <=

    0.2000               HF

   => Correlation Functionals <=

    0.1900   Vosko, Wilk & Nusair (VWN5_RPA)
    0.8100   Lee, Yang & Parr

   => LibXC Density Thresholds  <==

    XC_HYB_GGA_XC_B3LYP:  1.00E-15

   => Molecular Quadrature <=

    Radial Scheme          =       TREUTLER
    Pruning Scheme         =           NONE
    Nuclear Scheme         =       TREUTLER

    Blocking Scheme        =         OCTREE
    BS radius alpha        =              1
    Pruning alpha          =              1
    Radial Points          =             75
    Spherical Points       =            302
    Total Points           =          41073
    Total Blocks           =            368
    Max Points             =            255
    Max Functions          =             32
    Weights Tolerance      =       1.00E-15

  -Total Gradient:
     Atom            X                  Y                   Z
    ------   -----------------  -----------------  -----------------
       1       -0.000000000000     0.000000000000    -0.000126719720
       2       -0.000000000000     0.000000000000     0.000104525754

*** tstop() called on Joses-MacBook-Pro-2.local at Thu Jul 17 13:57:47 2025
Module time:
	user time   =       0.74 seconds =       0.01 minutes
	system time =       2.25 seconds =       0.04 minutes
	total time  =          1 seconds =       0.02 minutes
Total time:
	user time   =      39.60 seconds =       0.66 minutes
	system time =      85.44 seconds =       1.42 minutes
	total time  =         13 seconds =       0.22 minutes

    			-----------------------------------------

    			 OPTKING 3.0: for geometry optimizations

    			     By R.A. King, Bethel University

    			        with contributions from

    			    A.V. Copan, J. Cayton, A. Heide

    			-----------------------------------------

	                            ===> Fragment 1 <==

	 Z (Atomic Numbers)          Masses                          Geom
	       7.000000            14.003074          0.00000000  0.00000000  2.05514258
	      17.000000            34.968853          0.00000000  0.00000000 -0.82296991

	 - Coordinate -           - BOHR/RAD -       - ANG/DEG -
	 R(1,2)           =         2.878112           1.523032

	        --- Internal Coordinate Step in ANG or DEG, aJ/ANG or AJ/DEG ---
	-------------------------------------------------------------------------------
	           Coordinate      Previous         Force          Change          New
	           ----------      --------        ------          ------        ------
	               R(1,2)       1.52303        0.00095        0.00012       1.52315
	-------------------------------------------------------------------------------

	                                 ==> Convergence Check <==

	Measures of convergence in internal coordinates in au.

	Criteria marked as inactive (o), active & met (*), and active & unmet ( ).

	----------------------------------------------------------------------------------------------
	   Step    Total Energy     Delta E     Max Force     RMS Force      Max Disp      RMS Disp
	----------------------------------------------------------------------------------------------
	  Convergence Criteria     1.00e-06 *    3.00e-04 *             o    1.20e-03 *             o
	----------------------------------------------------------------------------------------------
	    10    -514.44456901   -6.59e-07 *    1.16e-04 *    1.16e-04 o    2.25e-04 *    2.25e-04 o  ~
	----------------------------------------------------------------------------------------------

Next Geometry in Ang
	Fragment 1 (Ang)

	    N   0.0000000000   0.0000000000   1.0875940957
	   Cl   0.0000000000   0.0000000000  -0.4355564014

    Final optimized geometry and variables:
    Molecular point group: c2v
    Full point group: C_inf_v

    Geometry (in Angstrom), charge = 1, multiplicity = 2:

    N            0.000000000000     0.000000000000     1.087534616557
    CL           0.000000000000     0.000000000000    -0.435496922262

    Psi4 stopped on: Thursday, 17 July 2025 01:57PM
    Psi4 wall time for execution: 0:00:13.85

*** Psi4 exiting successfully. Buy a developer a beer!
