                               Psi4 1.9.1 release

  ==> Input File <==

--------------------------------------------------------------------------
molecule {
1 2
O   0.00000        0.60000        0.00000
O   0.00000       -0.60000        0.00000
}

set {
basis              cc-pvdz
reference          uks
maxiter            500
geom_maxiter       500
DAMPING_PERCENTAGE 1
guess              SAP
}

optimize('b3lyp')
--------------------------------------------------------------------------

    Molecular point group: d2h
  Charge       = 1
  Multiplicity = 2
  Basis Set: CC-PVDZ
    Blend: CC-PVDZ
  Basis Set: (CC-PVDZ AUX)
    Blend: CC-PVDZ-JKFIT
  @DF-UKS Final Energy:  -149.86314211350583
    Total Energy =                       -149.8631421135058304
 Dipole X            :          0.0000000            0.0000000            0.0000000
 Dipole Y            :          0.0000000            0.0000000            0.0000000
 Dipole Z            :          0.0000000            0.0000000            0.0000000
 Magnitude           :                                                    0.0000000
    Molecular point group: d2h
  Basis Set: CC-PVDZ
    Blend: CC-PVDZ
  Basis Set: (CC-PVDZ AUX)
    Blend: CC-PVDZ-JKFIT
  Basis Set: CC-PVDZ
    Blend: CC-PVDZ
  Basis Set: (CC-PVDZ AUX)
    Blend: CC-PVDZ-JKFIT
  @DF-UKS Final Energy:  -149.87739242318750
    Total Energy =                       -149.8773924231874730
  Basis Set: CC-PVDZ
    Blend: CC-PVDZ
  Basis Set: (CC-PVDZ AUX)
    Blend: CC-PVDZ-JKFIT
  Basis Set: CC-PVDZ
    Blend: CC-PVDZ
  @DF-UKS Final Energy:  -149.87768483487017
    Total Energy =                       -149.8776848348701662
  @DF-UKS Final Energy:  -149.87774306957346
    Total Energy =                       -149.8777430695734552
  @DF-UKS Final Energy:  -149.87775271210279
    Total Energy =                       -149.8777527121027902
  Basis Set: (CC-PVDZ AUX)
    Blend: CC-PVDZ-JKFIT
  Basis Set: CC-PVDZ
    Blend: CC-PVDZ
  Basis Set: (CC-PVDZ AUX)
    Blend: CC-PVDZ-JKFIT
  @DF-UKS Final Energy:  -149.87775441712617
    Total Energy =                       -149.8777544171261411
  Basis Set: CC-PVDZ
    Blend: CC-PVDZ
  Basis Set: (CC-PVDZ AUX)
    Blend: CC-PVDZ-JKFIT
  Charge       = 1
  Multiplicity = 2
  Basis Set: CC-PVDZ
    Blend: CC-PVDZ
  Basis Set: (CC-PVDZ AUX)
    Blend: CC-PVDZ-JKFIT

    Orbital Energies [Eh]
    ---------------------

    Alpha Occupied:

       1Ag   -19.832379     1B2u  -19.832020     2Ag    -1.882688
       2B2u   -1.255096     1B3u   -1.066203     1B1u   -1.030304
       3Ag    -1.021109     1B1g   -0.737530

    Alpha Virtual:

       1B3g   -0.612054     3B2u   -0.100958     2B3u    0.396874
       2B1u    0.405340     4B2u    0.414580     4Ag     0.462695
       2B1g    0.542150     2B3g    0.555357     5Ag     0.620923
       5B2u    1.340383     3B1u    1.600209     3B3u    1.600962
       1B2g    1.788978     6Ag     1.791310     1Au     2.205240
       6B2u    2.207911     7Ag     2.569432     3B1g    2.967218
       3B3g    2.969355     7B2u    3.306043

    Beta Occupied:

       1Ag   -19.816260     1B2u  -19.815797     2Ag    -1.855043
       2B2u   -1.208606     1B1u   -1.015824     3Ag    -0.997943
       1B3u   -0.970490

    Beta Virtual:

       1B3g   -0.593767     1B1g   -0.545018     3B2u   -0.076690
       2B1u    0.412636     4B2u    0.423995     2B3u    0.441227
       4Ag     0.467354     2B3g    0.563295     2B1g    0.589852
       5Ag     0.637447     5B2u    1.361861     3B1u    1.605158
       3B3u    1.641473     6Ag     1.830932     1B2g    1.831208
       6B2u    2.255046     1Au     2.255069     7Ag     2.594623
       3B3g    2.976851     3B1g    3.015280     7B2u    3.324226

    Final Occupation by Irrep:
             Ag   B1g   B2g   B3g    Au   B1u   B2u   B3u
    DOCC [     3,    0,    0,    0,    0,    1,    2,    1 ]
    SOCC [     0,    1,    0,    0,    0,    0,    0,    0 ]
    NA   [     3,    1,    0,    0,    0,    1,    2,    1 ]
    NB   [     3,    0,    0,    0,    0,    1,    2,    1 ]

  @DF-UKS Final Energy:  -149.87775478332591

   => Energetics <=

    Nuclear Repulsion Energy =             30.4841278970406151
    One-Electron Energy =                -258.7334438647216075
    Two-Electron Energy =                  91.8071237253943480
    DFT Exchange-Correlation Energy =     -13.4355625410392872
    Empirical Dispersion Energy =           0.0000000000000000
    VV10 Nonlocal Energy =                  0.0000000000000000
    Total Energy =                       -149.8777547833259121

  UHF NO Occupations:
  HONO-2 :    2B2u 1.9997618
  HONO-1 :    1B3u 1.9992910
  HONO-0 :    1B1g 1.0000000
  LUNO+0 :    2B3u 0.0007090
  LUNO+1 :    3B2u 0.0002382
  LUNO+2 :    4 Ag 0.0001065
  LUNO+3 :    2B1u 0.0000186

Computation Completed

Properties will be evaluated at   0.000000,   0.000000,   0.000000 [a0]

Properties computed using the SCF density matrix

 Multipole Moments:

 ------------------------------------------------------------------------------------
     Multipole            Electronic (a.u.)      Nuclear  (a.u.)        Total (a.u.)
 ------------------------------------------------------------------------------------

 L = 1.  Multiply by 2.5417464519 to convert [e a0] to [Debye]
 Dipole X            :          0.0000000            0.0000000            0.0000000
 Dipole Y            :          0.0000000            0.0000000            0.0000000
 Dipole Z            :          0.0000000            0.0000000            0.0000000
 Magnitude           :                                                    0.0000000

 ------------------------------------------------------------------------------------

*** tstop() called on Joses-MacBook-Pro-2.local at Thu Jul 17 13:59:19 2025
Module time:
	user time   =       1.61 seconds =       0.03 minutes
	system time =       4.24 seconds =       0.07 minutes
	total time  =          0 seconds =       0.00 minutes
Total time:
	user time   =      15.70 seconds =       0.26 minutes
	system time =      39.49 seconds =       0.66 minutes
	total time  =          5 seconds =       0.08 minutes

*** tstart() called on Joses-MacBook-Pro-2.local
*** at Thu Jul 17 13:59:19 2025

         ------------------------------------------------------------
                                   SCF GRAD
                          Rob Parrish, Justin Turney,
                       Andy Simmonett, and Alex Sokolov
         ------------------------------------------------------------

  ==> Geometry <==

    Molecular point group: d2h
    Full point group: D_inf_h

    Geometry (in Angstrom), charge = 1, multiplicity = 2:

       Center              X                  Y                   Z               Mass
    ------------   -----------------  -----------------  -----------------  -----------------
         O           -0.000000000000     0.555491395346     0.000000000000    15.994914619570
         O            0.000000000000    -0.555491395346     0.000000000000    15.994914619570

  Nuclear repulsion =   30.484127897040615

  ==> Basis Set <==

  Basis Set: CC-PVDZ
    Blend: CC-PVDZ
    Number of shells: 12
    Number of basis functions: 28
    Number of Cartesian functions: 30
    Spherical Harmonics?: true
    Max angular momentum: 2

  ==> DFJKGrad: Density-Fitted SCF Gradients <==

    Gradient:                    1
    J tasked:                  Yes
    K tasked:                  Yes
    wK tasked:                  No
    OpenMP threads:              1
    Integrals threads:           1
    Memory [MiB]:              375
    Schwarz Cutoff:          1E-12
    Fitting Condition:       1E-10

   => Auxiliary Basis Set <=

  Basis Set: (CC-PVDZ AUX)
    Blend: CC-PVDZ-JKFIT
    Number of shells: 48
    Number of basis functions: 140
    Number of Cartesian functions: 162
    Spherical Harmonics?: true
    Max angular momentum: 3

  ==> DFT Potential <==

   => LibXC <=

    Version 6.2.2
    S. Lehtola, C. Steigemann, M. J.T. Oliveira, and M. A.L. Marques.,  SoftwareX 7, 1â€“5 (2018) (10.1016/j.softx.2017.11.002)

   => Composite Functional: B3LYP <=

    B3LYP Hyb-GGA Exchange-Correlation Functional

    P. J. Stephens, F. J. Devlin, C. F. Chabalowski, and M. J. Frisch.,  J. Phys. Chem. 98, 11623 (1994) (10.1021/j100096a001)

    Deriv               =              1
    GGA                 =           TRUE
    Meta                =          FALSE

    Exchange Hybrid     =           TRUE
    MP2 Hybrid          =          FALSE

   => Exchange Functionals <=

    0.0800   Slater exchange
    0.7200         Becke 88

   => Exact (HF) Exchange <=

    0.2000               HF

   => Correlation Functionals <=

    0.1900   Vosko, Wilk & Nusair (VWN5_RPA)
    0.8100   Lee, Yang & Parr

   => LibXC Density Thresholds  <==

    XC_HYB_GGA_XC_B3LYP:  1.00E-15

   => Molecular Quadrature <=

    Radial Scheme          =       TREUTLER
    Pruning Scheme         =           NONE
    Nuclear Scheme         =       TREUTLER

    Blocking Scheme        =         OCTREE
    BS radius alpha        =              1
    Pruning alpha          =              1
    Radial Points          =             75
    Spherical Points       =            302
    Total Points           =          41408
    Total Blocks           =            372
    Max Points             =            253
    Max Functions          =             28
    Weights Tolerance      =       1.00E-15

  -Total Gradient:
     Atom            X                  Y                   Z
    ------   -----------------  -----------------  -----------------
       1        0.000000000000    -0.000050707638     0.000000000000
       2       -0.000000000000     0.000050707638     0.000000000000

*** tstop() called on Joses-MacBook-Pro-2.local at Thu Jul 17 13:59:20 2025
Module time:
	user time   =       0.58 seconds =       0.01 minutes
	system time =       1.01 seconds =       0.02 minutes
	total time  =          1 seconds =       0.02 minutes
Total time:
	user time   =      16.28 seconds =       0.27 minutes
	system time =      40.50 seconds =       0.68 minutes
	total time  =          6 seconds =       0.10 minutes

    			-----------------------------------------

    			 OPTKING 3.0: for geometry optimizations

    			     By R.A. King, Bethel University

    			        with contributions from

    			    A.V. Copan, J. Cayton, A. Heide

    			-----------------------------------------

	                            ===> Fragment 1 <==

	 Z (Atomic Numbers)          Masses                          Geom
	       8.000000            15.994915         -0.00000000  1.04972660  0.00000000
	       8.000000            15.994915          0.00000000 -1.04972660  0.00000000

	 - Coordinate -           - BOHR/RAD -       - ANG/DEG -
	 R(1,2)           =         2.099453           1.110983

	        --- Internal Coordinate Step in ANG or DEG, aJ/ANG or AJ/DEG ---
	-------------------------------------------------------------------------------
	           Coordinate      Previous         Force          Change          New
	           ----------      --------        ------          ------        ------
	               R(1,2)       1.11098        0.00042        0.00002       1.11100
	-------------------------------------------------------------------------------

	                                 ==> Convergence Check <==

	Measures of convergence in internal coordinates in au.

	Criteria marked as inactive (o), active & met (*), and active & unmet ( ).

	----------------------------------------------------------------------------------------------
	   Step    Total Energy     Delta E     Max Force     RMS Force      Max Disp      RMS Disp
	----------------------------------------------------------------------------------------------
	  Convergence Criteria     1.00e-06 *    3.00e-04 *             o    1.20e-03 *             o
	----------------------------------------------------------------------------------------------
	     7    -149.87775478   -3.66e-07 *    5.07e-05 *    5.07e-05 o    3.81e-05 *    3.81e-05 o  ~
	----------------------------------------------------------------------------------------------

Next Geometry in Ang
	Fragment 1 (Ang)

	    O  -0.0000000000   0.5555014783   0.0000000000
	    O   0.0000000000  -0.5555014783   0.0000000000

    Final optimized geometry and variables:
    Molecular point group: d2h
    Full point group: D_inf_h

    Geometry (in Angstrom), charge = 1, multiplicity = 2:

    O           -0.000000000000     0.555491395346     0.000000000000
    O            0.000000000000    -0.555491395346     0.000000000000

    Psi4 stopped on: Thursday, 17 July 2025 01:59PM
    Psi4 wall time for execution: 0:00:06.47

*** Psi4 exiting successfully. Buy a developer a beer!
