                               Psi4 1.9.1 release

  ==> Input File <==

--------------------------------------------------------------------------
molecule {
1 2
Be   0.00000        0.60000        0.00000
O   0.00000       -0.60000        0.00000
}

set {
basis              cc-pvdz
reference          uks
maxiter            500
geom_maxiter       500
DAMPING_PERCENTAGE 1
guess              SAP
}

optimize('b3lyp')
--------------------------------------------------------------------------

    Molecular point group: c2v
  Charge       = 1
  Multiplicity = 2
  Basis Set: CC-PVDZ
    Blend: CC-PVDZ
  Basis Set: (CC-PVDZ AUX)
    Blend: CC-PVDZ-JKFIT + DEF2-UNIVERSAL-JKFIT
  @DF-UKS Final Energy:   -89.48467698944540
    Total Energy =                        -89.4846769894454042
 Dipole X            :          0.0000000            0.0000000            0.0000000
 Dipole Y            :          0.0000000            0.0000000            0.0000000
 Dipole Z            :          3.2532185           -0.7361317            2.5170869
 Magnitude           :                                                    2.5170869
    Molecular point group: c2v
  Basis Set: CC-PVDZ
    Blend: CC-PVDZ
  Basis Set: (CC-PVDZ AUX)
    Blend: CC-PVDZ-JKFIT + DEF2-UNIVERSAL-JKFIT
  Basis Set: CC-PVDZ
    Blend: CC-PVDZ
  Basis Set: (CC-PVDZ AUX)
    Blend: CC-PVDZ-JKFIT + DEF2-UNIVERSAL-JKFIT
  @DF-UKS Final Energy:   -89.53502475513103
    Total Energy =                        -89.5350247551310332
  Basis Set: CC-PVDZ
    Blend: CC-PVDZ
  Basis Set: (CC-PVDZ AUX)
    Blend: CC-PVDZ-JKFIT + DEF2-UNIVERSAL-JKFIT
  Basis Set: CC-PVDZ
    Blend: CC-PVDZ
  @DF-UKS Final Energy:   -89.54105320573370
    Total Energy =                        -89.5410532057337036
  @DF-UKS Final Energy:   -89.54226238849425
    Total Energy =                        -89.5422623884942652
  @DF-UKS Final Energy:   -89.54253577157773
    Total Energy =                        -89.5425357715777324
  @DF-UKS Final Energy:   -89.54260136331638
    Total Energy =                        -89.5426013633163791
  Basis Set: (CC-PVDZ AUX)
    Blend: CC-PVDZ-JKFIT + DEF2-UNIVERSAL-JKFIT
  Basis Set: CC-PVDZ
    Blend: CC-PVDZ
  Basis Set: (CC-PVDZ AUX)
    Blend: CC-PVDZ-JKFIT + DEF2-UNIVERSAL-JKFIT
  @DF-UKS Final Energy:   -89.54262172491880
    Total Energy =                        -89.5426217249188028
  Basis Set: CC-PVDZ
    Blend: CC-PVDZ
  Basis Set: (CC-PVDZ AUX)
    Blend: CC-PVDZ-JKFIT + DEF2-UNIVERSAL-JKFIT
  Charge       = 1
  Multiplicity = 2
  Basis Set: CC-PVDZ
    Blend: CC-PVDZ
  Basis Set: (CC-PVDZ AUX)
    Blend: CC-PVDZ-JKFIT + DEF2-UNIVERSAL-JKFIT

    Orbital Energies [Eh]
    ---------------------

    Alpha Occupied:

       1A1   -19.477167     2A1    -4.500493     3A1    -1.252222
       1B2    -0.683236     4A1    -0.668422     1B1    -0.619492

    Alpha Virtual:

       5A1    -0.430598     2B2    -0.286711     2B1    -0.275887
       6A1    -0.141818     7A1    -0.050335     3B2    -0.042747
       3B1    -0.041331     8A1     0.102310     1A2     0.189496
       9A1     0.189935     4B2     0.273392     4B1     0.285128
      10A1     0.503532     5B2     0.742338     5B1     0.781946
      11A1     0.852363    12A1     1.513581    13A1     2.279757
       2A2     2.280043     6B2     2.408267     6B1     2.458092
      14A1     2.798176

    Beta Occupied:

       1A1   -19.453216     2A1    -4.500671     3A1    -1.178748
       4A1    -0.641618     1B1    -0.593348

    Beta Virtual:

       1B2    -0.465947     5A1    -0.429869     2B1    -0.275007
       2B2    -0.251996     6A1    -0.134653     7A1    -0.050541
       3B1    -0.042898     3B2    -0.038371     8A1     0.109526
       1A2     0.191903     9A1     0.194480     4B1     0.285416
       4B2     0.297400    10A1     0.516254     5B1     0.797174
       5B2     0.822727    11A1     0.866957    12A1     1.548150
       2A2     2.358334    13A1     2.366454     6B1     2.472212
       6B2     2.483212    14A1     2.835367

    Final Occupation by Irrep:
             A1    A2    B1    B2
    DOCC [     4,    0,    1,    0 ]
    SOCC [     0,    0,    0,    1 ]
    NA   [     4,    0,    1,    1 ]
    NB   [     4,    0,    1,    0 ]

  @DF-UKS Final Energy:   -89.54262299371335

   => Energetics <=

    Nuclear Repulsion Energy =             11.6915466019261931
    One-Electron Energy =                -142.4177500081607093
    Two-Electron Energy =                  50.1876053439045862
    DFT Exchange-Correlation Energy =      -9.0040249313834355
    Empirical Dispersion Energy =           0.0000000000000000
    VV10 Nonlocal Energy =                  0.0000000000000000
    Total Energy =                        -89.5426229937133655

  UHF NO Occupations:
  HONO-2 :    4 A1 1.9995321
  HONO-1 :    1 B1 1.9989226
  HONO-0 :    1 B2 1.0000000
  LUNO+0 :    2 B1 0.0010774
  LUNO+1 :    5 A1 0.0004679
  LUNO+2 :    6 A1 0.0003410
  LUNO+3 :    7 A1 0.0000001

Computation Completed

Properties will be evaluated at   0.000000,   0.000000,   0.000000 [a0]

Properties computed using the SCF density matrix

 Multipole Moments:

 ------------------------------------------------------------------------------------
     Multipole            Electronic (a.u.)      Nuclear  (a.u.)        Total (a.u.)
 ------------------------------------------------------------------------------------

 L = 1.  Multiply by 2.5417464519 to convert [e a0] to [Debye]
 Dipole X            :          0.0000000            0.0000000            0.0000000
 Dipole Y            :          0.0000000            0.0000000            0.0000000
 Dipole Z            :          3.8205109           -0.8884917            2.9320191
 Magnitude           :                                                    2.9320191

 ------------------------------------------------------------------------------------

*** tstop() called on Joses-MacBook-Pro-2.local at Thu Jul 17 13:15:52 2025
Module time:
	user time   =       3.15 seconds =       0.05 minutes
	system time =       3.67 seconds =       0.06 minutes
	total time  =          1 seconds =       0.02 minutes
Total time:
	user time   =      32.28 seconds =       0.54 minutes
	system time =      38.66 seconds =       0.64 minutes
	total time  =          7 seconds =       0.12 minutes

*** tstart() called on Joses-MacBook-Pro-2.local
*** at Thu Jul 17 13:15:52 2025

         ------------------------------------------------------------
                                   SCF GRAD
                          Rob Parrish, Justin Turney,
                       Andy Simmonett, and Alex Sokolov
         ------------------------------------------------------------

  ==> Geometry <==

    Molecular point group: c2v
    Full point group: C_inf_v

    Geometry (in Angstrom), charge = 1, multiplicity = 2:

       Center              X                  Y                   Z               Mass
    ------------   -----------------  -----------------  -----------------  -----------------
         BE           0.000000000000     0.000000000000     0.926398368641     9.012183065000
         O            0.000000000000     0.000000000000    -0.521970381705    15.994914619570

  Nuclear repulsion =   11.691546601926193

  ==> Basis Set <==

  Basis Set: CC-PVDZ
    Blend: CC-PVDZ
    Number of shells: 12
    Number of basis functions: 28
    Number of Cartesian functions: 30
    Spherical Harmonics?: true
    Max angular momentum: 2

  ==> DFJKGrad: Density-Fitted SCF Gradients <==

    Gradient:                    1
    J tasked:                  Yes
    K tasked:                  Yes
    wK tasked:                  No
    OpenMP threads:              1
    Integrals threads:           1
    Memory [MiB]:              375
    Schwarz Cutoff:          1E-12
    Fitting Condition:       1E-10

   => Auxiliary Basis Set <=

  Basis Set: (CC-PVDZ AUX)
    Blend: CC-PVDZ-JKFIT + DEF2-UNIVERSAL-JKFIT
    Number of shells: 41
    Number of basis functions: 121
    Number of Cartesian functions: 141
    Spherical Harmonics?: true
    Max angular momentum: 3

  ==> DFT Potential <==

   => LibXC <=

    Version 6.2.2
    S. Lehtola, C. Steigemann, M. J.T. Oliveira, and M. A.L. Marques.,  SoftwareX 7, 1â€“5 (2018) (10.1016/j.softx.2017.11.002)

   => Composite Functional: B3LYP <=

    B3LYP Hyb-GGA Exchange-Correlation Functional

    P. J. Stephens, F. J. Devlin, C. F. Chabalowski, and M. J. Frisch.,  J. Phys. Chem. 98, 11623 (1994) (10.1021/j100096a001)

    Deriv               =              1
    GGA                 =           TRUE
    Meta                =          FALSE

    Exchange Hybrid     =           TRUE
    MP2 Hybrid          =          FALSE

   => Exchange Functionals <=

    0.0800   Slater exchange
    0.7200         Becke 88

   => Exact (HF) Exchange <=

    0.2000               HF

   => Correlation Functionals <=

    0.1900   Vosko, Wilk & Nusair (VWN5_RPA)
    0.8100   Lee, Yang & Parr

   => LibXC Density Thresholds  <==

    XC_HYB_GGA_XC_B3LYP:  1.00E-15

   => Molecular Quadrature <=

    Radial Scheme          =       TREUTLER
    Pruning Scheme         =           NONE
    Nuclear Scheme         =       TREUTLER

    Blocking Scheme        =         OCTREE
    BS radius alpha        =              1
    Pruning alpha          =              1
    Radial Points          =             75
    Spherical Points       =            302
    Total Points           =          43556
    Total Blocks           =            403
    Max Points             =            254
    Max Functions          =             28
    Weights Tolerance      =       1.00E-15

  -Total Gradient:
     Atom            X                  Y                   Z
    ------   -----------------  -----------------  -----------------
       1        0.000000000000    -0.000000000000    -0.000094966714
       2        0.000000000000     0.000000000000     0.000132889014

*** tstop() called on Joses-MacBook-Pro-2.local at Thu Jul 17 13:15:52 2025
Module time:
	user time   =       0.58 seconds =       0.01 minutes
	system time =       1.12 seconds =       0.02 minutes
	total time  =          0 seconds =       0.00 minutes
Total time:
	user time   =      32.86 seconds =       0.55 minutes
	system time =      39.78 seconds =       0.66 minutes
	total time  =          7 seconds =       0.12 minutes

    			-----------------------------------------

    			 OPTKING 3.0: for geometry optimizations

    			     By R.A. King, Bethel University

    			        with contributions from

    			    A.V. Copan, J. Cayton, A. Heide

    			-----------------------------------------

	                            ===> Fragment 1 <==

	 Z (Atomic Numbers)          Masses                          Geom
	       4.000000             9.012183          0.00000000  0.00000000  1.75063920
	       8.000000            15.994915          0.00000000  0.00000000 -0.98638107

	 - Coordinate -           - BOHR/RAD -       - ANG/DEG -
	 R(1,2)           =         2.737020           1.448369

	        --- Internal Coordinate Step in ANG or DEG, aJ/ANG or AJ/DEG ---
	-------------------------------------------------------------------------------
	           Coordinate      Previous         Force          Change          New
	           ----------      --------        ------          ------        ------
	               R(1,2)       1.44837        0.00094        0.00017       1.44854
	-------------------------------------------------------------------------------

	                                 ==> Convergence Check <==

	Measures of convergence in internal coordinates in au.

	Criteria marked as inactive (o), active & met (*), and active & unmet ( ).

	----------------------------------------------------------------------------------------------
	   Step    Total Energy     Delta E     Max Force     RMS Force      Max Disp      RMS Disp
	----------------------------------------------------------------------------------------------
	  Convergence Criteria     1.00e-06 *    3.00e-04 *             o    1.20e-03 *             o
	----------------------------------------------------------------------------------------------
	     8     -89.54262299   -1.27e-06      1.14e-04 *    1.14e-04 o    3.26e-04 *    3.26e-04 o  ~
	----------------------------------------------------------------------------------------------

Next Geometry in Ang
	Fragment 1 (Ang)

	   Be   0.0000000000   0.0000000000   0.9264847095
	    O   0.0000000000   0.0000000000  -0.5220567226

    Final optimized geometry and variables:
    Molecular point group: c2v
    Full point group: C_inf_v

    Geometry (in Angstrom), charge = 1, multiplicity = 2:

    BE           0.000000000000     0.000000000000     0.926398368641
    O            0.000000000000     0.000000000000    -0.521970381705

    Psi4 stopped on: Thursday, 17 July 2025 01:15PM
    Psi4 wall time for execution: 0:00:07.48

*** Psi4 exiting successfully. Buy a developer a beer!
