                               Psi4 1.9.1 release

  ==> Input File <==

--------------------------------------------------------------------------
molecule {
1 2
C   0.00000        0.60000        0.00000
Si   0.00000       -0.60000        0.00000
}

set {
basis              cc-pvdz
reference          uks
maxiter            500
geom_maxiter       500
DAMPING_PERCENTAGE 1
guess              SAP
}

optimize('b3lyp')
--------------------------------------------------------------------------

    Molecular point group: c2v
  Charge       = 1
  Multiplicity = 2
  Basis Set: CC-PVDZ
    Blend: CC-PVDZ
  Basis Set: (CC-PVDZ AUX)
    Blend: CC-PVDZ-JKFIT
  @DF-UKS Final Energy:  -326.63001784993094
    Total Energy =                       -326.6300178499309368
 Dipole X            :          0.0000000            0.0000000            0.0000000
 Dipole Y            :          0.0000000            0.0000000            0.0000000
 Dipole Z            :         -0.5925293           -0.0078530           -0.6003823
 Magnitude           :                                                    0.6003823
    Molecular point group: c2v
  Basis Set: CC-PVDZ
    Blend: CC-PVDZ
  Basis Set: (CC-PVDZ AUX)
    Blend: CC-PVDZ-JKFIT
  Basis Set: CC-PVDZ
    Blend: CC-PVDZ
  Basis Set: (CC-PVDZ AUX)
    Blend: CC-PVDZ-JKFIT
  @DF-UKS Final Energy:  -326.84936370417984
    Total Energy =                       -326.8493637041798365
  Basis Set: CC-PVDZ
    Blend: CC-PVDZ
  Basis Set: (CC-PVDZ AUX)
    Blend: CC-PVDZ-JKFIT
  Basis Set: CC-PVDZ
    Blend: CC-PVDZ
  @DF-UKS Final Energy:  -326.95261944236051
    Total Energy =                       -326.9526194423605148
  @DF-UKS Final Energy:  -326.99101337984439
    Total Energy =                       -326.9910133798443894
  @DF-UKS Final Energy:  -327.00126385869015
    Total Energy =                       -327.0012638586902085
  @DF-UKS Final Energy:  -327.00555184447933
    Total Energy =                       -327.0055518444793279
  @DF-UKS Final Energy:  -327.00650102332656
    Total Energy =                       -327.0065010233265639
  @DF-UKS Final Energy:  -327.00673982029991
    Total Energy =                       -327.0067398202998561
  @DF-UKS Final Energy:  -327.00681724607330
    Total Energy =                       -327.0068172460732967
  Basis Set: (CC-PVDZ AUX)
    Blend: CC-PVDZ-JKFIT
  Basis Set: CC-PVDZ
    Blend: CC-PVDZ
  Basis Set: (CC-PVDZ AUX)
    Blend: CC-PVDZ-JKFIT
  @DF-UKS Final Energy:  -327.00682823768193
    Total Energy =                       -327.0068282376819866
  Basis Set: CC-PVDZ
    Blend: CC-PVDZ
  Basis Set: (CC-PVDZ AUX)
    Blend: CC-PVDZ-JKFIT
  Charge       = 1
  Multiplicity = 2
  Basis Set: CC-PVDZ
    Blend: CC-PVDZ
  Basis Set: (CC-PVDZ AUX)
    Blend: CC-PVDZ-JKFIT

    Orbital Energies [Eh]
    ---------------------

    Alpha Occupied:

       1A1   -66.526695     2A1   -10.590113     3A1    -5.660993
       1B2    -4.022641     4A1    -4.020087     1B1    -4.014596
       5A1    -0.948773     6A1    -0.673034     2B2    -0.569408
       2B1    -0.537244

    Alpha Virtual:

       7A1    -0.489792     3B2    -0.343227     3B1    -0.321161
       8A1    -0.174283     9A1     0.009482     4B2     0.050928
       4B1     0.064524    10A1     0.079840     1A2     0.080518
      11A1     0.094440     5B2     0.136888     5B1     0.156983
      12A1     0.178707     6B2     0.263775     6B1     0.281241
      13A1     0.516408    14A1     0.603638     2A2     0.877287
      15A1     0.877568     7B2     1.045414     7B1     1.070620
      16A1     1.404898

    Beta Occupied:

       1A1   -66.527583     2A1   -10.571776     3A1    -5.662230
       4A1    -4.022702     1B2    -4.020343     1B1    -4.017655
       5A1    -0.904476     6A1    -0.657351     2B1    -0.513880

    Beta Virtual:

       7A1    -0.458230     2B2    -0.436901     3B1    -0.319299
       3B2    -0.295990     8A1    -0.174331     9A1     0.006299
       4B1     0.059815     4B2     0.063105     1A2     0.079971
      10A1     0.081969    11A1     0.096653     5B1     0.149165
       5B2     0.156703    12A1     0.199063     6B1     0.298811
       6B2     0.310766    13A1     0.528888    14A1     0.631619
       2A2     0.938139    15A1     0.942149     7B1     1.097726
       7B2     1.108600    16A1     1.442647

    Final Occupation by Irrep:
             A1    A2    B1    B2
    DOCC [     6,    0,    2,    1 ]
    SOCC [     0,    0,    0,    1 ]
    NA   [     6,    0,    2,    2 ]
    NB   [     6,    0,    2,    1 ]

  @DF-UKS Final Energy:  -327.00682895554166

   => Energetics <=

    Nuclear Repulsion Energy =             25.5591391313766572
    One-Electron Energy =                -495.7868462995625123
    Two-Electron Energy =                 164.0522581536897917
    DFT Exchange-Correlation Energy =     -20.8313799410455402
    Empirical Dispersion Energy =           0.0000000000000000
    VV10 Nonlocal Energy =                  0.0000000000000000
    Total Energy =                       -327.0068289555416072

  UHF NO Occupations:
  HONO-2 :    2 B1 1.9807494
  HONO-1 :    6 A1 1.9413123
  HONO-0 :    2 B2 1.0000000
  LUNO+0 :    7 A1 0.0586877
  LUNO+1 :    3 B1 0.0192506
  LUNO+2 :    8 A1 0.0004412
  LUNO+3 :    9 A1 0.0000002

Computation Completed

Properties will be evaluated at   0.000000,   0.000000,   0.000000 [a0]

Properties computed using the SCF density matrix

 Multipole Moments:

 ------------------------------------------------------------------------------------
     Multipole            Electronic (a.u.)      Nuclear  (a.u.)        Total (a.u.)
 ------------------------------------------------------------------------------------

 L = 1.  Multiply by 2.5417464519 to convert [e a0] to [Debye]
 Dipole X            :          0.0000000            0.0000000            0.0000000
 Dipole Y            :          0.0000000            0.0000000            0.0000000
 Dipole Z            :         -0.6954035           -0.0113812           -0.7067847
 Magnitude           :                                                    0.7067847

 ------------------------------------------------------------------------------------

*** tstop() called on Joses-MacBook-Pro-2.local at Thu Jul 17 13:44:41 2025
Module time:
	user time   =       3.69 seconds =       0.06 minutes
	system time =       4.82 seconds =       0.08 minutes
	total time  =          1 seconds =       0.02 minutes
Total time:
	user time   =      50.56 seconds =       0.84 minutes
	system time =      79.40 seconds =       1.32 minutes
	total time  =         12 seconds =       0.20 minutes

*** tstart() called on Joses-MacBook-Pro-2.local
*** at Thu Jul 17 13:44:41 2025

         ------------------------------------------------------------
                                   SCF GRAD
                          Rob Parrish, Justin Turney,
                       Andy Simmonett, and Alex Sokolov
         ------------------------------------------------------------

  ==> Geometry <==

    Molecular point group: c2v
    Full point group: C_inf_v

    Geometry (in Angstrom), charge = 1, multiplicity = 2:

       Center              X                  Y                   Z               Mass
    ------------   -----------------  -----------------  -----------------  -----------------
         C            0.000000000000     0.000000000000     1.217095893487    12.000000000000
         SI           0.000000000000     0.000000000000    -0.522042716299    27.976926534650

  Nuclear repulsion =   25.559139131376657

  ==> Basis Set <==

  Basis Set: CC-PVDZ
    Blend: CC-PVDZ
    Number of shells: 14
    Number of basis functions: 32
    Number of Cartesian functions: 34
    Spherical Harmonics?: true
    Max angular momentum: 2

  ==> DFJKGrad: Density-Fitted SCF Gradients <==

    Gradient:                    1
    J tasked:                  Yes
    K tasked:                  Yes
    wK tasked:                  No
    OpenMP threads:              1
    Integrals threads:           1
    Memory [MiB]:              375
    Schwarz Cutoff:          1E-12
    Fitting Condition:       1E-10

   => Auxiliary Basis Set <=

  Basis Set: (CC-PVDZ AUX)
    Blend: CC-PVDZ-JKFIT
    Number of shells: 60
    Number of basis functions: 182
    Number of Cartesian functions: 211
    Spherical Harmonics?: true
    Max angular momentum: 3

  ==> DFT Potential <==

   => LibXC <=

    Version 6.2.2
    S. Lehtola, C. Steigemann, M. J.T. Oliveira, and M. A.L. Marques.,  SoftwareX 7, 1â€“5 (2018) (10.1016/j.softx.2017.11.002)

   => Composite Functional: B3LYP <=

    B3LYP Hyb-GGA Exchange-Correlation Functional

    P. J. Stephens, F. J. Devlin, C. F. Chabalowski, and M. J. Frisch.,  J. Phys. Chem. 98, 11623 (1994) (10.1021/j100096a001)

    Deriv               =              1
    GGA                 =           TRUE
    Meta                =          FALSE

    Exchange Hybrid     =           TRUE
    MP2 Hybrid          =          FALSE

   => Exchange Functionals <=

    0.0800   Slater exchange
    0.7200         Becke 88

   => Exact (HF) Exchange <=

    0.2000               HF

   => Correlation Functionals <=

    0.1900   Vosko, Wilk & Nusair (VWN5_RPA)
    0.8100   Lee, Yang & Parr

   => LibXC Density Thresholds  <==

    XC_HYB_GGA_XC_B3LYP:  1.00E-15

   => Molecular Quadrature <=

    Radial Scheme          =       TREUTLER
    Pruning Scheme         =           NONE
    Nuclear Scheme         =       TREUTLER

    Blocking Scheme        =         OCTREE
    BS radius alpha        =              1
    Pruning alpha          =              1
    Radial Points          =             75
    Spherical Points       =            302
    Total Points           =          42443
    Total Blocks           =            388
    Max Points             =            255
    Max Functions          =             32
    Weights Tolerance      =       1.00E-15

  -Total Gradient:
     Atom            X                  Y                   Z
    ------   -----------------  -----------------  -----------------
       1        0.000000000000     0.000000000000    -0.000089608307
       2       -0.000000000000     0.000000000000     0.000074424578

*** tstop() called on Joses-MacBook-Pro-2.local at Thu Jul 17 13:44:41 2025
Module time:
	user time   =       0.70 seconds =       0.01 minutes
	system time =       1.57 seconds =       0.03 minutes
	total time  =          0 seconds =       0.00 minutes
Total time:
	user time   =      51.27 seconds =       0.85 minutes
	system time =      80.97 seconds =       1.35 minutes
	total time  =         12 seconds =       0.20 minutes

    			-----------------------------------------

    			 OPTKING 3.0: for geometry optimizations

    			     By R.A. King, Bethel University

    			        with contributions from

    			    A.V. Copan, J. Cayton, A. Heide

    			-----------------------------------------

	                            ===> Fragment 1 <==

	 Z (Atomic Numbers)          Masses                          Geom
	       6.000000            12.000000          0.00000000  0.00000000  2.29997791
	      14.000000            27.976927          0.00000000  0.00000000 -0.98651776

	 - Coordinate -           - BOHR/RAD -       - ANG/DEG -
	 R(1,2)           =         3.286496           1.739139

	        --- Internal Coordinate Step in ANG or DEG, aJ/ANG or AJ/DEG ---
	-------------------------------------------------------------------------------
	           Coordinate      Previous         Force          Change          New
	           ----------      --------        ------          ------        ------
	               R(1,2)       1.73914        0.00068        0.00016       1.73930
	-------------------------------------------------------------------------------

	                                 ==> Convergence Check <==

	Measures of convergence in internal coordinates in au.

	Criteria marked as inactive (o), active & met (*), and active & unmet ( ).

	----------------------------------------------------------------------------------------------
	   Step    Total Energy     Delta E     Max Force     RMS Force      Max Disp      RMS Disp
	----------------------------------------------------------------------------------------------
	  Convergence Criteria     1.00e-06 *    3.00e-04 *             o    1.20e-03 *             o
	----------------------------------------------------------------------------------------------
	    11    -327.00682896   -7.18e-07 *    8.20e-05 *    8.20e-05 o    3.11e-04 *    3.11e-04 o  ~
	----------------------------------------------------------------------------------------------

Next Geometry in Ang
	Fragment 1 (Ang)

	    C   0.0000000000   0.0000000000   1.2171782021
	   Si   0.0000000000   0.0000000000  -0.5221250249

    Final optimized geometry and variables:
    Molecular point group: c2v
    Full point group: C_inf_v

    Geometry (in Angstrom), charge = 1, multiplicity = 2:

    C            0.000000000000     0.000000000000     1.217095893487
    SI           0.000000000000     0.000000000000    -0.522042716299

    Psi4 stopped on: Thursday, 17 July 2025 01:44PM
    Psi4 wall time for execution: 0:00:13.09

*** Psi4 exiting successfully. Buy a developer a beer!
