                               Psi4 1.9.1 release

  ==> Input File <==

--------------------------------------------------------------------------
molecule {
1 2
He   0.00000        0.60000        0.00000
Ar   0.00000       -0.60000        0.00000
}

set {
basis              cc-pvdz
reference          uks
maxiter            500
geom_maxiter       500
DAMPING_PERCENTAGE 1
guess              SAP
}

optimize('b3lyp')
--------------------------------------------------------------------------

    Molecular point group: c2v
  Charge       = 1
  Multiplicity = 2
  Basis Set: CC-PVDZ
    Blend: CC-PVDZ
  Basis Set: (CC-PVDZ AUX)
    Blend: CC-PVDZ-JKFIT + DEF2-UNIVERSAL-JKFIT
  @DF-UKS Final Energy:  -529.68287980162529
    Total Energy =                       -529.6828798016251767
 Dipole X            :          0.0000000            0.0000000            0.0000000
 Dipole Y            :          0.0000000            0.0000000            0.0000000
 Dipole Z            :          0.1711352            0.4063348            0.5774700
 Magnitude           :                                                    0.5774700
    Molecular point group: c2v
  Basis Set: CC-PVDZ
    Blend: CC-PVDZ
  Basis Set: (CC-PVDZ AUX)
    Blend: CC-PVDZ-JKFIT + DEF2-UNIVERSAL-JKFIT
  Basis Set: CC-PVDZ
    Blend: CC-PVDZ
  Basis Set: (CC-PVDZ AUX)
    Blend: CC-PVDZ-JKFIT + DEF2-UNIVERSAL-JKFIT
  @DF-UKS Final Energy:  -529.82093606168098
    Total Energy =                       -529.8209360616809818
  Basis Set: CC-PVDZ
    Blend: CC-PVDZ
  Basis Set: (CC-PVDZ AUX)
    Blend: CC-PVDZ-JKFIT + DEF2-UNIVERSAL-JKFIT
  Basis Set: CC-PVDZ
    Blend: CC-PVDZ
  @DF-UKS Final Energy:  -529.84698229356570
    Total Energy =                       -529.8469822935657021
  @DF-UKS Final Energy:  -529.86379775211594
    Total Energy =                       -529.8637977521159428
  @DF-UKS Final Energy:  -529.87058629123976
    Total Energy =                       -529.8705862912397606
  @DF-UKS Final Energy:  -529.87344480757031
    Total Energy =                       -529.8734448075703085
  @DF-UKS Final Energy:  -529.87423291974437
    Total Energy =                       -529.8742329197444860
  @DF-UKS Final Energy:  -529.87457075420923
    Total Energy =                       -529.8745707542092305
  @DF-UKS Final Energy:  -529.87465240546146
    Total Energy =                       -529.8746524054614611
  @DF-UKS Final Energy:  -529.87467495238093
    Total Energy =                       -529.8746749523809285
  @DF-UKS Final Energy:  -529.87468317440425
    Total Energy =                       -529.8746831744042538
  Basis Set: (CC-PVDZ AUX)
    Blend: CC-PVDZ-JKFIT + DEF2-UNIVERSAL-JKFIT
  Basis Set: CC-PVDZ
    Blend: CC-PVDZ
  Basis Set: (CC-PVDZ AUX)
    Blend: CC-PVDZ-JKFIT + DEF2-UNIVERSAL-JKFIT
  @DF-UKS Final Energy:  -529.87468457895716
    Total Energy =                       -529.8746845789571580
  Basis Set: CC-PVDZ
    Blend: CC-PVDZ
  Basis Set: (CC-PVDZ AUX)
    Blend: CC-PVDZ-JKFIT + DEF2-UNIVERSAL-JKFIT
  Charge       = 1
  Multiplicity = 2
  Basis Set: CC-PVDZ
    Blend: CC-PVDZ
  Basis Set: (CC-PVDZ AUX)
    Blend: CC-PVDZ-JKFIT + DEF2-UNIVERSAL-JKFIT

    Orbital Energies [Eh]
    ---------------------

    Alpha Occupied:

       1A1  -115.608925     2A1   -11.635817     3A1    -9.207468
       1B2    -9.178808     1B1    -9.178808     4A1    -1.435135
       5A1    -0.983281     6A1    -0.886295     2B2    -0.848587
       2B1    -0.848587

    Alpha Virtual:

       3B2     0.229864     3B1     0.229864     7A1     0.230555
       8A1     0.329326     9A1     0.337013     4B1     0.358211
       4B2     0.358211    10A1     0.407184     1A2     0.407184
      11A1     0.965469     5B1     1.890976     5B2     1.890976
      12A1     1.976014

    Beta Occupied:

       1A1  -115.600373     2A1   -11.627669     3A1    -9.180388
       1B1    -9.173897     1B2    -9.173897     4A1    -1.376304
       5A1    -0.945721     2B2    -0.829894     2B1    -0.829894

    Beta Virtual:

       6A1    -0.715064     3B2     0.236645     3B1     0.236645
       7A1     0.270576     8A1     0.355522     9A1     0.415580
      10A1     0.416942     1A2     0.416942     4B1     0.421462
       4B2     0.421462    11A1     0.981458     5B2     1.903618
       5B1     1.903618    12A1     1.988487

    Final Occupation by Irrep:
             A1    A2    B1    B2
    DOCC [     5,    0,    2,    2 ]
    SOCC [     1,    0,    0,    0 ]
    NA   [     6,    0,    2,    2 ]
    NB   [     5,    0,    2,    2 ]

  @DF-UKS Final Energy:  -529.87468470364024

   => Energetics <=

    Nuclear Repulsion Energy =              8.8585712138745532
    One-Electron Energy =                -740.8431825213541515
    Two-Electron Energy =                 227.5465008331545107
    DFT Exchange-Correlation Energy =     -25.4365742293152053
    Empirical Dispersion Energy =           0.0000000000000000
    VV10 Nonlocal Energy =                  0.0000000000000000
    Total Energy =                       -529.8746847036402414

  UHF NO Occupations:
  HONO-2 :    4 A1 1.9998750
  HONO-1 :    5 A1 1.9992818
  HONO-0 :    6 A1 1.0000000
  LUNO+0 :    7 A1 0.0007182
  LUNO+1 :    8 A1 0.0001250
  LUNO+2 :    3 B2 0.0000226
  LUNO+3 :    3 B1 0.0000226

Computation Completed

Properties will be evaluated at   0.000000,   0.000000,   0.000000 [a0]

Properties computed using the SCF density matrix

 Multipole Moments:

 ------------------------------------------------------------------------------------
     Multipole            Electronic (a.u.)      Nuclear  (a.u.)        Total (a.u.)
 ------------------------------------------------------------------------------------

 L = 1.  Multiply by 2.5417464519 to convert [e a0] to [Debye]
 Dipole X            :          0.0000000            0.0000000            0.0000000
 Dipole Y            :          0.0000000            0.0000000            0.0000000
 Dipole Z            :         -0.7842162            0.7281867           -0.0560295
 Magnitude           :                                                    0.0560295

 ------------------------------------------------------------------------------------

*** tstop() called on Joses-MacBook-Pro-2.local at Thu Jul 17 12:42:19 2025
Module time:
	user time   =       3.11 seconds =       0.05 minutes
	system time =       2.51 seconds =       0.04 minutes
	total time  =          0 seconds =       0.00 minutes
Total time:
	user time   =      48.25 seconds =       0.80 minutes
	system time =      59.42 seconds =       0.99 minutes
	total time  =         10 seconds =       0.17 minutes

*** tstart() called on Joses-MacBook-Pro-2.local
*** at Thu Jul 17 12:42:19 2025

         ------------------------------------------------------------
                                   SCF GRAD
                          Rob Parrish, Justin Turney,
                       Andy Simmonett, and Alex Sokolov
         ------------------------------------------------------------

  ==> Geometry <==

    Molecular point group: c2v
    Full point group: C_inf_v

    Geometry (in Angstrom), charge = 1, multiplicity = 2:

       Center              X                  Y                   Z               Mass
    ------------   -----------------  -----------------  -----------------  -----------------
         HE           0.000000000000     0.000000000000     1.954719245573     4.002603254130
         AR           0.000000000000     0.000000000000    -0.195783259197    39.962383123700

  Nuclear repulsion =    8.858571213874553

  ==> Basis Set <==

  Basis Set: CC-PVDZ
    Blend: CC-PVDZ
    Number of shells: 11
    Number of basis functions: 23
    Number of Cartesian functions: 24
    Spherical Harmonics?: true
    Max angular momentum: 2

  ==> DFJKGrad: Density-Fitted SCF Gradients <==

    Gradient:                    1
    J tasked:                  Yes
    K tasked:                  Yes
    wK tasked:                  No
    OpenMP threads:              1
    Integrals threads:           1
    Memory [MiB]:              375
    Schwarz Cutoff:          1E-12
    Fitting Condition:       1E-10

   => Auxiliary Basis Set <=

  Basis Set: (CC-PVDZ AUX)
    Blend: CC-PVDZ-JKFIT + DEF2-UNIVERSAL-JKFIT
    Number of shells: 45
    Number of basis functions: 135
    Number of Cartesian functions: 155
    Spherical Harmonics?: true
    Max angular momentum: 3

  ==> DFT Potential <==

   => LibXC <=

    Version 6.2.2
    S. Lehtola, C. Steigemann, M. J.T. Oliveira, and M. A.L. Marques.,  SoftwareX 7, 1â€“5 (2018) (10.1016/j.softx.2017.11.002)

   => Composite Functional: B3LYP <=

    B3LYP Hyb-GGA Exchange-Correlation Functional

    P. J. Stephens, F. J. Devlin, C. F. Chabalowski, and M. J. Frisch.,  J. Phys. Chem. 98, 11623 (1994) (10.1021/j100096a001)

    Deriv               =              1
    GGA                 =           TRUE
    Meta                =          FALSE

    Exchange Hybrid     =           TRUE
    MP2 Hybrid          =          FALSE

   => Exchange Functionals <=

    0.0800   Slater exchange
    0.7200         Becke 88

   => Exact (HF) Exchange <=

    0.2000               HF

   => Correlation Functionals <=

    0.1900   Vosko, Wilk & Nusair (VWN5_RPA)
    0.8100   Lee, Yang & Parr

   => LibXC Density Thresholds  <==

    XC_HYB_GGA_XC_B3LYP:  1.00E-15

   => Molecular Quadrature <=

    Radial Scheme          =       TREUTLER
    Pruning Scheme         =           NONE
    Nuclear Scheme         =       TREUTLER

    Blocking Scheme        =         OCTREE
    BS radius alpha        =              1
    Pruning alpha          =              1
    Radial Points          =             75
    Spherical Points       =            302
    Total Points           =          41892
    Total Blocks           =            372
    Max Points             =            255
    Max Functions          =             23
    Weights Tolerance      =       1.00E-15

  -Total Gradient:
     Atom            X                  Y                   Z
    ------   -----------------  -----------------  -----------------
       1        0.000000000000     0.000000000000    -0.000008690081
       2       -0.000000000000    -0.000000000000     0.000010093174

*** tstop() called on Joses-MacBook-Pro-2.local at Thu Jul 17 12:42:19 2025
Module time:
	user time   =       0.40 seconds =       0.01 minutes
	system time =       1.22 seconds =       0.02 minutes
	total time  =          0 seconds =       0.00 minutes
Total time:
	user time   =      48.65 seconds =       0.81 minutes
	system time =      60.64 seconds =       1.01 minutes
	total time  =         10 seconds =       0.17 minutes

    			-----------------------------------------

    			 OPTKING 3.0: for geometry optimizations

    			     By R.A. King, Bethel University

    			        with contributions from

    			    A.V. Copan, J. Cayton, A. Heide

    			-----------------------------------------

	                            ===> Fragment 1 <==

	 Z (Atomic Numbers)          Masses                          Geom
	       2.000000             4.002603          0.00000000  0.00000000  3.69388403
	      18.000000            39.962383          0.00000000  0.00000000 -0.36997674

	 - Coordinate -           - BOHR/RAD -       - ANG/DEG -
	 R(1,2)           =         4.063861           2.150503

	        --- Internal Coordinate Step in ANG or DEG, aJ/ANG or AJ/DEG ---
	-------------------------------------------------------------------------------
	           Coordinate      Previous         Force          Change          New
	           ----------      --------        ------          ------        ------
	               R(1,2)       2.15050        0.00008        0.00030       2.15080
	-------------------------------------------------------------------------------

	                                 ==> Convergence Check <==

	Measures of convergence in internal coordinates in au.

	Criteria marked as inactive (o), active & met (*), and active & unmet ( ).

	----------------------------------------------------------------------------------------------
	   Step    Total Energy     Delta E     Max Force     RMS Force      Max Disp      RMS Disp
	----------------------------------------------------------------------------------------------
	  Convergence Criteria     1.00e-06 *    3.00e-04 *             o    1.20e-03 *             o
	----------------------------------------------------------------------------------------------
	    13    -529.87468470   -1.25e-07 *    9.39e-06 *    9.39e-06 o    5.63e-04 *    5.63e-04 o  ~
	----------------------------------------------------------------------------------------------

Next Geometry in Ang
	Fragment 1 (Ang)

	   He   0.0000000000   0.0000000000   1.9548682705
	   Ar   0.0000000000   0.0000000000  -0.1959322841

    Final optimized geometry and variables:
    Molecular point group: c2v
    Full point group: C_inf_v

    Geometry (in Angstrom), charge = 1, multiplicity = 2:

    HE           0.000000000000     0.000000000000     1.954719245573
    AR           0.000000000000     0.000000000000    -0.195783259197

    Psi4 stopped on: Thursday, 17 July 2025 12:42PM
    Psi4 wall time for execution: 0:00:10.97

*** Psi4 exiting successfully. Buy a developer a beer!
