                               Psi4 1.9.1 release

  ==> Input File <==

--------------------------------------------------------------------------
molecule {
1 2
C   0.00000        0.60000        0.00000
S   0.00000       -0.60000        0.00000
}

set {
basis              cc-pvdz
reference          uks
maxiter            500
geom_maxiter       500
DAMPING_PERCENTAGE 1
guess              SAP
}

optimize('b3lyp')
--------------------------------------------------------------------------

    Molecular point group: c2v
  Charge       = 1
  Multiplicity = 2
  Basis Set: CC-PVDZ
    Blend: CC-PVDZ
  Basis Set: (CC-PVDZ AUX)
    Blend: CC-PVDZ-JKFIT
  @DF-UKS Final Energy:  -435.60992336749734
    Total Energy =                       -435.6099233674972879
 Dipole X            :          0.0000000            0.0000000            0.0000000
 Dipole Y            :          0.0000000            0.0000000            0.0000000
 Dipole Z            :          0.0369738           -0.0086419            0.0283320
 Magnitude           :                                                    0.0283320
    Molecular point group: c2v
  Basis Set: CC-PVDZ
    Blend: CC-PVDZ
  Basis Set: (CC-PVDZ AUX)
    Blend: CC-PVDZ-JKFIT
  Basis Set: CC-PVDZ
    Blend: CC-PVDZ
  Basis Set: (CC-PVDZ AUX)
    Blend: CC-PVDZ-JKFIT
  @DF-UKS Final Energy:  -435.75095783082998
    Total Energy =                       -435.7509578308300320
  Basis Set: CC-PVDZ
    Blend: CC-PVDZ
  Basis Set: (CC-PVDZ AUX)
    Blend: CC-PVDZ-JKFIT
  Basis Set: CC-PVDZ
    Blend: CC-PVDZ
  @DF-UKS Final Energy:  -435.79869000147210
    Total Energy =                       -435.7986900014720959
  @DF-UKS Final Energy:  -435.80949576306261
    Total Energy =                       -435.8094957630626141
  @DF-UKS Final Energy:  -435.81249902131015
    Total Energy =                       -435.8124990213101455
  @DF-UKS Final Energy:  -435.81366645835709
    Total Energy =                       -435.8136664583571473
  @DF-UKS Final Energy:  -435.81386801543817
    Total Energy =                       -435.8138680154381746
  @DF-UKS Final Energy:  -435.81391052985873
    Total Energy =                       -435.8139105298587310
  Basis Set: (CC-PVDZ AUX)
    Blend: CC-PVDZ-JKFIT
  Basis Set: CC-PVDZ
    Blend: CC-PVDZ
  Basis Set: (CC-PVDZ AUX)
    Blend: CC-PVDZ-JKFIT
  @DF-UKS Final Energy:  -435.81391363517417
    Total Energy =                       -435.8139136351742309
  Basis Set: CC-PVDZ
    Blend: CC-PVDZ
  Basis Set: (CC-PVDZ AUX)
    Blend: CC-PVDZ-JKFIT
  Charge       = 1
  Multiplicity = 2
  Basis Set: CC-PVDZ
    Blend: CC-PVDZ
  Basis Set: (CC-PVDZ AUX)
    Blend: CC-PVDZ-JKFIT

    Orbital Energies [Eh]
    ---------------------

    Alpha Occupied:

       1A1   -89.286828     2A1   -10.673461     3A1    -8.346014
       4A1    -6.309929     1B1    -6.303688     1B2    -6.303688
       5A1    -1.182685     6A1    -0.856631     7A1    -0.710130
       2B1    -0.676849     2B2    -0.676849

    Alpha Virtual:

       3B1    -0.409725     3B2    -0.409725     8A1    -0.160587
       9A1     0.091711     4B1     0.154213     4B2     0.154213
      10A1     0.179089    11A1     0.207977     5B1     0.232602
       5B2     0.232602    12A1     0.245060     1A2     0.245060
       6B1     0.315652     6B2     0.315652    13A1     0.597123
      14A1     0.818812    15A1     0.832487     2A2     0.832487
       7B1     1.120358     7B2     1.120358    16A1     1.479094

    Beta Occupied:

       1A1   -89.287013     2A1   -10.651642     3A1    -8.346258
       1B1    -6.306066     1B2    -6.306066     4A1    -6.305858
       5A1    -1.165287     6A1    -0.818943     2B1    -0.667595
       2B2    -0.667595

    Beta Virtual:

       7A1    -0.521933     3B1    -0.381212     3B2    -0.381212
       8A1    -0.146413     9A1     0.107573     4B1     0.158537
       4B2     0.158537    10A1     0.209713    11A1     0.233028
       1A2     0.233028     5B1     0.253074     5B2     0.253074
      12A1     0.257452     6B1     0.326596     6B2     0.326596
      13A1     0.611175    14A1     0.843745    15A1     0.868272
       2A2     0.868272     7B1     1.176348     7B2     1.176348
      16A1     1.545842

    Final Occupation by Irrep:
             A1    A2    B1    B2
    DOCC [     6,    0,    2,    2 ]
    SOCC [     1,    0,    0,    0 ]
    NA   [     7,    0,    2,    2 ]
    NB   [     6,    0,    2,    2 ]

  @DF-UKS Final Energy:  -435.81391371288680

   => Energetics <=

    Nuclear Repulsion Energy =             33.7512984486625669
    One-Electron Energy =                -659.6586850251721899
    Two-Electron Energy =                 214.8150705769836293
    DFT Exchange-Correlation Energy =     -24.7215977133607439
    Empirical Dispersion Energy =           0.0000000000000000
    VV10 Nonlocal Energy =                  0.0000000000000000
    Total Energy =                       -435.8139137128867446

  UHF NO Occupations:
  HONO-2 :    2 B2 1.9910288
  HONO-1 :    2 B1 1.9910288
  HONO-0 :    7 A1 1.0000000
  LUNO+0 :    3 B1 0.0089712
  LUNO+1 :    3 B2 0.0089712
  LUNO+2 :    8 A1 0.0006237
  LUNO+3 :    9 A1 0.0001162

Computation Completed

Properties will be evaluated at   0.000000,   0.000000,   0.000000 [a0]

Properties computed using the SCF density matrix

 Multipole Moments:

 ------------------------------------------------------------------------------------
     Multipole            Electronic (a.u.)      Nuclear  (a.u.)        Total (a.u.)
 ------------------------------------------------------------------------------------

 L = 1.  Multiply by 2.5417464519 to convert [e a0] to [Debye]
 Dipole X            :          0.0000000            0.0000000            0.0000000
 Dipole Y            :          0.0000000            0.0000000            0.0000000
 Dipole Z            :          0.2589307           -0.0108395            0.2480913
 Magnitude           :                                                    0.2480913

 ------------------------------------------------------------------------------------

*** tstop() called on Joses-MacBook-Pro-2.local at Thu Jul 17 13:45:59 2025
Module time:
	user time   =       3.86 seconds =       0.06 minutes
	system time =       4.38 seconds =       0.07 minutes
	total time  =          1 seconds =       0.02 minutes
Total time:
	user time   =      53.24 seconds =       0.89 minutes
	system time =      74.93 seconds =       1.25 minutes
	total time  =         14 seconds =       0.23 minutes

*** tstart() called on Joses-MacBook-Pro-2.local
*** at Thu Jul 17 13:45:59 2025

         ------------------------------------------------------------
                                   SCF GRAD
                          Rob Parrish, Justin Turney,
                       Andy Simmonett, and Alex Sokolov
         ------------------------------------------------------------

  ==> Geometry <==

    Molecular point group: c2v
    Full point group: C_inf_v

    Geometry (in Angstrom), charge = 1, multiplicity = 2:

       Center              X                  Y                   Z               Mass
    ------------   -----------------  -----------------  -----------------  -----------------
         C            0.000000000000     0.000000000000     1.094399105446    12.000000000000
         S            0.000000000000     0.000000000000    -0.410758164328    31.972071174400

  Nuclear repulsion =   33.751298448662567

  ==> Basis Set <==

  Basis Set: CC-PVDZ
    Blend: CC-PVDZ
    Number of shells: 14
    Number of basis functions: 32
    Number of Cartesian functions: 34
    Spherical Harmonics?: true
    Max angular momentum: 2

  ==> DFJKGrad: Density-Fitted SCF Gradients <==

    Gradient:                    1
    J tasked:                  Yes
    K tasked:                  Yes
    wK tasked:                  No
    OpenMP threads:              1
    Integrals threads:           1
    Memory [MiB]:              375
    Schwarz Cutoff:          1E-12
    Fitting Condition:       1E-10

   => Auxiliary Basis Set <=

  Basis Set: (CC-PVDZ AUX)
    Blend: CC-PVDZ-JKFIT
    Number of shells: 60
    Number of basis functions: 182
    Number of Cartesian functions: 211
    Spherical Harmonics?: true
    Max angular momentum: 3

  ==> DFT Potential <==

   => LibXC <=

    Version 6.2.2
    S. Lehtola, C. Steigemann, M. J.T. Oliveira, and M. A.L. Marques.,  SoftwareX 7, 1â€“5 (2018) (10.1016/j.softx.2017.11.002)

   => Composite Functional: B3LYP <=

    B3LYP Hyb-GGA Exchange-Correlation Functional

    P. J. Stephens, F. J. Devlin, C. F. Chabalowski, and M. J. Frisch.,  J. Phys. Chem. 98, 11623 (1994) (10.1021/j100096a001)

    Deriv               =              1
    GGA                 =           TRUE
    Meta                =          FALSE

    Exchange Hybrid     =           TRUE
    MP2 Hybrid          =          FALSE

   => Exchange Functionals <=

    0.0800   Slater exchange
    0.7200         Becke 88

   => Exact (HF) Exchange <=

    0.2000               HF

   => Correlation Functionals <=

    0.1900   Vosko, Wilk & Nusair (VWN5_RPA)
    0.8100   Lee, Yang & Parr

   => LibXC Density Thresholds  <==

    XC_HYB_GGA_XC_B3LYP:  1.00E-15

   => Molecular Quadrature <=

    Radial Scheme          =       TREUTLER
    Pruning Scheme         =           NONE
    Nuclear Scheme         =       TREUTLER

    Blocking Scheme        =         OCTREE
    BS radius alpha        =              1
    Pruning alpha          =              1
    Radial Points          =             75
    Spherical Points       =            302
    Total Points           =          41340
    Total Blocks           =            369
    Max Points             =            256
    Max Functions          =             32
    Weights Tolerance      =       1.00E-15

  -Total Gradient:
     Atom            X                  Y                   Z
    ------   -----------------  -----------------  -----------------
       1        0.000000000000    -0.000000000000    -0.000043597728
       2       -0.000000000000     0.000000000000     0.000019714867

*** tstop() called on Joses-MacBook-Pro-2.local at Thu Jul 17 13:45:59 2025
Module time:
	user time   =       1.09 seconds =       0.02 minutes
	system time =       2.14 seconds =       0.04 minutes
	total time  =          0 seconds =       0.00 minutes
Total time:
	user time   =      54.33 seconds =       0.91 minutes
	system time =      77.07 seconds =       1.28 minutes
	total time  =         14 seconds =       0.23 minutes

    			-----------------------------------------

    			 OPTKING 3.0: for geometry optimizations

    			     By R.A. King, Bethel University

    			        with contributions from

    			    A.V. Copan, J. Cayton, A. Heide

    			-----------------------------------------

	                            ===> Fragment 1 <==

	 Z (Atomic Numbers)          Masses                          Geom
	       6.000000            12.000000          0.00000000  0.00000000  2.06811458
	      16.000000            31.972071          0.00000000  0.00000000 -0.77622043

	 - Coordinate -           - BOHR/RAD -       - ANG/DEG -
	 R(1,2)           =         2.844335           1.505157

	        --- Internal Coordinate Step in ANG or DEG, aJ/ANG or AJ/DEG ---
	-------------------------------------------------------------------------------
	           Coordinate      Previous         Force          Change          New
	           ----------      --------        ------          ------        ------
	               R(1,2)       1.50516        0.00026        0.00002       1.50518
	-------------------------------------------------------------------------------

	                                 ==> Convergence Check <==

	Measures of convergence in internal coordinates in au.

	Criteria marked as inactive (o), active & met (*), and active & unmet ( ).

	----------------------------------------------------------------------------------------------
	   Step    Total Energy     Delta E     Max Force     RMS Force      Max Disp      RMS Disp
	----------------------------------------------------------------------------------------------
	  Convergence Criteria     1.00e-06 *    3.00e-04 *             o    1.20e-03 *             o
	----------------------------------------------------------------------------------------------
	    10    -435.81391371   -7.77e-08 *    3.17e-05 *    3.17e-05 o    4.68e-05 *    4.68e-05 o  ~
	----------------------------------------------------------------------------------------------

Next Geometry in Ang
	Fragment 1 (Ang)

	    C   0.0000000000   0.0000000000   1.0944114754
	    S   0.0000000000   0.0000000000  -0.4107705342

    Final optimized geometry and variables:
    Molecular point group: c2v
    Full point group: C_inf_v

    Geometry (in Angstrom), charge = 1, multiplicity = 2:

    C            0.000000000000     0.000000000000     1.094399105446
    S            0.000000000000     0.000000000000    -0.410758164328

    Psi4 stopped on: Thursday, 17 July 2025 01:45PM
    Psi4 wall time for execution: 0:00:14.86

*** Psi4 exiting successfully. Buy a developer a beer!
