                               Psi4 1.9.1 release

  ==> Input File <==

--------------------------------------------------------------------------
molecule {
1 2
Al   0.00000        0.60000        0.00000
P   0.00000       -0.60000        0.00000
}

set {
basis              cc-pvdz
reference          uks
maxiter            500
geom_maxiter       500
DAMPING_PERCENTAGE 1
guess              SAP
}

optimize('b3lyp')
--------------------------------------------------------------------------

    Molecular point group: c2v
  Charge       = 1
  Multiplicity = 2
  Basis Set: CC-PVDZ
    Blend: CC-PVDZ
  Basis Set: (CC-PVDZ AUX)
    Blend: CC-PVDZ-JKFIT
  @DF-UKS Final Energy:  -582.33004659195649
    Total Energy =                       -582.3300465919564886
 Dipole X            :          0.0000000            0.0000000            0.0000000
 Dipole Y            :          0.0000000            0.0000000            0.0000000
 Dipole Z            :          1.0817069           -0.0807668            1.0009401
 Magnitude           :                                                    1.0009401
    Molecular point group: c2v
  Basis Set: CC-PVDZ
    Blend: CC-PVDZ
  Basis Set: (CC-PVDZ AUX)
    Blend: CC-PVDZ-JKFIT
  Basis Set: CC-PVDZ
    Blend: CC-PVDZ
  Basis Set: (CC-PVDZ AUX)
    Blend: CC-PVDZ-JKFIT
  @DF-UKS Final Energy:  -582.34810241616822
    Total Energy =                       -582.3481024161682171
  Basis Set: CC-PVDZ
    Blend: CC-PVDZ
  Basis Set: (CC-PVDZ AUX)
    Blend: CC-PVDZ-JKFIT
  Basis Set: CC-PVDZ
    Blend: CC-PVDZ
  @DF-UKS Final Energy:  -582.38279712300698
    Total Energy =                       -582.3827971230070943
  @DF-UKS Final Energy:  -582.50689720231037
    Total Energy =                       -582.5068972023103697
  @DF-UKS Final Energy:  -582.99527748720891
    Total Energy =                       -582.9952774872087957
  @DF-UKS Final Energy:  -583.23326019447268
    Total Energy =                       -583.2332601944726775
  @DF-UKS Final Energy:  -583.35654835993751
    Total Energy =                       -583.3565483599375057
  @DF-UKS Final Energy:  -583.39598784673035
    Total Energy =                       -583.3959878467303497
  @DF-UKS Final Energy:  -583.41166674857675
    Total Energy =                       -583.4116667485767493
  @DF-UKS Final Energy:  -583.41538044455228
    Total Energy =                       -583.4153804445522837
  @DF-UKS Final Energy:  -583.41668170972105
    Total Energy =                       -583.4166817097210469
  @DF-UKS Final Energy:  -583.41692653683049
    Total Energy =                       -583.4169265368303741
  @DF-UKS Final Energy:  -583.41697819175920
    Total Energy =                       -583.4169781917591990
  Basis Set: (CC-PVDZ AUX)
    Blend: CC-PVDZ-JKFIT
  Basis Set: CC-PVDZ
    Blend: CC-PVDZ
  Basis Set: (CC-PVDZ AUX)
    Blend: CC-PVDZ-JKFIT
  @DF-UKS Final Energy:  -583.41699173243137
    Total Energy =                       -583.4169917324313701
  Basis Set: CC-PVDZ
    Blend: CC-PVDZ
  Basis Set: (CC-PVDZ AUX)
    Blend: CC-PVDZ-JKFIT
  Charge       = 1
  Multiplicity = 2
  Basis Set: CC-PVDZ
    Blend: CC-PVDZ
  Basis Set: (CC-PVDZ AUX)
    Blend: CC-PVDZ-JKFIT

    Orbital Energies [Eh]
    ---------------------

    Alpha Occupied:

       1A1   -77.349498     2A1   -56.390181     3A1    -6.815263
       1B1    -4.980947     4A1    -4.980814     1B2    -4.968425
       5A1    -4.463240     6A1    -3.016907     2B1    -3.016759
       2B2    -3.013403     7A1    -0.821423     8A1    -0.573914
       3B1    -0.478894     3B2    -0.446160

    Alpha Virtual:

       9A1    -0.408546     4B1    -0.284626     4B2    -0.272009
      10A1    -0.168745    11A1    -0.058484     5B1    -0.015708
      12A1    -0.006707     5B2    -0.004978     1A2     0.021645
      13A1     0.021788     6B1     0.032440     6B2     0.042010
      14A1     0.095201     7B1     0.226535     7B2     0.249539
      15A1     0.261982     2A2     0.263023    16A1     0.295490
      17A1     0.357634     8B1     0.395776     8B2     0.418348
      18A1     0.687247

    Beta Occupied:

       1A1   -77.345174     2A1   -56.390383     3A1    -6.810606
       4A1    -4.977271     1B1    -4.967537     1B2    -4.965030
       5A1    -4.463704     6A1    -3.017233     2B1    -3.015937
       2B2    -3.014267     7A1    -0.782326     8A1    -0.564266
       3B2    -0.433782

    Beta Virtual:

       9A1    -0.403531     3B1    -0.368675     4B2    -0.274497
       4B1    -0.264410    10A1    -0.164600    11A1    -0.052281
       5B2    -0.004624    12A1    -0.003957     5B1    -0.001299
       1A2     0.024478    13A1     0.025364     6B2     0.039014
       6B1     0.040859    14A1     0.100556     7B2     0.256771
       7B1     0.262832    15A1     0.304610     2A2     0.304801
      16A1     0.309138    17A1     0.368076     8B2     0.425671
       8B1     0.431057    18A1     0.702767

    Final Occupation by Irrep:
             A1    A2    B1    B2
    DOCC [     8,    0,    2,    3 ]
    SOCC [     0,    0,    1,    0 ]
    NA   [     8,    0,    3,    3 ]
    NB   [     8,    0,    2,    3 ]

  @DF-UKS Final Energy:  -583.41699309482851

   => Energetics <=

    Nuclear Repulsion Energy =             46.3765532782961998
    One-Electron Energy =                -893.6668659128959007
    Two-Electron Energy =                 297.3522257661539925
    DFT Exchange-Correlation Energy =     -33.4789062263827901
    Empirical Dispersion Energy =           0.0000000000000000
    VV10 Nonlocal Energy =                  0.0000000000000000
    Total Energy =                       -583.4169930948285128

  UHF NO Occupations:
  HONO-2 :    3 B2 1.9976434
  HONO-1 :    8 A1 1.9926576
  HONO-0 :    3 B1 1.0000000
  LUNO+0 :    9 A1 0.0073424
  LUNO+1 :    4 B2 0.0023566
  LUNO+2 :   10 A1 0.0007945
  LUNO+3 :    4 B1 0.0000000

Computation Completed

Properties will be evaluated at   0.000000,   0.000000,   0.000000 [a0]

Properties computed using the SCF density matrix

 Multipole Moments:

 ------------------------------------------------------------------------------------
     Multipole            Electronic (a.u.)      Nuclear  (a.u.)        Total (a.u.)
 ------------------------------------------------------------------------------------

 L = 1.  Multiply by 2.5417464519 to convert [e a0] to [Debye]
 Dipole X            :          0.0000000            0.0000000            0.0000000
 Dipole Y            :          0.0000000            0.0000000            0.0000000
 Dipole Z            :          1.9781265           -0.1497576            1.8283689
 Magnitude           :                                                    1.8283689

 ------------------------------------------------------------------------------------

*** tstop() called on Joses-MacBook-Pro-2.local at Thu Jul 17 15:18:05 2025
Module time:
	user time   =       8.40 seconds =       0.14 minutes
	system time =       1.39 seconds =       0.02 minutes
	total time  =          0 seconds =       0.00 minutes
Total time:
	user time   =     416.24 seconds =       6.94 minutes
	system time =      61.71 seconds =       1.03 minutes
	total time  =         47 seconds =       0.78 minutes

*** tstart() called on Joses-MacBook-Pro-2.local
*** at Thu Jul 17 15:18:05 2025

         ------------------------------------------------------------
                                   SCF GRAD
                          Rob Parrish, Justin Turney,
                       Andy Simmonett, and Alex Sokolov
         ------------------------------------------------------------

  ==> Geometry <==

    Molecular point group: c2v
    Full point group: C_inf_v

    Geometry (in Angstrom), charge = 1, multiplicity = 2:

       Center              X                  Y                   Z               Mass
    ------------   -----------------  -----------------  -----------------  -----------------
         AL           0.000000000000     0.000000000000     1.189153915649    26.981538530000
         P            0.000000000000     0.000000000000    -1.035883280656    30.973761998420

  Nuclear repulsion =   46.376553278296200

  ==> Basis Set <==

  Basis Set: CC-PVDZ
    Blend: CC-PVDZ
    Number of shells: 16
    Number of basis functions: 36
    Number of Cartesian functions: 38
    Spherical Harmonics?: true
    Max angular momentum: 2

  ==> DFJKGrad: Density-Fitted SCF Gradients <==

    Gradient:                    1
    J tasked:                  Yes
    K tasked:                  Yes
    wK tasked:                  No
    OpenMP threads:              1
    Integrals threads:           1
    Memory [MiB]:              375
    Schwarz Cutoff:          1E-12
    Fitting Condition:       1E-10

   => Auxiliary Basis Set <=

  Basis Set: (CC-PVDZ AUX)
    Blend: CC-PVDZ-JKFIT
    Number of shells: 72
    Number of basis functions: 224
    Number of Cartesian functions: 260
    Spherical Harmonics?: true
    Max angular momentum: 3

  ==> DFT Potential <==

   => LibXC <=

    Version 6.2.2
    S. Lehtola, C. Steigemann, M. J.T. Oliveira, and M. A.L. Marques.,  SoftwareX 7, 1â€“5 (2018) (10.1016/j.softx.2017.11.002)

   => Composite Functional: B3LYP <=

    B3LYP Hyb-GGA Exchange-Correlation Functional

    P. J. Stephens, F. J. Devlin, C. F. Chabalowski, and M. J. Frisch.,  J. Phys. Chem. 98, 11623 (1994) (10.1021/j100096a001)

    Deriv               =              1
    GGA                 =           TRUE
    Meta                =          FALSE

    Exchange Hybrid     =           TRUE
    MP2 Hybrid          =          FALSE

   => Exchange Functionals <=

    0.0800   Slater exchange
    0.7200         Becke 88

   => Exact (HF) Exchange <=

    0.2000               HF

   => Correlation Functionals <=

    0.1900   Vosko, Wilk & Nusair (VWN5_RPA)
    0.8100   Lee, Yang & Parr

   => LibXC Density Thresholds  <==

    XC_HYB_GGA_XC_B3LYP:  1.00E-15

   => Molecular Quadrature <=

    Radial Scheme          =       TREUTLER
    Pruning Scheme         =           NONE
    Nuclear Scheme         =       TREUTLER

    Blocking Scheme        =         OCTREE
    BS radius alpha        =              1
    Pruning alpha          =              1
    Radial Points          =             75
    Spherical Points       =            302
    Total Points           =          42655
    Total Blocks           =            401
    Max Points             =            256
    Max Functions          =             36
    Weights Tolerance      =       1.00E-15

  -Total Gradient:
     Atom            X                  Y                   Z
    ------   -----------------  -----------------  -----------------
       1        0.000000000000    -0.000000000000    -0.000097631386
       2        0.000000000000    -0.000000000000     0.000113443638

*** tstop() called on Joses-MacBook-Pro-2.local at Thu Jul 17 15:18:06 2025
Module time:
	user time   =       2.57 seconds =       0.04 minutes
	system time =       1.35 seconds =       0.02 minutes
	total time  =          1 seconds =       0.02 minutes
Total time:
	user time   =     418.81 seconds =       6.98 minutes
	system time =      63.06 seconds =       1.05 minutes
	total time  =         48 seconds =       0.80 minutes

    			-----------------------------------------

    			 OPTKING 3.0: for geometry optimizations

    			     By R.A. King, Bethel University

    			        with contributions from

    			    A.V. Copan, J. Cayton, A. Heide

    			-----------------------------------------

	                            ===> Fragment 1 <==

	 Z (Atomic Numbers)          Masses                          Geom
	      13.000000            26.981539          0.00000000  0.00000000  2.24717522
	      15.000000            30.973762          0.00000000  0.00000000 -1.95753570

	 - Coordinate -           - BOHR/RAD -       - ANG/DEG -
	 R(1,2)           =         4.204711           2.225037

	        --- Internal Coordinate Step in ANG or DEG, aJ/ANG or AJ/DEG ---
	-------------------------------------------------------------------------------
	           Coordinate      Previous         Force          Change          New
	           ----------      --------        ------          ------        ------
	               R(1,2)       2.22504        0.00087        0.00049       2.22552
	-------------------------------------------------------------------------------

	                                 ==> Convergence Check <==

	Measures of convergence in internal coordinates in au.

	Criteria marked as inactive (o), active & met (*), and active & unmet ( ).

	----------------------------------------------------------------------------------------------
	   Step    Total Energy     Delta E     Max Force     RMS Force      Max Disp      RMS Disp
	----------------------------------------------------------------------------------------------
	  Convergence Criteria     1.00e-06 *    3.00e-04 *             o    1.20e-03 *             o
	----------------------------------------------------------------------------------------------
	    15    -583.41699309   -1.36e-06      1.06e-04 *    1.06e-04 o    9.19e-04 *    9.19e-04 o  ~
	----------------------------------------------------------------------------------------------

Next Geometry in Ang
	Fragment 1 (Ang)

	   Al   0.0000000000   0.0000000000   1.1893970958
	    P   0.0000000000   0.0000000000  -1.0361264608

    Final optimized geometry and variables:
    Molecular point group: c2v
    Full point group: C_inf_v

    Geometry (in Angstrom), charge = 1, multiplicity = 2:

    AL           0.000000000000     0.000000000000     1.189153915649
    P            0.000000000000     0.000000000000    -1.035883280656

    Psi4 stopped on: Thursday, 17 July 2025 03:18PM
    Psi4 wall time for execution: 0:00:48.71

*** Psi4 exiting successfully. Buy a developer a beer!
