                               Psi4 1.9.1 release

  ==> Input File <==

--------------------------------------------------------------------------
molecule {
1 2
Ne   0.00000        0.60000        0.00000
S   0.00000       -0.60000        0.00000
}

set {
basis              cc-pvdz
reference          uks
maxiter            500
geom_maxiter       500
DAMPING_PERCENTAGE 1
guess              SAP
}

optimize('b3lyp')
--------------------------------------------------------------------------

    Molecular point group: c2v
  Charge       = 1
  Multiplicity = 2
  Basis Set: CC-PVDZ
    Blend: CC-PVDZ
  Basis Set: (CC-PVDZ AUX)
    Blend: CC-PVDZ-JKFIT
  @DF-UKS Final Energy:  -526.14221377934041
    Total Energy =                       -526.1422137793404090
 Dipole X            :          0.0000000            0.0000000            0.0000000
 Dipole Y            :          0.0000000            0.0000000            0.0000000
 Dipole Z            :          0.6799844           -0.0069094            0.6730750
 Magnitude           :                                                    0.6730750
    Molecular point group: c2v
  Basis Set: CC-PVDZ
    Blend: CC-PVDZ
  Basis Set: (CC-PVDZ AUX)
    Blend: CC-PVDZ-JKFIT
  Basis Set: CC-PVDZ
    Blend: CC-PVDZ
  Basis Set: (CC-PVDZ AUX)
    Blend: CC-PVDZ-JKFIT
  @DF-UKS Final Energy:  -526.36870302255318
    Total Energy =                       -526.3687030225531771
  Basis Set: CC-PVDZ
    Blend: CC-PVDZ
  Basis Set: (CC-PVDZ AUX)
    Blend: CC-PVDZ-JKFIT
  Basis Set: CC-PVDZ
    Blend: CC-PVDZ
  @DF-UKS Final Energy:  -526.48632539015853
    Total Energy =                       -526.4863253901585267
  @DF-UKS Final Energy:  -526.54610474668550
    Total Energy =                       -526.5461047466855007
  @DF-UKS Final Energy:  -526.57400436569890
    Total Energy =                       -526.5740043656988973
  @DF-UKS Final Energy:  -526.58578471103897
    Total Energy =                       -526.5857847110389685
  @DF-UKS Final Energy:  -526.58925004008643
    Total Energy =                       -526.5892500400864265
  @DF-UKS Final Energy:  -526.59087499772397
    Total Energy =                       -526.5908749977239722
  @DF-UKS Final Energy:  -526.59131492800975
    Total Energy =                       -526.5913149280097514
  @DF-UKS Final Energy:  -526.59148515764230
    Total Energy =                       -526.5914851576422961
  @DF-UKS Final Energy:  -526.59151620789657
    Total Energy =                       -526.5915162078965750
  Basis Set: (CC-PVDZ AUX)
    Blend: CC-PVDZ-JKFIT
  Basis Set: CC-PVDZ
    Blend: CC-PVDZ
  Basis Set: (CC-PVDZ AUX)
    Blend: CC-PVDZ-JKFIT
  @DF-UKS Final Energy:  -526.59152314405299
    Total Energy =                       -526.5915231440529851
  Basis Set: CC-PVDZ
    Blend: CC-PVDZ
  Basis Set: (CC-PVDZ AUX)
    Blend: CC-PVDZ-JKFIT
  Charge       = 1
  Multiplicity = 2
  Basis Set: CC-PVDZ
    Blend: CC-PVDZ
  Basis Set: (CC-PVDZ AUX)
    Blend: CC-PVDZ-JKFIT

    Orbital Energies [Eh]
    ---------------------

    Alpha Occupied:

       1A1   -89.352344     2A1   -31.345823     3A1    -8.400798
       4A1    -6.373599     1B1    -6.368583     1B2    -6.346053
       5A1    -1.798003     6A1    -1.076421     7A1    -0.905614
       2B1    -0.896620     2B2    -0.894475     3B1    -0.666627
       3B2    -0.614300

    Alpha Virtual:

       8A1    -0.543565     9A1     0.142309    10A1     0.153481
       4B1     0.161185     5B1     0.176176     4B2     0.190491
      11A1     0.214958     1A2     0.215546     5B2     0.215745
      12A1     0.277725     6B1     1.076171     6B2     1.079673
      13A1     1.185352    14A1     1.826384     7B1     4.359051
       7B2     4.360386    15A1     4.369766     2A2     4.370335
      16A1     4.371355

    Beta Occupied:

       1A1   -89.346127     2A1   -31.345744     3A1    -8.394476
       4A1    -6.370041     1B1    -6.347591     1B2    -6.342336
       5A1    -1.797969     6A1    -1.033503     7A1    -0.898026
       2B2    -0.894435     2B1    -0.894356     3B2    -0.599434

    Beta Virtual:

       8A1    -0.527231     3B1    -0.510375     9A1     0.158503
      10A1     0.168593     4B2     0.196289     4B1     0.201765
       5B2     0.223078     5B1     0.237284     1A2     0.269398
      11A1     0.274335    12A1     0.291123     6B1     1.078160
       6B2     1.079748    13A1     1.185487    14A1     1.828651
       7B1     4.359135     7B2     4.359766    15A1     4.370395
      16A1     4.370927     2A2     4.371018

    Final Occupation by Irrep:
             A1    A2    B1    B2
    DOCC [     7,    0,    2,    3 ]
    SOCC [     0,    0,    1,    0 ]
    NA   [     7,    0,    3,    3 ]
    NB   [     7,    0,    2,    3 ]

  @DF-UKS Final Energy:  -526.59152404413840

   => Energetics <=

    Nuclear Repulsion Energy =             40.8549711658264840
    One-Electron Energy =                -803.8762751038048009
    Two-Electron Energy =                 266.8873256717673144
    DFT Exchange-Correlation Energy =     -30.4575457779273577
    Empirical Dispersion Energy =           0.0000000000000000
    VV10 Nonlocal Energy =                  0.0000000000000000
    Total Energy =                       -526.5915240441383958

  UHF NO Occupations:
  HONO-2 :    6 A1 1.9999268
  HONO-1 :    7 A1 1.9988262
  HONO-0 :    3 B1 1.0000000
  LUNO+0 :    8 A1 0.0011738
  LUNO+1 :    9 A1 0.0000732
  LUNO+2 :    4 B2 0.0000279
  LUNO+3 :    4 B1 0.0000030

Computation Completed

Properties will be evaluated at   0.000000,   0.000000,   0.000000 [a0]

Properties computed using the SCF density matrix

 Multipole Moments:

 ------------------------------------------------------------------------------------
     Multipole            Electronic (a.u.)      Nuclear  (a.u.)        Total (a.u.)
 ------------------------------------------------------------------------------------

 L = 1.  Multiply by 2.5417464519 to convert [e a0] to [Debye]
 Dipole X            :          0.0000000            0.0000000            0.0000000
 Dipole Y            :          0.0000000            0.0000000            0.0000000
 Dipole Z            :         -0.8436629           -0.0119326           -0.8555955
 Magnitude           :                                                    0.8555955

 ------------------------------------------------------------------------------------

*** tstop() called on Joses-MacBook-Pro-2.local at Thu Jul 17 14:42:05 2025
Module time:
	user time   =       2.85 seconds =       0.05 minutes
	system time =       4.31 seconds =       0.07 minutes
	total time  =          1 seconds =       0.02 minutes
Total time:
	user time   =      59.99 seconds =       1.00 minutes
	system time =      72.85 seconds =       1.21 minutes
	total time  =         14 seconds =       0.23 minutes

*** tstart() called on Joses-MacBook-Pro-2.local
*** at Thu Jul 17 14:42:05 2025

         ------------------------------------------------------------
                                   SCF GRAD
                          Rob Parrish, Justin Turney,
                       Andy Simmonett, and Alex Sokolov
         ------------------------------------------------------------

  ==> Geometry <==

    Molecular point group: c2v
    Full point group: C_inf_v

    Geometry (in Angstrom), charge = 1, multiplicity = 2:

       Center              X                  Y                   Z               Mass
    ------------   -----------------  -----------------  -----------------  -----------------
         NE           0.000000000000     0.000000000000     1.275087917463    19.992440176200
         S            0.000000000000     0.000000000000    -0.797324601532    31.972071174400

  Nuclear repulsion =   40.854971165826484

  ==> Basis Set <==

  Basis Set: CC-PVDZ
    Blend: CC-PVDZ
    Number of shells: 14
    Number of basis functions: 32
    Number of Cartesian functions: 34
    Spherical Harmonics?: true
    Max angular momentum: 2

  ==> DFJKGrad: Density-Fitted SCF Gradients <==

    Gradient:                    1
    J tasked:                  Yes
    K tasked:                  Yes
    wK tasked:                  No
    OpenMP threads:              1
    Integrals threads:           1
    Memory [MiB]:              375
    Schwarz Cutoff:          1E-12
    Fitting Condition:       1E-10

   => Auxiliary Basis Set <=

  Basis Set: (CC-PVDZ AUX)
    Blend: CC-PVDZ-JKFIT
    Number of shells: 60
    Number of basis functions: 182
    Number of Cartesian functions: 211
    Spherical Harmonics?: true
    Max angular momentum: 3

  ==> DFT Potential <==

   => LibXC <=

    Version 6.2.2
    S. Lehtola, C. Steigemann, M. J.T. Oliveira, and M. A.L. Marques.,  SoftwareX 7, 1â€“5 (2018) (10.1016/j.softx.2017.11.002)

   => Composite Functional: B3LYP <=

    B3LYP Hyb-GGA Exchange-Correlation Functional

    P. J. Stephens, F. J. Devlin, C. F. Chabalowski, and M. J. Frisch.,  J. Phys. Chem. 98, 11623 (1994) (10.1021/j100096a001)

    Deriv               =              1
    GGA                 =           TRUE
    Meta                =          FALSE

    Exchange Hybrid     =           TRUE
    MP2 Hybrid          =          FALSE

   => Exchange Functionals <=

    0.0800   Slater exchange
    0.7200         Becke 88

   => Exact (HF) Exchange <=

    0.2000               HF

   => Correlation Functionals <=

    0.1900   Vosko, Wilk & Nusair (VWN5_RPA)
    0.8100   Lee, Yang & Parr

   => LibXC Density Thresholds  <==

    XC_HYB_GGA_XC_B3LYP:  1.00E-15

   => Molecular Quadrature <=

    Radial Scheme          =       TREUTLER
    Pruning Scheme         =           NONE
    Nuclear Scheme         =       TREUTLER

    Blocking Scheme        =         OCTREE
    BS radius alpha        =              1
    Pruning alpha          =              1
    Radial Points          =             75
    Spherical Points       =            302
    Total Points           =          42234
    Total Blocks           =            377
    Max Points             =            256
    Max Functions          =             32
    Weights Tolerance      =       1.00E-15

  -Total Gradient:
     Atom            X                  Y                   Z
    ------   -----------------  -----------------  -----------------
       1        0.000000000000     0.000000000000    -0.000011813648
       2        0.000000000000     0.000000000000     0.000099486766

*** tstop() called on Joses-MacBook-Pro-2.local at Thu Jul 17 14:42:05 2025
Module time:
	user time   =       0.92 seconds =       0.02 minutes
	system time =       1.25 seconds =       0.02 minutes
	total time  =          0 seconds =       0.00 minutes
Total time:
	user time   =      60.91 seconds =       1.02 minutes
	system time =      74.10 seconds =       1.23 minutes
	total time  =         14 seconds =       0.23 minutes

    			-----------------------------------------

    			 OPTKING 3.0: for geometry optimizations

    			     By R.A. King, Bethel University

    			        with contributions from

    			    A.V. Copan, J. Cayton, A. Heide

    			-----------------------------------------

	                            ===> Fragment 1 <==

	 Z (Atomic Numbers)          Masses                          Geom
	      10.000000            19.992440          0.00000000  0.00000000  2.40956695
	      16.000000            31.972071          0.00000000  0.00000000 -1.50672513

	 - Coordinate -           - BOHR/RAD -       - ANG/DEG -
	 R(1,2)           =         3.916292           2.072413

	        --- Internal Coordinate Step in ANG or DEG, aJ/ANG or AJ/DEG ---
	-------------------------------------------------------------------------------
	           Coordinate      Previous         Force          Change          New
	           ----------      --------        ------          ------        ------
	               R(1,2)       2.07241        0.00046        0.00054       2.07295
	-------------------------------------------------------------------------------

	                                 ==> Convergence Check <==

	Measures of convergence in internal coordinates in au.

	Criteria marked as inactive (o), active & met (*), and active & unmet ( ).

	----------------------------------------------------------------------------------------------
	   Step    Total Energy     Delta E     Max Force     RMS Force      Max Disp      RMS Disp
	----------------------------------------------------------------------------------------------
	  Convergence Criteria     1.00e-06 *    3.00e-04 *             o    1.20e-03 *             o
	----------------------------------------------------------------------------------------------
	    13    -526.59152404   -9.00e-07 *    5.57e-05 *    5.57e-05 o    1.01e-03 *    1.01e-03 o  ~
	----------------------------------------------------------------------------------------------

Next Geometry in Ang
	Fragment 1 (Ang)

	   Ne   0.0000000000   0.0000000000   1.2753564570
	    S   0.0000000000   0.0000000000  -0.7975931411

    Final optimized geometry and variables:
    Molecular point group: c2v
    Full point group: C_inf_v

    Geometry (in Angstrom), charge = 1, multiplicity = 2:

    NE           0.000000000000     0.000000000000     1.275087917463
    S            0.000000000000     0.000000000000    -0.797324601532

    Psi4 stopped on: Thursday, 17 July 2025 02:42PM
    Psi4 wall time for execution: 0:00:14.11

*** Psi4 exiting successfully. Buy a developer a beer!
