                               Psi4 1.9.1 release

  ==> Input File <==

--------------------------------------------------------------------------
molecule {
1 2
B   0.00000        0.60000        0.00000
Cl   0.00000       -0.60000        0.00000
}

set {
basis              cc-pvdz
reference          uks
maxiter            500
geom_maxiter       500
DAMPING_PERCENTAGE 1
guess              SAP
}

optimize('b3lyp')
--------------------------------------------------------------------------

    Molecular point group: c2v
  Charge       = 1
  Multiplicity = 2
  Basis Set: CC-PVDZ
    Blend: CC-PVDZ
  Basis Set: (CC-PVDZ AUX)
    Blend: CC-PVDZ-JKFIT
  @DF-UKS Final Energy:  -484.35908629111788
    Total Energy =                       -484.3590862911178760
 Dipole X            :          0.0000000            0.0000000            0.0000000
 Dipole Y            :          0.0000000            0.0000000            0.0000000
 Dipole Z            :          0.8030456           -0.6073306            0.1957150
 Magnitude           :                                                    0.1957150
    Molecular point group: c2v
  Basis Set: CC-PVDZ
    Blend: CC-PVDZ
  Basis Set: (CC-PVDZ AUX)
    Blend: CC-PVDZ-JKFIT
  Basis Set: CC-PVDZ
    Blend: CC-PVDZ
  Basis Set: (CC-PVDZ AUX)
    Blend: CC-PVDZ-JKFIT
  @DF-UKS Final Energy:  -484.53495387581387
    Total Energy =                       -484.5349538758138124
  Basis Set: CC-PVDZ
    Blend: CC-PVDZ
  Basis Set: (CC-PVDZ AUX)
    Blend: CC-PVDZ-JKFIT
  Basis Set: CC-PVDZ
    Blend: CC-PVDZ
  @DF-UKS Final Energy:  -484.60911450373044
    Total Energy =                       -484.6091145037303818
  @DF-UKS Final Energy:  -484.62995089768748
    Total Energy =                       -484.6299508976875359
  @DF-UKS Final Energy:  -484.63901206654606
    Total Energy =                       -484.6390120665460017
  @DF-UKS Final Energy:  -484.64117913669071
    Total Energy =                       -484.6411791366907096
  @DF-UKS Final Energy:  -484.64176537217878
    Total Energy =                       -484.6417653721787246
  @DF-UKS Final Energy:  -484.64197236090166
    Total Energy =                       -484.6419723609016046
  Basis Set: (CC-PVDZ AUX)
    Blend: CC-PVDZ-JKFIT
  Basis Set: CC-PVDZ
    Blend: CC-PVDZ
  Basis Set: (CC-PVDZ AUX)
    Blend: CC-PVDZ-JKFIT
  @DF-UKS Final Energy:  -484.64200550165032
    Total Energy =                       -484.6420055016503170
  Basis Set: CC-PVDZ
    Blend: CC-PVDZ
  Basis Set: (CC-PVDZ AUX)
    Blend: CC-PVDZ-JKFIT
  Charge       = 1
  Multiplicity = 2
  Basis Set: CC-PVDZ
    Blend: CC-PVDZ
  Basis Set: (CC-PVDZ AUX)
    Blend: CC-PVDZ-JKFIT

    Orbital Energies [Eh]
    ---------------------

    Alpha Occupied:

       1A1  -101.904346     2A1    -9.822368     3A1    -7.582960
       1B2    -7.576047     1B1    -7.576047     4A1    -7.248651
       5A1    -1.201820     6A1    -0.816396     2B2    -0.682364
       2B1    -0.682364     7A1    -0.634940

    Alpha Virtual:

       3B2    -0.380606     3B1    -0.380606     8A1    -0.140513
       9A1    -0.046028     4B1     0.020398     4B2     0.020398
      10A1     0.057827    11A1     0.213398     5B1     0.226926
       5B2     0.226926     1A2     0.288005    12A1     0.288005
       6B1     0.327249     6B2     0.327249     2A2     0.500488
      13A1     0.500489    14A1     0.571647    15A1     0.789206
       7B2     0.811593     7B1     0.811593    16A1     1.071164

    Beta Occupied:

       1A1  -101.903974     2A1    -9.821981     3A1    -7.580529
       1B2    -7.576476     1B1    -7.576476     4A1    -7.231462
       5A1    -1.197412     6A1    -0.803305     2B2    -0.680787
       2B1    -0.680787

    Beta Virtual:

       7A1    -0.452139     3B2    -0.342789     3B1    -0.342789
       8A1    -0.115288     9A1    -0.040472     4B1     0.029834
       4B2     0.029834    10A1     0.113802    11A1     0.235270
       5B1     0.255342     5B2     0.255342     1A2     0.301972
      12A1     0.301973     6B1     0.336147     6B2     0.336147
       2A2     0.515983    13A1     0.515983    14A1     0.582826
      15A1     0.827834     7B2     0.843391     7B1     0.843391
      16A1     1.087222

    Final Occupation by Irrep:
             A1    A2    B1    B2
    DOCC [     6,    0,    2,    2 ]
    SOCC [     1,    0,    0,    0 ]
    NA   [     7,    0,    2,    2 ]
    NB   [     6,    0,    2,    2 ]

  @DF-UKS Final Energy:  -484.64200804858996

   => Energetics <=

    Nuclear Repulsion Energy =             27.8274208588363301
    One-Electron Energy =                -715.8329058152334028
    Two-Electron Energy =                 229.1016524388709286
    DFT Exchange-Correlation Energy =     -25.7381755310638383
    Empirical Dispersion Energy =           0.0000000000000000
    VV10 Nonlocal Energy =                  0.0000000000000000
    Total Energy =                       -484.6420080485899575

  UHF NO Occupations:
  HONO-2 :    2 B2 1.9987728
  HONO-1 :    2 B1 1.9987728
  HONO-0 :    7 A1 1.0000000
  LUNO+0 :    3 B1 0.0012272
  LUNO+1 :    3 B2 0.0012272
  LUNO+2 :    8 A1 0.0001414
  LUNO+3 :    9 A1 0.0000141

Computation Completed

Properties will be evaluated at   0.000000,   0.000000,   0.000000 [a0]

Properties computed using the SCF density matrix

 Multipole Moments:

 ------------------------------------------------------------------------------------
     Multipole            Electronic (a.u.)      Nuclear  (a.u.)        Total (a.u.)
 ------------------------------------------------------------------------------------

 L = 1.  Multiply by 2.5417464519 to convert [e a0] to [Debye]
 Dipole X            :          0.0000000            0.0000000            0.0000000
 Dipole Y            :          0.0000000            0.0000000            0.0000000
 Dipole Z            :          1.9465749           -0.8180710            1.1285039
 Magnitude           :                                                    1.1285039

 ------------------------------------------------------------------------------------

*** tstop() called on Joses-MacBook-Pro-2.local at Thu Jul 17 13:38:00 2025
Module time:
	user time   =       2.61 seconds =       0.04 minutes
	system time =       3.90 seconds =       0.07 minutes
	total time  =          1 seconds =       0.02 minutes
Total time:
	user time   =      37.50 seconds =       0.62 minutes
	system time =      64.50 seconds =       1.07 minutes
	total time  =         10 seconds =       0.17 minutes

*** tstart() called on Joses-MacBook-Pro-2.local
*** at Thu Jul 17 13:38:00 2025

         ------------------------------------------------------------
                                   SCF GRAD
                          Rob Parrish, Justin Turney,
                       Andy Simmonett, and Alex Sokolov
         ------------------------------------------------------------

  ==> Geometry <==

    Molecular point group: c2v
    Full point group: C_inf_v

    Geometry (in Angstrom), charge = 1, multiplicity = 2:

       Center              X                  Y                   Z               Mass
    ------------   -----------------  -----------------  -----------------  -----------------
         B            0.000000000000     0.000000000000     1.229353881835    11.009305360000
         CL           0.000000000000     0.000000000000    -0.387039643642    34.968852682000

  Nuclear repulsion =   27.827420858836330

  ==> Basis Set <==

  Basis Set: CC-PVDZ
    Blend: CC-PVDZ
    Number of shells: 14
    Number of basis functions: 32
    Number of Cartesian functions: 34
    Spherical Harmonics?: true
    Max angular momentum: 2

  ==> DFJKGrad: Density-Fitted SCF Gradients <==

    Gradient:                    1
    J tasked:                  Yes
    K tasked:                  Yes
    wK tasked:                  No
    OpenMP threads:              1
    Integrals threads:           1
    Memory [MiB]:              375
    Schwarz Cutoff:          1E-12
    Fitting Condition:       1E-10

   => Auxiliary Basis Set <=

  Basis Set: (CC-PVDZ AUX)
    Blend: CC-PVDZ-JKFIT
    Number of shells: 60
    Number of basis functions: 182
    Number of Cartesian functions: 211
    Spherical Harmonics?: true
    Max angular momentum: 3

  ==> DFT Potential <==

   => LibXC <=

    Version 6.2.2
    S. Lehtola, C. Steigemann, M. J.T. Oliveira, and M. A.L. Marques.,  SoftwareX 7, 1â€“5 (2018) (10.1016/j.softx.2017.11.002)

   => Composite Functional: B3LYP <=

    B3LYP Hyb-GGA Exchange-Correlation Functional

    P. J. Stephens, F. J. Devlin, C. F. Chabalowski, and M. J. Frisch.,  J. Phys. Chem. 98, 11623 (1994) (10.1021/j100096a001)

    Deriv               =              1
    GGA                 =           TRUE
    Meta                =          FALSE

    Exchange Hybrid     =           TRUE
    MP2 Hybrid          =          FALSE

   => Exchange Functionals <=

    0.0800   Slater exchange
    0.7200         Becke 88

   => Exact (HF) Exchange <=

    0.2000               HF

   => Correlation Functionals <=

    0.1900   Vosko, Wilk & Nusair (VWN5_RPA)
    0.8100   Lee, Yang & Parr

   => LibXC Density Thresholds  <==

    XC_HYB_GGA_XC_B3LYP:  1.00E-15

   => Molecular Quadrature <=

    Radial Scheme          =       TREUTLER
    Pruning Scheme         =           NONE
    Nuclear Scheme         =       TREUTLER

    Blocking Scheme        =         OCTREE
    BS radius alpha        =              1
    Pruning alpha          =              1
    Radial Points          =             75
    Spherical Points       =            302
    Total Points           =          41977
    Total Blocks           =            382
    Max Points             =            255
    Max Functions          =             32
    Weights Tolerance      =       1.00E-15

  -Total Gradient:
     Atom            X                  Y                   Z
    ------   -----------------  -----------------  -----------------
       1        0.000000000000     0.000000000000    -0.000227746335
       2        0.000000000000     0.000000000000     0.000214809281

*** tstop() called on Joses-MacBook-Pro-2.local at Thu Jul 17 13:38:00 2025
Module time:
	user time   =       1.06 seconds =       0.02 minutes
	system time =       1.46 seconds =       0.02 minutes
	total time  =          0 seconds =       0.00 minutes
Total time:
	user time   =      38.57 seconds =       0.64 minutes
	system time =      65.96 seconds =       1.10 minutes
	total time  =         10 seconds =       0.17 minutes

    			-----------------------------------------

    			 OPTKING 3.0: for geometry optimizations

    			     By R.A. King, Bethel University

    			        with contributions from

    			    A.V. Copan, J. Cayton, A. Heide

    			-----------------------------------------

	                            ===> Fragment 1 <==

	 Z (Atomic Numbers)          Masses                          Geom
	       5.000000            11.009305          0.00000000  0.00000000  2.32314215
	      17.000000            34.968853          0.00000000  0.00000000 -0.73139893

	 - Coordinate -           - BOHR/RAD -       - ANG/DEG -
	 R(1,2)           =         3.054541           1.616394

	        --- Internal Coordinate Step in ANG or DEG, aJ/ANG or AJ/DEG ---
	-------------------------------------------------------------------------------
	           Coordinate      Previous         Force          Change          New
	           ----------      --------        ------          ------        ------
	               R(1,2)       1.61639        0.00182        0.00027       1.61666
	-------------------------------------------------------------------------------

	                                 ==> Convergence Check <==

	Measures of convergence in internal coordinates in au.

	Criteria marked as inactive (o), active & met (*), and active & unmet ( ).

	----------------------------------------------------------------------------------------------
	   Step    Total Energy     Delta E     Max Force     RMS Force      Max Disp      RMS Disp
	----------------------------------------------------------------------------------------------
	  Convergence Criteria     1.00e-06 *    3.00e-04 *             o    1.20e-03 *             o
	----------------------------------------------------------------------------------------------
	    10    -484.64200805   -2.55e-06      2.21e-04 *    2.21e-04 o    5.03e-04 *    5.03e-04 o  ~
	----------------------------------------------------------------------------------------------

Next Geometry in Ang
	Fragment 1 (Ang)

	    B   0.0000000000   0.0000000000   1.2294870818
	   Cl   0.0000000000   0.0000000000  -0.3871728436

    Final optimized geometry and variables:
    Molecular point group: c2v
    Full point group: C_inf_v

    Geometry (in Angstrom), charge = 1, multiplicity = 2:

    B            0.000000000000     0.000000000000     1.229353881835
    CL           0.000000000000     0.000000000000    -0.387039643642

    Psi4 stopped on: Thursday, 17 July 2025 01:38PM
    Psi4 wall time for execution: 0:00:11.20

*** Psi4 exiting successfully. Buy a developer a beer!
