                               Psi4 1.9.1 release

  ==> Input File <==

--------------------------------------------------------------------------
molecule {
1 2
Mg   0.00000        0.60000        0.00000
Ar   0.00000       -0.60000        0.00000
}

set {
basis              cc-pvdz
reference          uks
maxiter            500
geom_maxiter       500
DAMPING_PERCENTAGE 1
guess              SAP
}

optimize('b3lyp')
--------------------------------------------------------------------------

    Molecular point group: c2v
  Charge       = 1
  Multiplicity = 2
  Basis Set: CC-PVDZ
    Blend: CC-PVDZ
  Basis Set: (CC-PVDZ AUX)
    Blend: CC-PVDZ-JKFIT + DEF2-UNIVERSAL-JKFIT
  @DF-UKS Final Energy:  -726.07559277469807
    Total Energy =                       -726.0755927746980660
 Dipole X            :          0.0000000            0.0000000            0.0000000
 Dipole Y            :          0.0000000            0.0000000            0.0000000
 Dipole Z            :         -1.5165225            1.6956924            0.1791699
 Magnitude           :                                                    0.1791699
    Molecular point group: c2v
  Basis Set: CC-PVDZ
    Blend: CC-PVDZ
  Basis Set: (CC-PVDZ AUX)
    Blend: CC-PVDZ-JKFIT + DEF2-UNIVERSAL-JKFIT
  Basis Set: CC-PVDZ
    Blend: CC-PVDZ
  Basis Set: (CC-PVDZ AUX)
    Blend: CC-PVDZ-JKFIT + DEF2-UNIVERSAL-JKFIT
  @DF-UKS Final Energy:  -726.10639021084432
    Total Energy =                       -726.1063902108443244
  Basis Set: CC-PVDZ
    Blend: CC-PVDZ
  Basis Set: (CC-PVDZ AUX)
    Blend: CC-PVDZ-JKFIT + DEF2-UNIVERSAL-JKFIT
  Basis Set: CC-PVDZ
    Blend: CC-PVDZ
  @DF-UKS Final Energy:  -726.16465566656200
    Total Energy =                       -726.1646556665619983
  @DF-UKS Final Energy:  -726.36396494665189
    Total Energy =                       -726.3639649466517767
  @DF-UKS Final Energy:  -726.92368702935084
    Total Energy =                       -726.9236870293508446
  @DF-UKS Final Energy:  -727.11171428862144
    Total Energy =                       -727.1117142886215561
  @DF-UKS Final Energy:  -727.22618500338353
    Total Energy =                       -727.2261850033835344
  @DF-UKS Final Energy:  -727.29036212368726
    Total Energy =                       -727.2903621236872596
  @DF-UKS Final Energy:  -727.32390097915379
    Total Energy =                       -727.3239009791537910
  @DF-UKS Final Energy:  -727.34076895211172
    Total Energy =                       -727.3407689521118300
  @DF-UKS Final Energy:  -727.34893934185175
    Total Energy =                       -727.3489393418517466
  @DF-UKS Final Energy:  -727.35264320862132
    Total Energy =                       -727.3526432086213163
  @DF-UKS Final Energy:  -727.35412812963955
    Total Energy =                       -727.3541281296394345
  @DF-UKS Final Energy:  -727.35460022975985
    Total Energy =                       -727.3546002297598534
  @DF-UKS Final Energy:  -727.35468847769903
    Total Energy =                       -727.3546884776990282
  @DF-UKS Final Energy:  -727.35470648974035
    Total Energy =                       -727.3547064897403516
  Basis Set: (CC-PVDZ AUX)
    Blend: CC-PVDZ-JKFIT + DEF2-UNIVERSAL-JKFIT
  Basis Set: CC-PVDZ
    Blend: CC-PVDZ
  Basis Set: (CC-PVDZ AUX)
    Blend: CC-PVDZ-JKFIT + DEF2-UNIVERSAL-JKFIT
  @DF-UKS Final Energy:  -727.35471093654178
    Total Energy =                       -727.3547109365417782
  Basis Set: CC-PVDZ
    Blend: CC-PVDZ
  Basis Set: (CC-PVDZ AUX)
    Blend: CC-PVDZ-JKFIT + DEF2-UNIVERSAL-JKFIT
  Charge       = 1
  Multiplicity = 2
  Basis Set: CC-PVDZ
    Blend: CC-PVDZ
  Basis Set: (CC-PVDZ AUX)
    Blend: CC-PVDZ-JKFIT + DEF2-UNIVERSAL-JKFIT

    Orbital Energies [Eh]
    ---------------------

    Alpha Occupied:

       1A1  -115.309776     2A1   -47.148712     3A1   -11.346190
       4A1    -8.897434     1B1    -8.895315     1B2    -8.895315
       5A1    -3.420093     2B1    -2.163037     2B2    -2.163037
       6A1    -2.162801     7A1    -1.174364     8A1    -0.645997
       3B1    -0.625237     3B2    -0.625237     9A1    -0.441017

    Alpha Virtual:

       4B2    -0.246423     4B1    -0.246423    10A1    -0.222557
      11A1    -0.082128    12A1    -0.036509     5B2    -0.026857
       5B1    -0.026857     6B2     0.058054     6B1     0.058054
      13A1     0.064473     1A2     0.064474    14A1     0.088763
       7B2     0.428967     7B1     0.428967    15A1     0.452972
       2A2     0.632610    16A1     0.632639     8B2     0.636817
       8B1     0.636817    17A1     0.643850    18A1     0.817356

    Beta Occupied:

       1A1  -115.309366     2A1   -47.145403     3A1   -11.345780
       4A1    -8.896329     1B1    -8.895045     1B2    -8.895045
       5A1    -3.414013     2B1    -2.158980     2B2    -2.158980
       6A1    -2.158727     7A1    -1.172339     8A1    -0.641416
       3B1    -0.624576     3B2    -0.624576

    Beta Virtual:

       9A1    -0.351246     4B2    -0.209695     4B1    -0.209695
      10A1    -0.191428    11A1    -0.073401    12A1    -0.020603
       5B2    -0.012079     5B1    -0.012079     6B2     0.092912
       6B1     0.092912     1A2     0.106908    13A1     0.106910
      14A1     0.120443     7B2     0.430758     7B1     0.430758
      15A1     0.454453     2A2     0.633139    16A1     0.633167
       8B2     0.639466     8B1     0.639466    17A1     0.646293
      18A1     0.823330

    Final Occupation by Irrep:
             A1    A2    B1    B2
    DOCC [     8,    0,    3,    3 ]
    SOCC [     1,    0,    0,    0 ]
    NA   [     9,    0,    3,    3 ]
    NB   [     8,    0,    3,    3 ]

  @DF-UKS Final Energy:  -727.35471120556531

   => Energetics <=

    Nuclear Repulsion Energy =             39.9008662910894003
    One-Electron Energy =               -1080.1293281418350034
    Two-Electron Energy =                 350.8666336023114241
    DFT Exchange-Correlation Energy =     -37.9928829571312150
    Empirical Dispersion Energy =           0.0000000000000000
    VV10 Nonlocal Energy =                  0.0000000000000000
    Total Energy =                       -727.3547112055654225

  UHF NO Occupations:
  HONO-2 :    3 B1 1.9999935
  HONO-1 :    8 A1 1.9999820
  HONO-0 :    9 A1 1.0000000
  LUNO+0 :   10 A1 0.0000180
  LUNO+1 :    4 B1 0.0000065
  LUNO+2 :    4 B2 0.0000065
  LUNO+3 :   11 A1 0.0000015

Computation Completed

Properties will be evaluated at   0.000000,   0.000000,   0.000000 [a0]

Properties computed using the SCF density matrix

 Multipole Moments:

 ------------------------------------------------------------------------------------
     Multipole            Electronic (a.u.)      Nuclear  (a.u.)        Total (a.u.)
 ------------------------------------------------------------------------------------

 L = 1.  Multiply by 2.5417464519 to convert [e a0] to [Debye]
 Dipole X            :          0.0000000            0.0000000            0.0000000
 Dipole Y            :          0.0000000            0.0000000            0.0000000
 Dipole Z            :         -1.3851065            4.0479802            2.6628737
 Magnitude           :                                                    2.6628737

 ------------------------------------------------------------------------------------

*** tstop() called on Joses-MacBook-Pro-2.local at Thu Jul 17 15:12:57 2025
Module time:
	user time   =       7.96 seconds =       0.13 minutes
	system time =       1.63 seconds =       0.03 minutes
	total time  =          1 seconds =       0.02 minutes
Total time:
	user time   =     212.98 seconds =       3.55 minutes
	system time =      63.48 seconds =       1.06 minutes
	total time  =         26 seconds =       0.43 minutes

*** tstart() called on Joses-MacBook-Pro-2.local
*** at Thu Jul 17 15:12:57 2025

         ------------------------------------------------------------
                                   SCF GRAD
                          Rob Parrish, Justin Turney,
                       Andy Simmonett, and Alex Sokolov
         ------------------------------------------------------------

  ==> Geometry <==

    Molecular point group: c2v
    Full point group: C_inf_v

    Geometry (in Angstrom), charge = 1, multiplicity = 2:

       Center              X                  Y                   Z               Mass
    ------------   -----------------  -----------------  -----------------  -----------------
         MG           0.000000000000     0.000000000000     1.790197219395    23.985041697000
         AR           0.000000000000     0.000000000000    -1.074459318908    39.962383123700

  Nuclear repulsion =   39.900866291089400

  ==> Basis Set <==

  Basis Set: CC-PVDZ
    Blend: CC-PVDZ
    Number of shells: 16
    Number of basis functions: 36
    Number of Cartesian functions: 38
    Spherical Harmonics?: true
    Max angular momentum: 2

  ==> DFJKGrad: Density-Fitted SCF Gradients <==

    Gradient:                    1
    J tasked:                  Yes
    K tasked:                  Yes
    wK tasked:                  No
    OpenMP threads:              1
    Integrals threads:           1
    Memory [MiB]:              375
    Schwarz Cutoff:          1E-12
    Fitting Condition:       1E-10

   => Auxiliary Basis Set <=

  Basis Set: (CC-PVDZ AUX)
    Blend: CC-PVDZ-JKFIT + DEF2-UNIVERSAL-JKFIT
    Number of shells: 70
    Number of basis functions: 224
    Number of Cartesian functions: 267
    Spherical Harmonics?: true
    Max angular momentum: 4

  ==> DFT Potential <==

   => LibXC <=

    Version 6.2.2
    S. Lehtola, C. Steigemann, M. J.T. Oliveira, and M. A.L. Marques.,  SoftwareX 7, 1â€“5 (2018) (10.1016/j.softx.2017.11.002)

   => Composite Functional: B3LYP <=

    B3LYP Hyb-GGA Exchange-Correlation Functional

    P. J. Stephens, F. J. Devlin, C. F. Chabalowski, and M. J. Frisch.,  J. Phys. Chem. 98, 11623 (1994) (10.1021/j100096a001)

    Deriv               =              1
    GGA                 =           TRUE
    Meta                =          FALSE

    Exchange Hybrid     =           TRUE
    MP2 Hybrid          =          FALSE

   => Exchange Functionals <=

    0.0800   Slater exchange
    0.7200         Becke 88

   => Exact (HF) Exchange <=

    0.2000               HF

   => Correlation Functionals <=

    0.1900   Vosko, Wilk & Nusair (VWN5_RPA)
    0.8100   Lee, Yang & Parr

   => LibXC Density Thresholds  <==

    XC_HYB_GGA_XC_B3LYP:  1.00E-15

   => Molecular Quadrature <=

    Radial Scheme          =       TREUTLER
    Pruning Scheme         =           NONE
    Nuclear Scheme         =       TREUTLER

    Blocking Scheme        =         OCTREE
    BS radius alpha        =              1
    Pruning alpha          =              1
    Radial Points          =             75
    Spherical Points       =            302
    Total Points           =          43037
    Total Blocks           =            419
    Max Points             =            256
    Max Functions          =             36
    Weights Tolerance      =       1.00E-15

  -Total Gradient:
     Atom            X                  Y                   Z
    ------   -----------------  -----------------  -----------------
       1        0.000000000000    -0.000000000000    -0.000004831427
       2        0.000000000000    -0.000000000000     0.000064510897

*** tstop() called on Joses-MacBook-Pro-2.local at Thu Jul 17 15:12:57 2025
Module time:
	user time   =       2.30 seconds =       0.04 minutes
	system time =       2.04 seconds =       0.03 minutes
	total time  =          0 seconds =       0.00 minutes
Total time:
	user time   =     215.29 seconds =       3.59 minutes
	system time =      65.52 seconds =       1.09 minutes
	total time  =         26 seconds =       0.43 minutes

    			-----------------------------------------

    			 OPTKING 3.0: for geometry optimizations

    			     By R.A. King, Bethel University

    			        with contributions from

    			    A.V. Copan, J. Cayton, A. Heide

    			-----------------------------------------

	                            ===> Fragment 1 <==

	 Z (Atomic Numbers)          Masses                          Geom
	      12.000000            23.985042          0.00000000  0.00000000  3.38298246
	      18.000000            39.962383          0.00000000  0.00000000 -2.03043385

	 - Coordinate -           - BOHR/RAD -       - ANG/DEG -
	 R(1,2)           =         5.413416           2.864657

	        --- Internal Coordinate Step in ANG or DEG, aJ/ANG or AJ/DEG ---
	-------------------------------------------------------------------------------
	           Coordinate      Previous         Force          Change          New
	           ----------      --------        ------          ------        ------
	               R(1,2)       2.86466        0.00029        0.00188       2.86653
	-------------------------------------------------------------------------------

	                                 ==> Convergence Check <==

	Measures of convergence in internal coordinates in au.

	Criteria marked as inactive (o), active & met (*), and active & unmet ( ).

	----------------------------------------------------------------------------------------------
	   Step    Total Energy     Delta E     Max Force     RMS Force      Max Disp      RMS Disp
	----------------------------------------------------------------------------------------------
	  Convergence Criteria     1.00e-06 *    3.00e-04 *             o    1.20e-03 *             o
	----------------------------------------------------------------------------------------------
	    18    -727.35471121   -2.69e-07 *    3.47e-05 *    3.47e-05 o    3.55e-03      3.55e-03 o  ~
	----------------------------------------------------------------------------------------------

Next Geometry in Ang
	Fragment 1 (Ang)

	   Mg   0.0000000000   0.0000000000   1.7911362314
	   Ar   0.0000000000   0.0000000000  -1.0753983309

    Final optimized geometry and variables:
    Molecular point group: c2v
    Full point group: C_inf_v

    Geometry (in Angstrom), charge = 1, multiplicity = 2:

    MG           0.000000000000     0.000000000000     1.790197219395
    AR           0.000000000000     0.000000000000    -1.074459318908

    Psi4 stopped on: Thursday, 17 July 2025 03:12PM
    Psi4 wall time for execution: 0:00:27.31

*** Psi4 exiting successfully. Buy a developer a beer!
