                               Psi4 1.9.1 release

  ==> Input File <==

--------------------------------------------------------------------------
molecule {
1 2
F   0.00000        0.60000        0.00000
P   0.00000       -0.60000        0.00000
}

set {
basis              cc-pvdz
reference          uks
maxiter            500
geom_maxiter       500
DAMPING_PERCENTAGE 1
guess              SAP
}

optimize('b3lyp')
--------------------------------------------------------------------------

    Molecular point group: c2v
  Charge       = 1
  Multiplicity = 2
  Basis Set: CC-PVDZ
    Blend: CC-PVDZ
  Basis Set: (CC-PVDZ AUX)
    Blend: CC-PVDZ-JKFIT
  @DF-UKS Final Energy:  -440.59058058504621
    Total Energy =                       -440.5905805850462116
 Dipole X            :          0.0000000            0.0000000            0.0000000
 Dipole Y            :          0.0000000            0.0000000            0.0000000
 Dipole Z            :         -0.1071360           -0.2819010           -0.3890371
 Magnitude           :                                                    0.3890371
    Molecular point group: c2v
  Basis Set: CC-PVDZ
    Blend: CC-PVDZ
  Basis Set: (CC-PVDZ AUX)
    Blend: CC-PVDZ-JKFIT
  Basis Set: CC-PVDZ
    Blend: CC-PVDZ
  Basis Set: (CC-PVDZ AUX)
    Blend: CC-PVDZ-JKFIT
  @DF-UKS Final Energy:  -440.72541717426282
    Total Energy =                       -440.7254171742628159
  Basis Set: CC-PVDZ
    Blend: CC-PVDZ
  Basis Set: (CC-PVDZ AUX)
    Blend: CC-PVDZ-JKFIT
  Basis Set: CC-PVDZ
    Blend: CC-PVDZ
  @DF-UKS Final Energy:  -440.78501025591891
    Total Energy =                       -440.7850102559189054
  @DF-UKS Final Energy:  -440.80119450924855
    Total Energy =                       -440.8011945092486030
  @DF-UKS Final Energy:  -440.80786175164371
    Total Energy =                       -440.8078617516437134
  @DF-UKS Final Energy:  -440.80933149869469
    Total Energy =                       -440.8093314986946893
  @DF-UKS Final Energy:  -440.80969265801690
    Total Energy =                       -440.8096926580169566
  @DF-UKS Final Energy:  -440.80980517500217
    Total Energy =                       -440.8098051750021682
  Basis Set: (CC-PVDZ AUX)
    Blend: CC-PVDZ-JKFIT
  Basis Set: CC-PVDZ
    Blend: CC-PVDZ
  Basis Set: (CC-PVDZ AUX)
    Blend: CC-PVDZ-JKFIT
  @DF-UKS Final Energy:  -440.80981951733384
    Total Energy =                       -440.8098195173338922
  Basis Set: CC-PVDZ
    Blend: CC-PVDZ
  Basis Set: (CC-PVDZ AUX)
    Blend: CC-PVDZ-JKFIT
  Charge       = 1
  Multiplicity = 2
  Basis Set: CC-PVDZ
    Blend: CC-PVDZ
  Basis Set: (CC-PVDZ AUX)
    Blend: CC-PVDZ-JKFIT

    Orbital Energies [Eh]
    ---------------------

    Alpha Occupied:

       1A1   -77.557956     2A1   -25.065252     3A1    -7.013125
       1B2    -5.178165     1B1    -5.173487     4A1    -5.173379
       5A1    -1.562827     6A1    -0.955352     2B1    -0.796360
       2B2    -0.787358     7A1    -0.768877     3B1    -0.551280

    Alpha Virtual:

       3B2    -0.471931     8A1    -0.306406     9A1     0.049809
       1A2     0.099265     4B1     0.100583    10A1     0.104434
       4B2     0.104740    11A1     0.141623     5B1     0.161616
       5B2     0.169248    12A1     0.381572     6B2     0.924013
       6B1     0.924368    13A1     0.937144    14A1     1.820593
       2A2     3.205234    15A1     3.205397     7B2     3.262388
       7B1     3.264601    16A1     3.548947

    Beta Occupied:

       1A1   -77.553160     2A1   -25.061769     3A1    -7.008046
       1B2    -5.175327     4A1    -5.170691     1B1    -5.156726
       5A1    -1.555509     6A1    -0.931425     2B2    -0.785053
       2B1    -0.769945     7A1    -0.745950

    Beta Virtual:

       3B2    -0.459048     3B1    -0.418186     8A1    -0.292293
       9A1     0.062982     4B2     0.109905     4B1     0.135609
      10A1     0.144284     1A2     0.151664    11A1     0.152305
       5B2     0.173911     5B1     0.206370    12A1     0.399138
       6B2     0.924881     6B1     0.936159    13A1     0.939711
      14A1     1.824201    15A1     3.214162     2A2     3.214221
       7B2     3.263120     7B1     3.274933    16A1     3.554331

    Final Occupation by Irrep:
             A1    A2    B1    B2
    DOCC [     7,    0,    2,    2 ]
    SOCC [     0,    0,    1,    0 ]
    NA   [     7,    0,    3,    2 ]
    NB   [     7,    0,    2,    2 ]

  @DF-UKS Final Energy:  -440.80982024161159

   => Energetics <=

    Nuclear Repulsion Energy =             45.6315554038229507
    One-Electron Energy =                -693.1973367088389750
    Two-Electron Energy =                 233.6459672564660934
    DFT Exchange-Correlation Energy =     -26.8900061930617014
    Empirical Dispersion Energy =           0.0000000000000000
    VV10 Nonlocal Energy =                  0.0000000000000000
    Total Energy =                       -440.8098202416116465

  UHF NO Occupations:
  HONO-2 :    2 B1 1.9998966
  HONO-1 :    7 A1 1.9984198
  HONO-0 :    3 B1 1.0000000
  LUNO+0 :    8 A1 0.0015802
  LUNO+1 :    4 B1 0.0001034
  LUNO+2 :    3 B2 0.0000907
  LUNO+3 :    9 A1 0.0000180

Computation Completed

Properties will be evaluated at   0.000000,   0.000000,   0.000000 [a0]

Properties computed using the SCF density matrix

 Multipole Moments:

 ------------------------------------------------------------------------------------
     Multipole            Electronic (a.u.)      Nuclear  (a.u.)        Total (a.u.)
 ------------------------------------------------------------------------------------

 L = 1.  Multiply by 2.5417464519 to convert [e a0] to [Debye]
 Dipole X            :          0.0000000            0.0000000            0.0000000
 Dipole Y            :          0.0000000            0.0000000            0.0000000
 Dipole Z            :         -0.7951575           -0.3677774           -1.1629349
 Magnitude           :                                                    1.1629349

 ------------------------------------------------------------------------------------

*** tstop() called on Joses-MacBook-Pro-2.local at Thu Jul 17 14:29:09 2025
Module time:
	user time   =       3.05 seconds =       0.05 minutes
	system time =       2.58 seconds =       0.04 minutes
	total time  =          0 seconds =       0.00 minutes
Total time:
	user time   =      44.91 seconds =       0.75 minutes
	system time =      50.90 seconds =       0.85 minutes
	total time  =          9 seconds =       0.15 minutes

*** tstart() called on Joses-MacBook-Pro-2.local
*** at Thu Jul 17 14:29:09 2025

         ------------------------------------------------------------
                                   SCF GRAD
                          Rob Parrish, Justin Turney,
                       Andy Simmonett, and Alex Sokolov
         ------------------------------------------------------------

  ==> Geometry <==

    Molecular point group: c2v
    Full point group: C_inf_v

    Geometry (in Angstrom), charge = 1, multiplicity = 2:

       Center              X                  Y                   Z               Mass
    ------------   -----------------  -----------------  -----------------  -----------------
         F            0.000000000000     0.000000000000     0.970365660122    18.998403162730
         P            0.000000000000     0.000000000000    -0.595194023484    30.973761998420

  Nuclear repulsion =   45.631555403822951

  ==> Basis Set <==

  Basis Set: CC-PVDZ
    Blend: CC-PVDZ
    Number of shells: 14
    Number of basis functions: 32
    Number of Cartesian functions: 34
    Spherical Harmonics?: true
    Max angular momentum: 2

  ==> DFJKGrad: Density-Fitted SCF Gradients <==

    Gradient:                    1
    J tasked:                  Yes
    K tasked:                  Yes
    wK tasked:                  No
    OpenMP threads:              1
    Integrals threads:           1
    Memory [MiB]:              375
    Schwarz Cutoff:          1E-12
    Fitting Condition:       1E-10

   => Auxiliary Basis Set <=

  Basis Set: (CC-PVDZ AUX)
    Blend: CC-PVDZ-JKFIT
    Number of shells: 60
    Number of basis functions: 182
    Number of Cartesian functions: 211
    Spherical Harmonics?: true
    Max angular momentum: 3

  ==> DFT Potential <==

   => LibXC <=

    Version 6.2.2
    S. Lehtola, C. Steigemann, M. J.T. Oliveira, and M. A.L. Marques.,  SoftwareX 7, 1â€“5 (2018) (10.1016/j.softx.2017.11.002)

   => Composite Functional: B3LYP <=

    B3LYP Hyb-GGA Exchange-Correlation Functional

    P. J. Stephens, F. J. Devlin, C. F. Chabalowski, and M. J. Frisch.,  J. Phys. Chem. 98, 11623 (1994) (10.1021/j100096a001)

    Deriv               =              1
    GGA                 =           TRUE
    Meta                =          FALSE

    Exchange Hybrid     =           TRUE
    MP2 Hybrid          =          FALSE

   => Exchange Functionals <=

    0.0800   Slater exchange
    0.7200         Becke 88

   => Exact (HF) Exchange <=

    0.2000               HF

   => Correlation Functionals <=

    0.1900   Vosko, Wilk & Nusair (VWN5_RPA)
    0.8100   Lee, Yang & Parr

   => LibXC Density Thresholds  <==

    XC_HYB_GGA_XC_B3LYP:  1.00E-15

   => Molecular Quadrature <=

    Radial Scheme          =       TREUTLER
    Pruning Scheme         =           NONE
    Nuclear Scheme         =       TREUTLER

    Blocking Scheme        =         OCTREE
    BS radius alpha        =              1
    Pruning alpha          =              1
    Radial Points          =             75
    Spherical Points       =            302
    Total Points           =          42470
    Total Blocks           =            381
    Max Points             =            254
    Max Functions          =             32
    Weights Tolerance      =       1.00E-15

  -Total Gradient:
     Atom            X                  Y                   Z
    ------   -----------------  -----------------  -----------------
       1       -0.000000000000     0.000000000000    -0.000138216584
       2        0.000000000000     0.000000000000     0.000075863607

*** tstop() called on Joses-MacBook-Pro-2.local at Thu Jul 17 14:29:10 2025
Module time:
	user time   =       1.05 seconds =       0.02 minutes
	system time =       1.37 seconds =       0.02 minutes
	total time  =          1 seconds =       0.02 minutes
Total time:
	user time   =      45.96 seconds =       0.77 minutes
	system time =      52.27 seconds =       0.87 minutes
	total time  =         10 seconds =       0.17 minutes

    			-----------------------------------------

    			 OPTKING 3.0: for geometry optimizations

    			     By R.A. King, Bethel University

    			        with contributions from

    			    A.V. Copan, J. Cayton, A. Heide

    			-----------------------------------------

	                            ===> Fragment 1 <==

	 Z (Atomic Numbers)          Masses                          Geom
	       9.000000            18.998403          0.00000000  0.00000000  1.83372534
	      15.000000            30.973762          0.00000000  0.00000000 -1.12475370

	 - Coordinate -           - BOHR/RAD -       - ANG/DEG -
	 R(1,2)           =         2.958479           1.565560

	        --- Internal Coordinate Step in ANG or DEG, aJ/ANG or AJ/DEG ---
	-------------------------------------------------------------------------------
	           Coordinate      Previous         Force          Change          New
	           ----------      --------        ------          ------        ------
	               R(1,2)       1.56556        0.00088        0.00012       1.56568
	-------------------------------------------------------------------------------

	                                 ==> Convergence Check <==

	Measures of convergence in internal coordinates in au.

	Criteria marked as inactive (o), active & met (*), and active & unmet ( ).

	----------------------------------------------------------------------------------------------
	   Step    Total Energy     Delta E     Max Force     RMS Force      Max Disp      RMS Disp
	----------------------------------------------------------------------------------------------
	  Convergence Criteria     1.00e-06 *    3.00e-04 *             o    1.20e-03 *             o
	----------------------------------------------------------------------------------------------
	    10    -440.80982024   -7.24e-07 *    1.07e-04 *    1.07e-04 o    2.30e-04 *    2.30e-04 o  ~
	----------------------------------------------------------------------------------------------

Next Geometry in Ang
	Fragment 1 (Ang)

	    F   0.0000000000   0.0000000000   0.9704265231
	    P   0.0000000000   0.0000000000  -0.5952548865

    Final optimized geometry and variables:
    Molecular point group: c2v
    Full point group: C_inf_v

    Geometry (in Angstrom), charge = 1, multiplicity = 2:

    F            0.000000000000     0.000000000000     0.970365660122
    P            0.000000000000     0.000000000000    -0.595194023484

    Psi4 stopped on: Thursday, 17 July 2025 02:29PM
    Psi4 wall time for execution: 0:00:09.94

*** Psi4 exiting successfully. Buy a developer a beer!
