                               Psi4 1.9.1 release

  ==> Input File <==

--------------------------------------------------------------------------
molecule {
1 2
C   0.00000        0.60000        0.00000
Mg   0.00000       -0.60000        0.00000
}

set {
basis              cc-pvdz
reference          uks
maxiter            500
geom_maxiter       500
DAMPING_PERCENTAGE 1
guess              SAP
}

optimize('b3lyp')
--------------------------------------------------------------------------

    Molecular point group: c2v
  Charge       = 1
  Multiplicity = 2
  Basis Set: CC-PVDZ
    Blend: CC-PVDZ
  Basis Set: (CC-PVDZ AUX)
    Blend: CC-PVDZ-JKFIT + DEF2-UNIVERSAL-JKFIT
  @DF-UKS Final Energy:  -237.20166980435422
    Total Energy =                       -237.2016698043542249
 Dipole X            :          0.0000000            0.0000000            0.0000000
 Dipole Y            :          0.0000000            0.0000000            0.0000000
 Dipole Z            :         -1.8630382           -0.0056558           -1.8686940
 Magnitude           :                                                    1.8686940
    Molecular point group: c2v
  Basis Set: CC-PVDZ
    Blend: CC-PVDZ
  Basis Set: (CC-PVDZ AUX)
    Blend: CC-PVDZ-JKFIT + DEF2-UNIVERSAL-JKFIT
  Basis Set: CC-PVDZ
    Blend: CC-PVDZ
  Basis Set: (CC-PVDZ AUX)
    Blend: CC-PVDZ-JKFIT + DEF2-UNIVERSAL-JKFIT
  @DF-UKS Final Energy:  -237.35827497379702
    Total Energy =                       -237.3582749737970232
  Basis Set: CC-PVDZ
    Blend: CC-PVDZ
  Basis Set: (CC-PVDZ AUX)
    Blend: CC-PVDZ-JKFIT + DEF2-UNIVERSAL-JKFIT
  Basis Set: CC-PVDZ
    Blend: CC-PVDZ
  @DF-UKS Final Energy:  -237.48267389202542
    Total Energy =                       -237.4826738920254172
  @DF-UKS Final Energy:  -237.54575181888936
    Total Energy =                       -237.5457518188893573
  @DF-UKS Final Energy:  -237.57391059409298
    Total Energy =                       -237.5739105940929790
  @DF-UKS Final Energy:  -237.66232296791259
    Total Energy =                       -237.6623229679125586
  @DF-UKS Final Energy:  -237.67478311045954
    Total Energy =                       -237.6747831104595434
  @DF-UKS Final Energy:  -237.67687906080488
    Total Energy =                       -237.6768790608048789
  @DF-UKS Final Energy:  -237.67692561785461
    Total Energy =                       -237.6769256178546073
  @DF-UKS Final Energy:  -237.67693816128610
    Total Energy =                       -237.6769381612861594
  Basis Set: (CC-PVDZ AUX)
    Blend: CC-PVDZ-JKFIT + DEF2-UNIVERSAL-JKFIT
  Basis Set: CC-PVDZ
    Blend: CC-PVDZ
  Basis Set: (CC-PVDZ AUX)
    Blend: CC-PVDZ-JKFIT + DEF2-UNIVERSAL-JKFIT
  @DF-UKS Final Energy:  -237.67694260316381
    Total Energy =                       -237.6769426031638091
  Basis Set: CC-PVDZ
    Blend: CC-PVDZ
  Basis Set: (CC-PVDZ AUX)
    Blend: CC-PVDZ-JKFIT + DEF2-UNIVERSAL-JKFIT
  Charge       = 1
  Multiplicity = 2
  Basis Set: CC-PVDZ
    Blend: CC-PVDZ
  Basis Set: (CC-PVDZ AUX)
    Blend: CC-PVDZ-JKFIT + DEF2-UNIVERSAL-JKFIT

    Orbital Energies [Eh]
    ---------------------

    Alpha Occupied:

       1A1   -47.180224     2A1   -10.477693     3A1    -3.450360
       1B2    -2.195209     1B1    -2.195209     4A1    -2.194237
       5A1    -0.782206     2B1    -0.450105     2B2    -0.450105

    Alpha Virtual:

       6A1    -0.394583     7A1    -0.310715     3B1    -0.217715
       3B2    -0.217715     8A1    -0.147738     9A1    -0.073327
       4B1    -0.028689     4B2    -0.028689    10A1     0.021235
      11A1     0.073496     1A2     0.073496     5B1     0.107365
       5B2     0.107365    12A1     0.255438     6B1     0.334852
       6B2     0.334852    13A1     0.418303    14A1     0.643055
      15A1     0.934949     2A2     0.934955     7B1     1.060886
       7B2     1.060886    16A1     1.387182

    Beta Occupied:

       1A1   -47.182193     2A1   -10.459796     3A1    -3.454096
       1B2    -2.197268     1B1    -2.197268     4A1    -2.197024
       5A1    -0.710885     6A1    -0.471609

    Beta Virtual:

       7A1    -0.347596     2B1    -0.300471     2B2    -0.300471
       3B1    -0.207359     3B2    -0.207359     8A1    -0.149528
       9A1    -0.079245     4B1    -0.033309     4B2    -0.033309
      10A1     0.007906     1A2     0.060487    11A1     0.060487
       5B1     0.104121     5B2     0.104121    12A1     0.251051
       6B1     0.396173     6B2     0.396173    13A1     0.402688
      14A1     0.671697     2A2     1.038906    15A1     1.038906
       7B1     1.088463     7B2     1.088463    16A1     1.394879

    Final Occupation by Irrep:
             A1    A2    B1    B2
Warning! Irrep has more beta than alpha electrons in symmetry 0 orbitals.
Warning! Irrep has more beta than alpha electrons in symmetry 0 orbitals.
    DOCC [     5,    0,    1,    1 ]
    SOCC [     1,    0,    1,    1 ]
    NA   [     5,    0,    2,    2 ]
    NB   [     6,    0,    1,    1 ]

  @DF-UKS Final Energy:  -237.67694297192168

   => Energetics <=

    Nuclear Repulsion Energy =             18.2805793230458278
    One-Electron Energy =                -361.2317082925457044
    Two-Electron Energy =                 122.6453994570708517
    DFT Exchange-Correlation Energy =     -17.3712134594926368
    Empirical Dispersion Energy =           0.0000000000000000
    VV10 Nonlocal Energy =                  0.0000000000000000
    Total Energy =                       -237.6769429719216760

  UHF NO Occupations:
  HONO-2 :    5 A1 1.9945288
  HONO-1 :    6 A1 1.0000000
  HONO-0 :    2 B2 1.0000000
  LUNO+0 :    2 B1 1.0000000
  LUNO+1 :    7 A1 0.0054712
  LUNO+2 :    8 A1 0.0000014
  LUNO+3 :    3 B1 0.0000005

Computation Completed

Properties will be evaluated at   0.000000,   0.000000,   0.000000 [a0]

Properties computed using the SCF density matrix

 Multipole Moments:

 ------------------------------------------------------------------------------------
     Multipole            Electronic (a.u.)      Nuclear  (a.u.)        Total (a.u.)
 ------------------------------------------------------------------------------------

 L = 1.  Multiply by 2.5417464519 to convert [e a0] to [Debye]
 Dipole X            :          0.0000000            0.0000000            0.0000000
 Dipole Y            :          0.0000000            0.0000000            0.0000000
 Dipole Z            :         -2.0610654           -0.0098232           -2.0708886
 Magnitude           :                                                    2.0708886

 ------------------------------------------------------------------------------------
Warning! Irrep has more beta than alpha electrons in symmetry 0 orbitals.
Warning! Irrep has more beta than alpha electrons in symmetry 0 orbitals.

*** tstop() called on Joses-MacBook-Pro-2.local at Thu Jul 17 13:43:19 2025
Module time:
	user time   =       2.47 seconds =       0.04 minutes
	system time =       4.09 seconds =       0.07 minutes
	total time  =          1 seconds =       0.02 minutes
Total time:
	user time   =      49.73 seconds =       0.83 minutes
	system time =      80.29 seconds =       1.34 minutes
	total time  =         13 seconds =       0.22 minutes

*** tstart() called on Joses-MacBook-Pro-2.local
*** at Thu Jul 17 13:43:19 2025

         ------------------------------------------------------------
                                   SCF GRAD
                          Rob Parrish, Justin Turney,
                       Andy Simmonett, and Alex Sokolov
         ------------------------------------------------------------

  ==> Geometry <==

    Molecular point group: c2v
    Full point group: C_inf_v

    Geometry (in Angstrom), charge = 1, multiplicity = 2:

       Center              X                  Y                   Z               Mass
    ------------   -----------------  -----------------  -----------------  -----------------
         C            0.000000000000     0.000000000000     1.389191579095    12.000000000000
         MG           0.000000000000     0.000000000000    -0.695028975131    23.985041697000

  Nuclear repulsion =   18.280579323045828

  ==> Basis Set <==

  Basis Set: CC-PVDZ
    Blend: CC-PVDZ
    Number of shells: 14
    Number of basis functions: 32
    Number of Cartesian functions: 34
    Spherical Harmonics?: true
    Max angular momentum: 2

  ==> DFJKGrad: Density-Fitted SCF Gradients <==

    Gradient:                    1
    J tasked:                  Yes
    K tasked:                  Yes
    wK tasked:                  No
    OpenMP threads:              1
    Integrals threads:           1
    Memory [MiB]:              375
    Schwarz Cutoff:          1E-12
    Fitting Condition:       1E-10

   => Auxiliary Basis Set <=

  Basis Set: (CC-PVDZ AUX)
    Blend: CC-PVDZ-JKFIT + DEF2-UNIVERSAL-JKFIT
    Number of shells: 58
    Number of basis functions: 182
    Number of Cartesian functions: 218
    Spherical Harmonics?: true
    Max angular momentum: 4

  ==> DFT Potential <==

   => LibXC <=

    Version 6.2.2
    S. Lehtola, C. Steigemann, M. J.T. Oliveira, and M. A.L. Marques.,  SoftwareX 7, 1â€“5 (2018) (10.1016/j.softx.2017.11.002)

   => Composite Functional: B3LYP <=

    B3LYP Hyb-GGA Exchange-Correlation Functional

    P. J. Stephens, F. J. Devlin, C. F. Chabalowski, and M. J. Frisch.,  J. Phys. Chem. 98, 11623 (1994) (10.1021/j100096a001)

    Deriv               =              1
    GGA                 =           TRUE
    Meta                =          FALSE

    Exchange Hybrid     =           TRUE
    MP2 Hybrid          =          FALSE

   => Exchange Functionals <=

    0.0800   Slater exchange
    0.7200         Becke 88

   => Exact (HF) Exchange <=

    0.2000               HF

   => Correlation Functionals <=

    0.1900   Vosko, Wilk & Nusair (VWN5_RPA)
    0.8100   Lee, Yang & Parr

   => LibXC Density Thresholds  <==

    XC_HYB_GGA_XC_B3LYP:  1.00E-15

   => Molecular Quadrature <=

    Radial Scheme          =       TREUTLER
    Pruning Scheme         =           NONE
    Nuclear Scheme         =       TREUTLER

    Blocking Scheme        =         OCTREE
    BS radius alpha        =              1
    Pruning alpha          =              1
    Radial Points          =             75
    Spherical Points       =            302
    Total Points           =          43479
    Total Blocks           =            413
    Max Points             =            256
    Max Functions          =             32
    Weights Tolerance      =       1.00E-15

  -Total Gradient:
     Atom            X                  Y                   Z
    ------   -----------------  -----------------  -----------------
       1        0.000000000000    -0.000000000000    -0.000071198625
       2        0.000000000000     0.000000000000     0.000068554829

*** tstop() called on Joses-MacBook-Pro-2.local at Thu Jul 17 13:43:19 2025
Module time:
	user time   =       0.79 seconds =       0.01 minutes
	system time =       1.73 seconds =       0.03 minutes
	total time  =          0 seconds =       0.00 minutes
Total time:
	user time   =      50.52 seconds =       0.84 minutes
	system time =      82.02 seconds =       1.37 minutes
	total time  =         13 seconds =       0.22 minutes

    			-----------------------------------------

    			 OPTKING 3.0: for geometry optimizations

    			     By R.A. King, Bethel University

    			        with contributions from

    			    A.V. Copan, J. Cayton, A. Heide

    			-----------------------------------------

	                            ===> Fragment 1 <==

	 Z (Atomic Numbers)          Masses                          Geom
	       6.000000            12.000000          0.00000000  0.00000000  2.62519162
	      12.000000            23.985042          0.00000000  0.00000000 -1.31341441

	 - Coordinate -           - BOHR/RAD -       - ANG/DEG -
	 R(1,2)           =         3.938606           2.084221

	        --- Internal Coordinate Step in ANG or DEG, aJ/ANG or AJ/DEG ---
	-------------------------------------------------------------------------------
	           Coordinate      Previous         Force          Change          New
	           ----------      --------        ------          ------        ------
	               R(1,2)       2.08422        0.00058        0.00054       2.08476
	-------------------------------------------------------------------------------

	                                 ==> Convergence Check <==

	Measures of convergence in internal coordinates in au.

	Criteria marked as inactive (o), active & met (*), and active & unmet ( ).

	----------------------------------------------------------------------------------------------
	   Step    Total Energy     Delta E     Max Force     RMS Force      Max Disp      RMS Disp
	----------------------------------------------------------------------------------------------
	  Convergence Criteria     1.00e-06 *    3.00e-04 *             o    1.20e-03 *             o
	----------------------------------------------------------------------------------------------
	    12    -237.67694297   -3.69e-07 *    6.99e-05 *    6.99e-05 o    1.02e-03 *    1.02e-03 o  ~
	----------------------------------------------------------------------------------------------

Next Geometry in Ang
	Fragment 1 (Ang)

	    C   0.0000000000   0.0000000000   1.3894617803
	   Mg   0.0000000000   0.0000000000  -0.6952991764

    Final optimized geometry and variables:
    Molecular point group: c2v
    Full point group: C_inf_v

    Geometry (in Angstrom), charge = 1, multiplicity = 2:

    C            0.000000000000     0.000000000000     1.389191579095
    MG           0.000000000000     0.000000000000    -0.695028975131

    Psi4 stopped on: Thursday, 17 July 2025 01:43PM
    Psi4 wall time for execution: 0:00:13.64

*** Psi4 exiting successfully. Buy a developer a beer!
