                               Psi4 1.9.1 release

  ==> Input File <==

--------------------------------------------------------------------------
molecule {
1 2
Na   0.00000        0.60000        0.00000
Al   0.00000       -0.60000        0.00000
}

set {
basis              cc-pvdz
reference          uks
maxiter            500
geom_maxiter       500
DAMPING_PERCENTAGE 1
guess              SAP
}

optimize('b3lyp')
--------------------------------------------------------------------------

    Molecular point group: c2v
  Charge       = 1
  Multiplicity = 2
  Basis Set: CC-PVDZ
    Blend: CC-PVDZ
  Basis Set: (CC-PVDZ AUX)
    Blend: CC-PVDZ-JKFIT + DEF2-UNIVERSAL-JKFIT
  @DF-UKS Final Energy:  -403.74713236623006
    Total Energy =                       -403.7471323662300620
 Dipole X            :          0.0000000            0.0000000            0.0000000
 Dipole Y            :          0.0000000            0.0000000            0.0000000
 Dipole Z            :          0.9504513           -0.0939390            0.8565123
 Magnitude           :                                                    0.8565123
    Molecular point group: c2v
  Basis Set: CC-PVDZ
    Blend: CC-PVDZ
  Basis Set: (CC-PVDZ AUX)
    Blend: CC-PVDZ-JKFIT + DEF2-UNIVERSAL-JKFIT
  Basis Set: CC-PVDZ
    Blend: CC-PVDZ
  Basis Set: (CC-PVDZ AUX)
    Blend: CC-PVDZ-JKFIT + DEF2-UNIVERSAL-JKFIT
  @DF-UKS Final Energy:  -403.75427623089490
    Total Energy =                       -403.7542762308948454
  Basis Set: CC-PVDZ
    Blend: CC-PVDZ
  Basis Set: (CC-PVDZ AUX)
    Blend: CC-PVDZ-JKFIT + DEF2-UNIVERSAL-JKFIT
  Basis Set: CC-PVDZ
    Blend: CC-PVDZ
  @DF-UKS Final Energy:  -403.76810683598859
    Total Energy =                       -403.7681068359885899
  @DF-UKS Final Energy:  -403.81871613710717
    Total Energy =                       -403.8187161371071738
  @DF-UKS Final Energy:  -404.05993108077689
    Total Energy =                       -404.0599310807768916
  @DF-UKS Final Energy:  -404.21004297254774
    Total Energy =                       -404.2100429725477397
  @DF-UKS Final Energy:  -404.32641622827998
    Total Energy =                       -404.3264162282799816
  @DF-UKS Final Energy:  -404.40105870032949
    Total Energy =                       -404.4010587003293722
  @DF-UKS Final Energy:  -404.44182151920916
    Total Energy =                       -404.4418215192091566
  @DF-UKS Final Energy:  -404.46205180293094
    Total Energy =                       -404.4620518029310006
  @DF-UKS Final Energy:  -404.47188257731085
    Total Energy =                       -404.4718825773109074
  @DF-UKS Final Energy:  -404.47649923038131
    Total Energy =                       -404.4764992303813074
  @DF-UKS Final Energy:  -404.47844284091417
    Total Energy =                       -404.4784428409141697
  @DF-UKS Final Energy:  -404.47911819681497
    Total Energy =                       -404.4791181968149658
  @DF-UKS Final Energy:  -404.47928622803619
    Total Energy =                       -404.4792862280361305
  @DF-UKS Final Energy:  -404.47930573739995
    Total Energy =                       -404.4793057373999545
  Basis Set: (CC-PVDZ AUX)
    Blend: CC-PVDZ-JKFIT + DEF2-UNIVERSAL-JKFIT
  Basis Set: CC-PVDZ
    Blend: CC-PVDZ
  Basis Set: (CC-PVDZ AUX)
    Blend: CC-PVDZ-JKFIT + DEF2-UNIVERSAL-JKFIT
  @DF-UKS Final Energy:  -404.47930811213172
    Total Energy =                       -404.4793081121317186
  Basis Set: CC-PVDZ
    Blend: CC-PVDZ
  Basis Set: (CC-PVDZ AUX)
    Blend: CC-PVDZ-JKFIT + DEF2-UNIVERSAL-JKFIT
  Charge       = 1
  Multiplicity = 2
  Basis Set: CC-PVDZ
    Blend: CC-PVDZ
  Basis Set: (CC-PVDZ AUX)
    Blend: CC-PVDZ-JKFIT + DEF2-UNIVERSAL-JKFIT

    Orbital Energies [Eh]
    ---------------------

    Alpha Occupied:

       1A1   -56.241414     2A1   -38.748993     3A1    -4.320407
       1B1    -2.873988     4A1    -2.873919     1B2    -2.870850
       5A1    -2.486842     2B1    -1.418181     6A1    -1.418165
       2B2    -1.417860     7A1    -0.486710     3B2    -0.288449

    Alpha Virtual:

       8A1    -0.274703     3B1    -0.231362     9A1    -0.202503
       4B2    -0.145428     4B1    -0.137490    10A1    -0.109354
      11A1    -0.070986     5B2    -0.052755     5B1    -0.048983
      12A1    -0.042330     6B2     0.001427     1A2     0.005937
       6B1     0.006918    13A1     0.008660    14A1     0.018872
       7B2     0.084344     7B1     0.093428    15A1     0.108848
       2A2     0.109772    16A1     0.116244    17A1     0.143277
       8B2     0.180591     8B1     0.189470    18A1     0.328936

    Beta Occupied:

       1A1   -56.239373     2A1   -38.748966     3A1    -4.317918
       1B1    -2.872809     4A1    -2.872754     1B2    -2.862917
       5A1    -2.486800     6A1    -1.418196     2B1    -1.418177
       2B2    -1.417685     7A1    -0.462026

    Beta Virtual:

       8A1    -0.271035     3B1    -0.225917     3B2    -0.204320
       9A1    -0.201477     4B1    -0.138556     4B2    -0.135547
      10A1    -0.107399    11A1    -0.067632     5B1    -0.048917
       5B2    -0.047623    12A1    -0.040042     6B1     0.004582
       1A2     0.007723    13A1     0.008953     6B2     0.009829
      14A1     0.019449     7B1     0.095231     7B2     0.112423
      15A1     0.117226     2A2     0.143150    16A1     0.144828
      17A1     0.146822     8B1     0.189742     8B2     0.205934
      18A1     0.336013

    Final Occupation by Irrep:
             A1    A2    B1    B2
    DOCC [     7,    0,    2,    2 ]
    SOCC [     0,    0,    0,    1 ]
    NA   [     7,    0,    2,    3 ]
    NB   [     7,    0,    2,    2 ]

  @DF-UKS Final Energy:  -404.47930835409835

   => Energetics <=

    Nuclear Repulsion Energy =             22.9735186072567998
    One-Electron Energy =                -605.4265764949046797
    Two-Electron Energy =                 204.4639251636789083
    DFT Exchange-Correlation Energy =     -26.4901756301294107
    Empirical Dispersion Energy =           0.0000000000000000
    VV10 Nonlocal Energy =                  0.0000000000000000
    Total Energy =                       -404.4793083540983503

  UHF NO Occupations:
  HONO-2 :    2 B2 2.0000000
  HONO-1 :    7 A1 1.9976858
  HONO-0 :    3 B2 1.0000000
  LUNO+0 :    8 A1 0.0023142
  LUNO+1 :    4 B2 0.0000000
  LUNO+2 :    9 A1 0.0000000
  LUNO+3 :    3 B1 0.0000000

Computation Completed

Properties will be evaluated at   0.000000,   0.000000,   0.000000 [a0]

Properties computed using the SCF density matrix

 Multipole Moments:

 ------------------------------------------------------------------------------------
     Multipole            Electronic (a.u.)      Nuclear  (a.u.)        Total (a.u.)
 ------------------------------------------------------------------------------------

 L = 1.  Multiply by 2.5417464519 to convert [e a0] to [Debye]
 Dipole X            :          0.0000000            0.0000000            0.0000000
 Dipole Y            :          0.0000000            0.0000000            0.0000000
 Dipole Z            :          2.4220029           -0.2578542            2.1641487
 Magnitude           :                                                    2.1641487

 ------------------------------------------------------------------------------------

*** tstop() called on Joses-MacBook-Pro-2.local at Thu Jul 17 14:47:45 2025
Module time:
	user time   =       7.34 seconds =       0.12 minutes
	system time =       2.25 seconds =       0.04 minutes
	total time  =          0 seconds =       0.00 minutes
Total time:
	user time   =     225.96 seconds =       3.77 minutes
	system time =      66.32 seconds =       1.11 minutes
	total time  =         28 seconds =       0.47 minutes

*** tstart() called on Joses-MacBook-Pro-2.local
*** at Thu Jul 17 14:47:45 2025

         ------------------------------------------------------------
                                   SCF GRAD
                          Rob Parrish, Justin Turney,
                       Andy Simmonett, and Alex Sokolov
         ------------------------------------------------------------

  ==> Geometry <==

    Molecular point group: c2v
    Full point group: C_inf_v

    Geometry (in Angstrom), charge = 1, multiplicity = 2:

       Center              X                  Y                   Z               Mass
    ------------   -----------------  -----------------  -----------------  -----------------
         NA           0.000000000000     0.000000000000     1.778507284359    22.989769282000
         AL           0.000000000000     0.000000000000    -1.515386977963    26.981538530000

  Nuclear repulsion =   22.973518607256800

  ==> Basis Set <==

  Basis Set: CC-PVDZ
    Blend: CC-PVDZ
    Number of shells: 16
    Number of basis functions: 36
    Number of Cartesian functions: 38
    Spherical Harmonics?: true
    Max angular momentum: 2

  ==> DFJKGrad: Density-Fitted SCF Gradients <==

    Gradient:                    1
    J tasked:                  Yes
    K tasked:                  Yes
    wK tasked:                  No
    OpenMP threads:              1
    Integrals threads:           1
    Memory [MiB]:              375
    Schwarz Cutoff:          1E-12
    Fitting Condition:       1E-10

   => Auxiliary Basis Set <=

  Basis Set: (CC-PVDZ AUX)
    Blend: CC-PVDZ-JKFIT + DEF2-UNIVERSAL-JKFIT
    Number of shells: 70
    Number of basis functions: 224
    Number of Cartesian functions: 267
    Spherical Harmonics?: true
    Max angular momentum: 4

  ==> DFT Potential <==

   => LibXC <=

    Version 6.2.2
    S. Lehtola, C. Steigemann, M. J.T. Oliveira, and M. A.L. Marques.,  SoftwareX 7, 1â€“5 (2018) (10.1016/j.softx.2017.11.002)

   => Composite Functional: B3LYP <=

    B3LYP Hyb-GGA Exchange-Correlation Functional

    P. J. Stephens, F. J. Devlin, C. F. Chabalowski, and M. J. Frisch.,  J. Phys. Chem. 98, 11623 (1994) (10.1021/j100096a001)

    Deriv               =              1
    GGA                 =           TRUE
    Meta                =          FALSE

    Exchange Hybrid     =           TRUE
    MP2 Hybrid          =          FALSE

   => Exchange Functionals <=

    0.0800   Slater exchange
    0.7200         Becke 88

   => Exact (HF) Exchange <=

    0.2000               HF

   => Correlation Functionals <=

    0.1900   Vosko, Wilk & Nusair (VWN5_RPA)
    0.8100   Lee, Yang & Parr

   => LibXC Density Thresholds  <==

    XC_HYB_GGA_XC_B3LYP:  1.00E-15

   => Molecular Quadrature <=

    Radial Scheme          =       TREUTLER
    Pruning Scheme         =           NONE
    Nuclear Scheme         =       TREUTLER

    Blocking Scheme        =         OCTREE
    BS radius alpha        =              1
    Pruning alpha          =              1
    Radial Points          =             75
    Spherical Points       =            302
    Total Points           =          43898
    Total Blocks           =            457
    Max Points             =            254
    Max Functions          =             36
    Weights Tolerance      =       1.00E-15

  -Total Gradient:
     Atom            X                  Y                   Z
    ------   -----------------  -----------------  -----------------
       1        0.000000000000     0.000000000000    -0.000014000416
       2        0.000000000000    -0.000000000000     0.000038230345

*** tstop() called on Joses-MacBook-Pro-2.local at Thu Jul 17 14:47:46 2025
Module time:
	user time   =       2.36 seconds =       0.04 minutes
	system time =       2.06 seconds =       0.03 minutes
	total time  =          1 seconds =       0.02 minutes
Total time:
	user time   =     228.32 seconds =       3.81 minutes
	system time =      68.38 seconds =       1.14 minutes
	total time  =         29 seconds =       0.48 minutes

    			-----------------------------------------

    			 OPTKING 3.0: for geometry optimizations

    			     By R.A. King, Bethel University

    			        with contributions from

    			    A.V. Copan, J. Cayton, A. Heide

    			-----------------------------------------

	                            ===> Fragment 1 <==

	 Z (Atomic Numbers)          Masses                          Geom
	      11.000000            22.989769          0.00000000  0.00000000  3.36089168
	      13.000000            26.981539          0.00000000  0.00000000 -2.86366636

	 - Coordinate -           - BOHR/RAD -       - ANG/DEG -
	 R(1,2)           =         6.224558           3.293894

	        --- Internal Coordinate Step in ANG or DEG, aJ/ANG or AJ/DEG ---
	-------------------------------------------------------------------------------
	           Coordinate      Previous         Force          Change          New
	           ----------      --------        ------          ------        ------
	               R(1,2)       3.29389        0.00022        0.00225       3.29614
	-------------------------------------------------------------------------------

	                                 ==> Convergence Check <==

	Measures of convergence in internal coordinates in au.

	Criteria marked as inactive (o), active & met (*), and active & unmet ( ).

	----------------------------------------------------------------------------------------------
	   Step    Total Energy     Delta E     Max Force     RMS Force      Max Disp      RMS Disp
	----------------------------------------------------------------------------------------------
	  Convergence Criteria     1.00e-06 *    3.00e-04 *             o    1.20e-03 *             o
	----------------------------------------------------------------------------------------------
	    18    -404.47930835   -2.42e-07 *    2.61e-05 *    2.61e-05 o    4.24e-03      4.24e-03 o  ~
	----------------------------------------------------------------------------------------------

Next Geometry in Ang
	Fragment 1 (Ang)

	   Na   0.0000000000   0.0000000000   1.7796304285
	   Al   0.0000000000   0.0000000000  -1.5165101221

    Final optimized geometry and variables:
    Molecular point group: c2v
    Full point group: C_inf_v

    Geometry (in Angstrom), charge = 1, multiplicity = 2:

    NA           0.000000000000     0.000000000000     1.778507284359
    AL           0.000000000000     0.000000000000    -1.515386977963

    Psi4 stopped on: Thursday, 17 July 2025 02:47PM
    Psi4 wall time for execution: 0:00:29.83

*** Psi4 exiting successfully. Buy a developer a beer!
