                               Psi4 1.9.1 release

  ==> Input File <==

--------------------------------------------------------------------------
molecule {
1 2
F   0.00000        0.60000        0.00000
Cl   0.00000       -0.60000        0.00000
}

set {
basis              cc-pvdz
reference          uks
maxiter            500
geom_maxiter       500
DAMPING_PERCENTAGE 1
guess              SAP
}

optimize('b3lyp')
--------------------------------------------------------------------------

    Molecular point group: c2v
  Charge       = 1
  Multiplicity = 2
  Basis Set: CC-PVDZ
    Blend: CC-PVDZ
  Basis Set: (CC-PVDZ AUX)
    Blend: CC-PVDZ-JKFIT
  @DF-UKS Final Energy:  -559.28468748251908
    Total Energy =                       -559.2846874825190753
 Dipole X            :          0.0000000            0.0000000            0.0000000
 Dipole Y            :          0.0000000            0.0000000            0.0000000
 Dipole Z            :          0.1313285           -0.3467936           -0.2154651
 Magnitude           :                                                    0.2154651
    Molecular point group: c2v
  Basis Set: CC-PVDZ
    Blend: CC-PVDZ
  Basis Set: (CC-PVDZ AUX)
    Blend: CC-PVDZ-JKFIT
  Basis Set: CC-PVDZ
    Blend: CC-PVDZ
  Basis Set: (CC-PVDZ AUX)
    Blend: CC-PVDZ-JKFIT
  @DF-UKS Final Energy:  -559.42067386847179
    Total Energy =                       -559.4206738684717948
  Basis Set: CC-PVDZ
    Blend: CC-PVDZ
  Basis Set: (CC-PVDZ AUX)
    Blend: CC-PVDZ-JKFIT
  Basis Set: CC-PVDZ
    Blend: CC-PVDZ
  @DF-UKS Final Energy:  -559.48056050645403
    Total Energy =                       -559.4805605064540259
  @DF-UKS Final Energy:  -559.49771455387497
    Total Energy =                       -559.4977145538748573
  @DF-UKS Final Energy:  -559.50543462352493
    Total Energy =                       -559.5054346235249341
  @DF-UKS Final Energy:  -559.50735952979869
    Total Energy =                       -559.5073595297985776
  @DF-UKS Final Energy:  -559.50790097590300
    Total Energy =                       -559.5079009759029987
  @DF-UKS Final Energy:  -559.50810055053341
    Total Energy =                       -559.5081005505334133
  Basis Set: (CC-PVDZ AUX)
    Blend: CC-PVDZ-JKFIT
  Basis Set: CC-PVDZ
    Blend: CC-PVDZ
  Basis Set: (CC-PVDZ AUX)
    Blend: CC-PVDZ-JKFIT
  @DF-UKS Final Energy:  -559.50813375101006
    Total Energy =                       -559.5081337510100639
  Basis Set: CC-PVDZ
    Blend: CC-PVDZ
  Basis Set: (CC-PVDZ AUX)
    Blend: CC-PVDZ-JKFIT
  Charge       = 1
  Multiplicity = 2
  Basis Set: CC-PVDZ
    Blend: CC-PVDZ
  Basis Set: (CC-PVDZ AUX)
    Blend: CC-PVDZ-JKFIT

    Orbital Energies [Eh]
    ---------------------

    Alpha Occupied:

       1A1  -102.064984     2A1   -25.154333     3A1    -9.972013
       4A1    -7.737206     1B2    -7.737106     1B1    -7.715901
       5A1    -1.646684     6A1    -1.234948     7A1    -0.916428
       2B2    -0.888644     2B1    -0.857464     3B2    -0.740126
       3B1    -0.697101

    Alpha Virtual:

       8A1    -0.465952     9A1     0.145276     4B2     0.173114
       4B1     0.198750    10A1     0.225956     5B2     0.252571
       1A2     0.278524    11A1     0.278637     5B1     0.287984
      12A1     0.521641     6B2     0.860076     6B1     0.878856
      13A1     0.897516    14A1     1.706621    15A1     3.139933
       2A2     3.140249     7B2     3.153196     7B1     3.174362
      16A1     3.442606

    Beta Occupied:

       1A1  -102.058891     2A1   -25.145131     3A1    -9.966064
       4A1    -7.733782     1B2    -7.717322     1B1    -7.712355
       5A1    -1.626352     6A1    -1.194578     7A1    -0.901603
       2B1    -0.848479     2B2    -0.824039     3B1    -0.683910

    Beta Virtual:

       3B2    -0.595378     8A1    -0.450377     9A1     0.152292
       4B1     0.204008     4B2     0.205589    10A1     0.239649
       5B1     0.294356     5B2     0.301083     1A2     0.325238
      11A1     0.328526    12A1     0.539871     6B1     0.883171
       6B2     0.887564    13A1     0.902883    14A1     1.716416
       2A2     3.165551    15A1     3.166195     7B1     3.178202
       7B2     3.178964    16A1     3.454604

    Final Occupation by Irrep:
             A1    A2    B1    B2
    DOCC [     7,    0,    3,    2 ]
    SOCC [     0,    0,    0,    1 ]
    NA   [     7,    0,    3,    3 ]
    NB   [     7,    0,    3,    2 ]

  @DF-UKS Final Energy:  -559.50813630813991

   => Energetics <=

    Nuclear Repulsion Energy =             51.1409984277027547
    One-Electron Energy =                -865.5407025435572450
    Two-Electron Energy =                 285.7484653950895677
    DFT Exchange-Correlation Energy =     -30.8568975873748670
    Empirical Dispersion Energy =           0.0000000000000000
    VV10 Nonlocal Energy =                  0.0000000000000000
    Total Energy =                       -559.5081363081397967

  UHF NO Occupations:
  HONO-2 :    2 B2 1.9995627
  HONO-1 :    7 A1 1.9993581
  HONO-0 :    3 B2 1.0000000
  LUNO+0 :    8 A1 0.0006419
  LUNO+1 :    4 B2 0.0004373
  LUNO+2 :    9 A1 0.0000387
  LUNO+3 :    4 B1 0.0000151

Computation Completed

Properties will be evaluated at   0.000000,   0.000000,   0.000000 [a0]

Properties computed using the SCF density matrix

 Multipole Moments:

 ------------------------------------------------------------------------------------
     Multipole            Electronic (a.u.)      Nuclear  (a.u.)        Total (a.u.)
 ------------------------------------------------------------------------------------

 L = 1.  Multiply by 2.5417464519 to convert [e a0] to [Debye]
 Dipole X            :          0.0000000            0.0000000            0.0000000
 Dipole Y            :          0.0000000            0.0000000            0.0000000
 Dipole Z            :         -0.3029093           -0.4575233           -0.7604326
 Magnitude           :                                                    0.7604326

 ------------------------------------------------------------------------------------

*** tstop() called on Joses-MacBook-Pro-2.local at Thu Jul 17 14:32:09 2025
Module time:
	user time   =       3.40 seconds =       0.06 minutes
	system time =       3.67 seconds =       0.06 minutes
	total time  =          1 seconds =       0.02 minutes
Total time:
	user time   =      48.91 seconds =       0.82 minutes
	system time =      56.31 seconds =       0.94 minutes
	total time  =         10 seconds =       0.17 minutes

*** tstart() called on Joses-MacBook-Pro-2.local
*** at Thu Jul 17 14:32:09 2025

         ------------------------------------------------------------
                                   SCF GRAD
                          Rob Parrish, Justin Turney,
                       Andy Simmonett, and Alex Sokolov
         ------------------------------------------------------------

  ==> Geometry <==

    Molecular point group: c2v
    Full point group: C_inf_v

    Geometry (in Angstrom), charge = 1, multiplicity = 2:

       Center              X                  Y                   Z               Mass
    ------------   -----------------  -----------------  -----------------  -----------------
         F            0.000000000000     0.000000000000     1.025827669709    18.998403162730
         CL           0.000000000000     0.000000000000    -0.557327053931    34.968852682000

  Nuclear repulsion =   51.140998427702755

  ==> Basis Set <==

  Basis Set: CC-PVDZ
    Blend: CC-PVDZ
    Number of shells: 14
    Number of basis functions: 32
    Number of Cartesian functions: 34
    Spherical Harmonics?: true
    Max angular momentum: 2

  ==> DFJKGrad: Density-Fitted SCF Gradients <==

    Gradient:                    1
    J tasked:                  Yes
    K tasked:                  Yes
    wK tasked:                  No
    OpenMP threads:              1
    Integrals threads:           1
    Memory [MiB]:              375
    Schwarz Cutoff:          1E-12
    Fitting Condition:       1E-10

   => Auxiliary Basis Set <=

  Basis Set: (CC-PVDZ AUX)
    Blend: CC-PVDZ-JKFIT
    Number of shells: 60
    Number of basis functions: 182
    Number of Cartesian functions: 211
    Spherical Harmonics?: true
    Max angular momentum: 3

  ==> DFT Potential <==

   => LibXC <=

    Version 6.2.2
    S. Lehtola, C. Steigemann, M. J.T. Oliveira, and M. A.L. Marques.,  SoftwareX 7, 1â€“5 (2018) (10.1016/j.softx.2017.11.002)

   => Composite Functional: B3LYP <=

    B3LYP Hyb-GGA Exchange-Correlation Functional

    P. J. Stephens, F. J. Devlin, C. F. Chabalowski, and M. J. Frisch.,  J. Phys. Chem. 98, 11623 (1994) (10.1021/j100096a001)

    Deriv               =              1
    GGA                 =           TRUE
    Meta                =          FALSE

    Exchange Hybrid     =           TRUE
    MP2 Hybrid          =          FALSE

   => Exchange Functionals <=

    0.0800   Slater exchange
    0.7200         Becke 88

   => Exact (HF) Exchange <=

    0.2000               HF

   => Correlation Functionals <=

    0.1900   Vosko, Wilk & Nusair (VWN5_RPA)
    0.8100   Lee, Yang & Parr

   => LibXC Density Thresholds  <==

    XC_HYB_GGA_XC_B3LYP:  1.00E-15

   => Molecular Quadrature <=

    Radial Scheme          =       TREUTLER
    Pruning Scheme         =           NONE
    Nuclear Scheme         =       TREUTLER

    Blocking Scheme        =         OCTREE
    BS radius alpha        =              1
    Pruning alpha          =              1
    Radial Points          =             75
    Spherical Points       =            302
    Total Points           =          41800
    Total Blocks           =            369
    Max Points             =            255
    Max Functions          =             32
    Weights Tolerance      =       1.00E-15

  -Total Gradient:
     Atom            X                  Y                   Z
    ------   -----------------  -----------------  -----------------
       1        0.000000000000    -0.000000000000    -0.000265568389
       2        0.000000000000     0.000000000000     0.000201303600

*** tstop() called on Joses-MacBook-Pro-2.local at Thu Jul 17 14:32:09 2025
Module time:
	user time   =       0.58 seconds =       0.01 minutes
	system time =       1.57 seconds =       0.03 minutes
	total time  =          0 seconds =       0.00 minutes
Total time:
	user time   =      49.50 seconds =       0.82 minutes
	system time =      57.88 seconds =       0.96 minutes
	total time  =         10 seconds =       0.17 minutes

    			-----------------------------------------

    			 OPTKING 3.0: for geometry optimizations

    			     By R.A. King, Bethel University

    			        with contributions from

    			    A.V. Copan, J. Cayton, A. Heide

    			-----------------------------------------

	                            ===> Fragment 1 <==

	 Z (Atomic Numbers)          Masses                          Geom
	       9.000000            18.998403          0.00000000  0.00000000  1.93853335
	      17.000000            34.968853          0.00000000  0.00000000 -1.05319549

	 - Coordinate -           - BOHR/RAD -       - ANG/DEG -
	 R(1,2)           =         2.991729           1.583155

	        --- Internal Coordinate Step in ANG or DEG, aJ/ANG or AJ/DEG ---
	-------------------------------------------------------------------------------
	           Coordinate      Previous         Force          Change          New
	           ----------      --------        ------          ------        ------
	               R(1,2)       1.58315        0.00192        0.00030       1.58346
	-------------------------------------------------------------------------------

	                                 ==> Convergence Check <==

	Measures of convergence in internal coordinates in au.

	Criteria marked as inactive (o), active & met (*), and active & unmet ( ).

	----------------------------------------------------------------------------------------------
	   Step    Total Energy     Delta E     Max Force     RMS Force      Max Disp      RMS Disp
	----------------------------------------------------------------------------------------------
	  Convergence Criteria     1.00e-06 *    3.00e-04 *             o    1.20e-03 *             o
	----------------------------------------------------------------------------------------------
	    10    -559.50813631   -2.56e-06      2.33e-04 *    2.33e-04 o    5.73e-04 *    5.73e-04 o  ~
	----------------------------------------------------------------------------------------------

Next Geometry in Ang
	Fragment 1 (Ang)

	    F   0.0000000000   0.0000000000   1.0259793142
	   Cl   0.0000000000   0.0000000000  -0.5574786985

    Final optimized geometry and variables:
    Molecular point group: c2v
    Full point group: C_inf_v

    Geometry (in Angstrom), charge = 1, multiplicity = 2:

    F            0.000000000000     0.000000000000     1.025827669709
    CL           0.000000000000     0.000000000000    -0.557327053931

    Psi4 stopped on: Thursday, 17 July 2025 02:32PM
    Psi4 wall time for execution: 0:00:10.96

*** Psi4 exiting successfully. Buy a developer a beer!
