                               Psi4 1.9.1 release

  ==> Input File <==

--------------------------------------------------------------------------
molecule {
1 2
Li   0.00000        0.60000        0.00000
B   0.00000       -0.60000        0.00000
}

set {
basis              cc-pvdz
reference          uks
maxiter            500
geom_maxiter       500
DAMPING_PERCENTAGE 1
guess              SAP
}

optimize('b3lyp')
--------------------------------------------------------------------------

    Molecular point group: c2v
  Charge       = 1
  Multiplicity = 2
  Basis Set: CC-PVDZ
    Blend: CC-PVDZ
  Basis Set: (CC-PVDZ AUX)
    Blend: CC-PVDZ-JKFIT + DEF2-UNIVERSAL-JKFIT
  @DF-UKS Final Energy:   -31.69567471078034
    Total Energy =                        -31.6956747107803416
 Dipole X            :          0.0000000            0.0000000            0.0000000
 Dipole Y            :          0.0000000            0.0000000            0.0000000
 Dipole Z            :          1.1269507           -0.2581643            0.8687864
 Magnitude           :                                                    0.8687864
    Molecular point group: c2v
  Basis Set: CC-PVDZ
    Blend: CC-PVDZ
  Basis Set: (CC-PVDZ AUX)
    Blend: CC-PVDZ-JKFIT + DEF2-UNIVERSAL-JKFIT
  Basis Set: CC-PVDZ
    Blend: CC-PVDZ
  Basis Set: (CC-PVDZ AUX)
    Blend: CC-PVDZ-JKFIT + DEF2-UNIVERSAL-JKFIT
  @DF-UKS Final Energy:   -31.81843441118012
    Total Energy =                        -31.8184344111801174
  Basis Set: CC-PVDZ
    Blend: CC-PVDZ
  Basis Set: (CC-PVDZ AUX)
    Blend: CC-PVDZ-JKFIT + DEF2-UNIVERSAL-JKFIT
  Basis Set: CC-PVDZ
    Blend: CC-PVDZ
  @DF-UKS Final Energy:   -31.89144491772185
    Total Energy =                        -31.8914449177218451
  @DF-UKS Final Energy:   -31.92389276397527
    Total Energy =                        -31.9238927639752710
  @DF-UKS Final Energy:   -31.93987731787824
    Total Energy =                        -31.9398773178782420
  @DF-UKS Final Energy:   -31.94735345752736
    Total Energy =                        -31.9473534575273632
  @DF-UKS Final Energy:   -31.95056060267725
    Total Energy =                        -31.9505606026772462
  @DF-UKS Final Energy:   -31.95172967003329
    Total Energy =                        -31.9517296700332949
  @DF-UKS Final Energy:   -31.95205276121585
    Total Energy =                        -31.9520527612158531
  @DF-UKS Final Energy:   -31.95210045984600
    Total Energy =                        -31.9521004598459974
  @DF-UKS Final Energy:   -31.95210843466250
    Total Energy =                        -31.9521084346624988
  Basis Set: (CC-PVDZ AUX)
    Blend: CC-PVDZ-JKFIT + DEF2-UNIVERSAL-JKFIT
  Basis Set: CC-PVDZ
    Blend: CC-PVDZ
  Basis Set: (CC-PVDZ AUX)
    Blend: CC-PVDZ-JKFIT + DEF2-UNIVERSAL-JKFIT
  @DF-UKS Final Energy:   -31.95210986381751
    Total Energy =                        -31.9521098638175118
  Basis Set: CC-PVDZ
    Blend: CC-PVDZ
  Basis Set: (CC-PVDZ AUX)
    Blend: CC-PVDZ-JKFIT + DEF2-UNIVERSAL-JKFIT
  Charge       = 1
  Multiplicity = 2
  Basis Set: CC-PVDZ
    Blend: CC-PVDZ
  Basis Set: (CC-PVDZ AUX)
    Blend: CC-PVDZ-JKFIT + DEF2-UNIVERSAL-JKFIT

    Orbital Energies [Eh]
    ---------------------

    Alpha Occupied:

       1A1    -7.075332     2A1    -2.321757     3A1    -0.607607
       1B1    -0.391725

    Alpha Virtual:

       4A1    -0.328842     1B2    -0.298492     5A1    -0.219192
       2B1    -0.173403     2B2    -0.164281     6A1    -0.117175
       3B1    -0.063568     3B2    -0.061410     7A1    -0.048753
       8A1    -0.030754     1A2     0.061467     9A1     0.064939
       4B1     0.071047     4B2     0.081369    10A1     0.106563
       5B1     0.141587     5B2     0.157128    11A1     0.225911
      12A1     0.347374     2A2     0.491942    13A1     0.500212
       6B1     0.571527     6B2     0.587835    14A1     0.777804

    Beta Occupied:

       1A1    -7.065231     2A1    -2.321859     3A1    -0.565624

    Beta Virtual:

       4A1    -0.317177     1B2    -0.288033     1B1    -0.254672
       5A1    -0.219624     2B2    -0.164522     2B1    -0.159413
       6A1    -0.114395     3B2    -0.061119     3B1    -0.060333
       7A1    -0.047454     8A1    -0.027681     1A2     0.063827
       9A1     0.064874     4B2     0.079836     4B1     0.086449
      10A1     0.111973     5B2     0.160332     5B1     0.181854
      11A1     0.228002    12A1     0.364208    13A1     0.543635
       2A2     0.543810     6B2     0.591032     6B1     0.619060
      14A1     0.794967

    Final Occupation by Irrep:
             A1    A2    B1    B2
    DOCC [     3,    0,    0,    0 ]
    SOCC [     0,    0,    1,    0 ]
    NA   [     3,    0,    1,    0 ]
    NB   [     3,    0,    0,    0 ]

  @DF-UKS Final Energy:   -31.95211016307956

   => Energetics <=

    Nuclear Repulsion Energy =              3.1163122479639198
    One-Electron Energy =                 -46.5219975961172310
    Two-Electron Energy =                  15.9658835491647881
    DFT Exchange-Correlation Energy =      -4.5123083640910364
    Empirical Dispersion Energy =           0.0000000000000000
    VV10 Nonlocal Energy =                  0.0000000000000000
    Total Energy =                        -31.9521101630795634

  UHF NO Occupations:
  HONO-2 :    2 A1 1.9999998
  HONO-1 :    3 A1 1.9964793
  HONO-0 :    1 B1 1.0000000
  LUNO+0 :    4 A1 0.0035207
  LUNO+1 :    5 A1 0.0000002
  LUNO+2 :    6 A1 0.0000000
  LUNO+3 :    7 A1 0.0000000

Computation Completed

Properties will be evaluated at   0.000000,   0.000000,   0.000000 [a0]

Properties computed using the SCF density matrix

 Multipole Moments:

 ------------------------------------------------------------------------------------
     Multipole            Electronic (a.u.)      Nuclear  (a.u.)        Total (a.u.)
 ------------------------------------------------------------------------------------

 L = 1.  Multiply by 2.5417464519 to convert [e a0] to [Debye]
 Dipole X            :          0.0000000            0.0000000            0.0000000
 Dipole Y            :          0.0000000            0.0000000            0.0000000
 Dipole Z            :          2.6757435           -0.5479821            2.1277614
 Magnitude           :                                                    2.1277614

 ------------------------------------------------------------------------------------

*** tstop() called on Joses-MacBook-Pro-2.local at Thu Jul 17 12:43:37 2025
Module time:
	user time   =       1.98 seconds =       0.03 minutes
	system time =       3.64 seconds =       0.06 minutes
	total time  =          1 seconds =       0.02 minutes
Total time:
	user time   =      48.79 seconds =       0.81 minutes
	system time =      62.24 seconds =       1.04 minutes
	total time  =         11 seconds =       0.18 minutes

*** tstart() called on Joses-MacBook-Pro-2.local
*** at Thu Jul 17 12:43:37 2025

         ------------------------------------------------------------
                                   SCF GRAD
                          Rob Parrish, Justin Turney,
                       Andy Simmonett, and Alex Sokolov
         ------------------------------------------------------------

  ==> Geometry <==

    Molecular point group: c2v
    Full point group: C_inf_v

    Geometry (in Angstrom), charge = 1, multiplicity = 2:

       Center              X                  Y                   Z               Mass
    ------------   -----------------  -----------------  -----------------  -----------------
         LI           0.000000000000     0.000000000000     1.555709950385     7.016003436600
         B            0.000000000000     0.000000000000    -0.991421892785    11.009305360000

  Nuclear repulsion =    3.116312247963920

  ==> Basis Set <==

  Basis Set: CC-PVDZ
    Blend: CC-PVDZ
    Number of shells: 12
    Number of basis functions: 28
    Number of Cartesian functions: 30
    Spherical Harmonics?: true
    Max angular momentum: 2

  ==> DFJKGrad: Density-Fitted SCF Gradients <==

    Gradient:                    1
    J tasked:                  Yes
    K tasked:                  Yes
    wK tasked:                  No
    OpenMP threads:              1
    Integrals threads:           1
    Memory [MiB]:              375
    Schwarz Cutoff:          1E-12
    Fitting Condition:       1E-10

   => Auxiliary Basis Set <=

  Basis Set: (CC-PVDZ AUX)
    Blend: CC-PVDZ-JKFIT + DEF2-UNIVERSAL-JKFIT
    Number of shells: 41
    Number of basis functions: 121
    Number of Cartesian functions: 141
    Spherical Harmonics?: true
    Max angular momentum: 3

  ==> DFT Potential <==

   => LibXC <=

    Version 6.2.2
    S. Lehtola, C. Steigemann, M. J.T. Oliveira, and M. A.L. Marques.,  SoftwareX 7, 1â€“5 (2018) (10.1016/j.softx.2017.11.002)

   => Composite Functional: B3LYP <=

    B3LYP Hyb-GGA Exchange-Correlation Functional

    P. J. Stephens, F. J. Devlin, C. F. Chabalowski, and M. J. Frisch.,  J. Phys. Chem. 98, 11623 (1994) (10.1021/j100096a001)

    Deriv               =              1
    GGA                 =           TRUE
    Meta                =          FALSE

    Exchange Hybrid     =           TRUE
    MP2 Hybrid          =          FALSE

   => Exchange Functionals <=

    0.0800   Slater exchange
    0.7200         Becke 88

   => Exact (HF) Exchange <=

    0.2000               HF

   => Correlation Functionals <=

    0.1900   Vosko, Wilk & Nusair (VWN5_RPA)
    0.8100   Lee, Yang & Parr

   => LibXC Density Thresholds  <==

    XC_HYB_GGA_XC_B3LYP:  1.00E-15

   => Molecular Quadrature <=

    Radial Scheme          =       TREUTLER
    Pruning Scheme         =           NONE
    Nuclear Scheme         =       TREUTLER

    Blocking Scheme        =         OCTREE
    BS radius alpha        =              1
    Pruning alpha          =              1
    Radial Points          =             75
    Spherical Points       =            302
    Total Points           =          44346
    Total Blocks           =            435
    Max Points             =            256
    Max Functions          =             28
    Weights Tolerance      =       1.00E-15

  -Total Gradient:
     Atom            X                  Y                   Z
    ------   -----------------  -----------------  -----------------
       1        0.000000000000     0.000000000000    -0.000016088979
       2        0.000000000000     0.000000000000     0.000023271097

*** tstop() called on Joses-MacBook-Pro-2.local at Thu Jul 17 12:43:37 2025
Module time:
	user time   =       0.39 seconds =       0.01 minutes
	system time =       1.34 seconds =       0.02 minutes
	total time  =          0 seconds =       0.00 minutes
Total time:
	user time   =      49.19 seconds =       0.82 minutes
	system time =      63.58 seconds =       1.06 minutes
	total time  =         11 seconds =       0.18 minutes

    			-----------------------------------------

    			 OPTKING 3.0: for geometry optimizations

    			     By R.A. King, Bethel University

    			        with contributions from

    			    A.V. Copan, J. Cayton, A. Heide

    			-----------------------------------------

	                            ===> Fragment 1 <==

	 Z (Atomic Numbers)          Masses                          Geom
	       3.000000             7.016003          0.00000000  0.00000000  2.93986574
	       5.000000            11.009305          0.00000000  0.00000000 -1.87351585

	 - Coordinate -           - BOHR/RAD -       - ANG/DEG -
	 R(1,2)           =         4.813382           2.547132

	        --- Internal Coordinate Step in ANG or DEG, aJ/ANG or AJ/DEG ---
	-------------------------------------------------------------------------------
	           Coordinate      Previous         Force          Change          New
	           ----------      --------        ------          ------        ------
	               R(1,2)       2.54713        0.00016        0.00108       2.54821
	-------------------------------------------------------------------------------

	                                 ==> Convergence Check <==

	Measures of convergence in internal coordinates in au.

	Criteria marked as inactive (o), active & met (*), and active & unmet ( ).

	----------------------------------------------------------------------------------------------
	   Step    Total Energy     Delta E     Max Force     RMS Force      Max Disp      RMS Disp
	----------------------------------------------------------------------------------------------
	  Convergence Criteria     1.00e-06 *    3.00e-04 *             o    1.20e-03 *             o
	----------------------------------------------------------------------------------------------
	    13     -31.95211016   -2.99e-07 *    1.97e-05 *    1.97e-05 o    2.04e-03      2.04e-03 o  ~
	----------------------------------------------------------------------------------------------

Next Geometry in Ang
	Fragment 1 (Ang)

	   Li   0.0000000000   0.0000000000   1.5562493667
	    B   0.0000000000   0.0000000000  -0.9919613091

    Final optimized geometry and variables:
    Molecular point group: c2v
    Full point group: C_inf_v

    Geometry (in Angstrom), charge = 1, multiplicity = 2:

    LI           0.000000000000     0.000000000000     1.555709950385
    B            0.000000000000     0.000000000000    -0.991421892785

    Psi4 stopped on: Thursday, 17 July 2025 12:43PM
    Psi4 wall time for execution: 0:00:11.21

*** Psi4 exiting successfully. Buy a developer a beer!
