                               Psi4 1.9.1 release

  ==> Input File <==

--------------------------------------------------------------------------
molecule {
1 2
O   0.00000        0.60000        0.00000
Si   0.00000       -0.60000        0.00000
}

set {
basis              cc-pvdz
reference          uks
maxiter            500
geom_maxiter       500
DAMPING_PERCENTAGE 1
guess              SAP
}

optimize('b3lyp')
--------------------------------------------------------------------------

    Molecular point group: c2v
  Charge       = 1
  Multiplicity = 2
  Basis Set: CC-PVDZ
    Blend: CC-PVDZ
  Basis Set: (CC-PVDZ AUX)
    Blend: CC-PVDZ-JKFIT
  @DF-UKS Final Energy:  -364.09238619648926
    Total Energy =                       -364.0923861964892581
 Dipole X            :          0.0000000            0.0000000            0.0000000
 Dipole Y            :          0.0000000            0.0000000            0.0000000
 Dipole Z            :         -1.5826394           -0.0058478           -1.5884872
 Magnitude           :                                                    1.5884872
    Molecular point group: c2v
  Basis Set: CC-PVDZ
    Blend: CC-PVDZ
  Basis Set: (CC-PVDZ AUX)
    Blend: CC-PVDZ-JKFIT
  Basis Set: CC-PVDZ
    Blend: CC-PVDZ
  Basis Set: (CC-PVDZ AUX)
    Blend: CC-PVDZ-JKFIT
  @DF-UKS Final Energy:  -364.23765862896886
    Total Energy =                       -364.2376586289688589
  Basis Set: CC-PVDZ
    Blend: CC-PVDZ
  Basis Set: (CC-PVDZ AUX)
    Blend: CC-PVDZ-JKFIT
  Basis Set: CC-PVDZ
    Blend: CC-PVDZ
  @DF-UKS Final Energy:  -364.29431723220642
    Total Energy =                       -364.2943172322064243
  @DF-UKS Final Energy:  -364.30967306732589
    Total Energy =                       -364.3096730673258321
  @DF-UKS Final Energy:  -364.31620498538132
    Total Energy =                       -364.3162049853813187
  @DF-UKS Final Energy:  -364.31766669196111
    Total Energy =                       -364.3176666919611080
  @DF-UKS Final Energy:  -364.31803742272069
    Total Energy =                       -364.3180374227206926
  @DF-UKS Final Energy:  -364.31815841572302
    Total Energy =                       -364.3181584157230191
  Basis Set: (CC-PVDZ AUX)
    Blend: CC-PVDZ-JKFIT
  Basis Set: CC-PVDZ
    Blend: CC-PVDZ
  Basis Set: (CC-PVDZ AUX)
    Blend: CC-PVDZ-JKFIT
  @DF-UKS Final Energy:  -364.31817556925063
    Total Energy =                       -364.3181755692506840
  Basis Set: CC-PVDZ
    Blend: CC-PVDZ
  Basis Set: (CC-PVDZ AUX)
    Blend: CC-PVDZ-JKFIT
  Charge       = 1
  Multiplicity = 2
  Basis Set: CC-PVDZ
    Blend: CC-PVDZ
  Basis Set: (CC-PVDZ AUX)
    Blend: CC-PVDZ-JKFIT

    Orbital Energies [Eh]
    ---------------------

    Alpha Occupied:

       1A1   -66.568799     2A1   -19.496450     3A1    -5.702505
       4A1    -4.062369     1B2    -4.060248     1B1    -4.060248
       5A1    -1.291263     6A1    -0.795025     7A1    -0.661207
       2B2    -0.651995     2B1    -0.651995

    Alpha Virtual:

       3B1    -0.372568     3B2    -0.372568     8A1    -0.231519
       9A1    -0.014609     4B2     0.046024     4B1     0.046024
       1A2     0.055367    10A1     0.055367    11A1     0.086347
       5B1     0.128516     5B2     0.128516    12A1     0.384175
      13A1     0.720040     6B1     0.739349     6B2     0.739349
      14A1     1.413583    15A1     2.290820     2A2     2.290842
       7B1     2.365518     7B2     2.365518    16A1     2.716336

    Beta Occupied:

       1A1   -66.566511     2A1   -19.480193     3A1    -5.699616
       1B2    -4.058842     1B1    -4.058842     4A1    -4.055030
       5A1    -1.248041     6A1    -0.724616     2B2    -0.635787
       2B1    -0.635787

    Beta Virtual:

       7A1    -0.526229     3B1    -0.354136     3B2    -0.354136
       8A1    -0.206867     9A1    -0.000975     4B2     0.048138
       4B1     0.048138     1A2     0.062498    10A1     0.062498
      11A1     0.110426     5B1     0.151149     5B2     0.151149
      12A1     0.402957     6B1     0.751470     6B2     0.751470
      13A1     0.773747    14A1     1.442157    15A1     2.302737
       2A2     2.302758     7B1     2.414427     7B2     2.414427
      16A1     2.768493

    Final Occupation by Irrep:
             A1    A2    B1    B2
    DOCC [     6,    0,    2,    2 ]
    SOCC [     1,    0,    0,    0 ]
    NA   [     7,    0,    2,    2 ]
    NB   [     6,    0,    2,    2 ]

  @DF-UKS Final Energy:  -364.31817667703615

   => Energetics <=

    Nuclear Repulsion Energy =             37.9860084884986620
    One-Electron Energy =                -572.6636199862678041
    Two-Electron Energy =                 193.8464182929067761
    DFT Exchange-Correlation Energy =     -23.4869834721738115
    Empirical Dispersion Energy =           0.0000000000000000
    VV10 Nonlocal Energy =                  0.0000000000000000
    Total Energy =                       -364.3181766770361492

  UHF NO Occupations:
  HONO-2 :    2 B1 1.9994834
  HONO-1 :    6 A1 1.9962616
  HONO-0 :    7 A1 1.0000000
  LUNO+0 :    8 A1 0.0037384
  LUNO+1 :    3 B2 0.0005166
  LUNO+2 :    3 B1 0.0005166
  LUNO+3 :    9 A1 0.0001397

Computation Completed

Properties will be evaluated at   0.000000,   0.000000,   0.000000 [a0]

Properties computed using the SCF density matrix

 Multipole Moments:

 ------------------------------------------------------------------------------------
     Multipole            Electronic (a.u.)      Nuclear  (a.u.)        Total (a.u.)
 ------------------------------------------------------------------------------------

 L = 1.  Multiply by 2.5417464519 to convert [e a0] to [Debye]
 Dipole X            :          0.0000000            0.0000000            0.0000000
 Dipole Y            :          0.0000000            0.0000000            0.0000000
 Dipole Z            :         -1.6984667           -0.0076033           -1.7060700
 Magnitude           :                                                    1.7060700

 ------------------------------------------------------------------------------------

*** tstop() called on Joses-MacBook-Pro-2.local at Thu Jul 17 14:09:07 2025
Module time:
	user time   =       3.06 seconds =       0.05 minutes
	system time =       4.33 seconds =       0.07 minutes
	total time  =          1 seconds =       0.02 minutes
Total time:
	user time   =      39.92 seconds =       0.67 minutes
	system time =      78.16 seconds =       1.30 minutes
	total time  =         12 seconds =       0.20 minutes

*** tstart() called on Joses-MacBook-Pro-2.local
*** at Thu Jul 17 14:09:07 2025

         ------------------------------------------------------------
                                   SCF GRAD
                          Rob Parrish, Justin Turney,
                       Andy Simmonett, and Alex Sokolov
         ------------------------------------------------------------

  ==> Geometry <==

    Molecular point group: c2v
    Full point group: C_inf_v

    Geometry (in Angstrom), charge = 1, multiplicity = 2:

       Center              X                  Y                   Z               Mass
    ------------   -----------------  -----------------  -----------------  -----------------
         O            0.000000000000     0.000000000000     0.992706456408    15.994914619570
         SI           0.000000000000     0.000000000000    -0.567548225602    27.976926534650

  Nuclear repulsion =   37.986008488498662

  ==> Basis Set <==

  Basis Set: CC-PVDZ
    Blend: CC-PVDZ
    Number of shells: 14
    Number of basis functions: 32
    Number of Cartesian functions: 34
    Spherical Harmonics?: true
    Max angular momentum: 2

  ==> DFJKGrad: Density-Fitted SCF Gradients <==

    Gradient:                    1
    J tasked:                  Yes
    K tasked:                  Yes
    wK tasked:                  No
    OpenMP threads:              1
    Integrals threads:           1
    Memory [MiB]:              375
    Schwarz Cutoff:          1E-12
    Fitting Condition:       1E-10

   => Auxiliary Basis Set <=

  Basis Set: (CC-PVDZ AUX)
    Blend: CC-PVDZ-JKFIT
    Number of shells: 60
    Number of basis functions: 182
    Number of Cartesian functions: 211
    Spherical Harmonics?: true
    Max angular momentum: 3

  ==> DFT Potential <==

   => LibXC <=

    Version 6.2.2
    S. Lehtola, C. Steigemann, M. J.T. Oliveira, and M. A.L. Marques.,  SoftwareX 7, 1â€“5 (2018) (10.1016/j.softx.2017.11.002)

   => Composite Functional: B3LYP <=

    B3LYP Hyb-GGA Exchange-Correlation Functional

    P. J. Stephens, F. J. Devlin, C. F. Chabalowski, and M. J. Frisch.,  J. Phys. Chem. 98, 11623 (1994) (10.1021/j100096a001)

    Deriv               =              1
    GGA                 =           TRUE
    Meta                =          FALSE

    Exchange Hybrid     =           TRUE
    MP2 Hybrid          =          FALSE

   => Exchange Functionals <=

    0.0800   Slater exchange
    0.7200         Becke 88

   => Exact (HF) Exchange <=

    0.2000               HF

   => Correlation Functionals <=

    0.1900   Vosko, Wilk & Nusair (VWN5_RPA)
    0.8100   Lee, Yang & Parr

   => LibXC Density Thresholds  <==

    XC_HYB_GGA_XC_B3LYP:  1.00E-15

   => Molecular Quadrature <=

    Radial Scheme          =       TREUTLER
    Pruning Scheme         =           NONE
    Nuclear Scheme         =       TREUTLER

    Blocking Scheme        =         OCTREE
    BS radius alpha        =              1
    Pruning alpha          =              1
    Radial Points          =             75
    Spherical Points       =            302
    Total Points           =          42675
    Total Blocks           =            394
    Max Points             =            255
    Max Functions          =             32
    Weights Tolerance      =       1.00E-15

  -Total Gradient:
     Atom            X                  Y                   Z
    ------   -----------------  -----------------  -----------------
       1        0.000000000000     0.000000000000    -0.000149915906
       2        0.000000000000     0.000000000000     0.000122526126

*** tstop() called on Joses-MacBook-Pro-2.local at Thu Jul 17 14:09:07 2025
Module time:
	user time   =       0.60 seconds =       0.01 minutes
	system time =       2.52 seconds =       0.04 minutes
	total time  =          0 seconds =       0.00 minutes
Total time:
	user time   =      40.53 seconds =       0.68 minutes
	system time =      80.69 seconds =       1.34 minutes
	total time  =         12 seconds =       0.20 minutes

    			-----------------------------------------

    			 OPTKING 3.0: for geometry optimizations

    			     By R.A. King, Bethel University

    			        with contributions from

    			    A.V. Copan, J. Cayton, A. Heide

    			-----------------------------------------

	                            ===> Fragment 1 <==

	 Z (Atomic Numbers)          Masses                          Geom
	       8.000000            15.994915          0.00000000  0.00000000  1.87594333
	      14.000000            27.976927          0.00000000  0.00000000 -1.07251071

	 - Coordinate -           - BOHR/RAD -       - ANG/DEG -
	 R(1,2)           =         2.948454           1.560255

	        --- Internal Coordinate Step in ANG or DEG, aJ/ANG or AJ/DEG ---
	-------------------------------------------------------------------------------
	           Coordinate      Previous         Force          Change          New
	           ----------      --------        ------          ------        ------
	               R(1,2)       1.56025        0.00112        0.00015       1.56041
	-------------------------------------------------------------------------------

	                                 ==> Convergence Check <==

	Measures of convergence in internal coordinates in au.

	Criteria marked as inactive (o), active & met (*), and active & unmet ( ).

	----------------------------------------------------------------------------------------------
	   Step    Total Energy     Delta E     Max Force     RMS Force      Max Disp      RMS Disp
	----------------------------------------------------------------------------------------------
	  Convergence Criteria     1.00e-06 *    3.00e-04 *             o    1.20e-03 *             o
	----------------------------------------------------------------------------------------------
	    10    -364.31817668   -1.11e-06      1.36e-04 *    1.36e-04 o    2.87e-04 *    2.87e-04 o  ~
	----------------------------------------------------------------------------------------------

Next Geometry in Ang
	Fragment 1 (Ang)

	    O   0.0000000000   0.0000000000   0.9927823684
	   Si   0.0000000000   0.0000000000  -0.5676241376

    Final optimized geometry and variables:
    Molecular point group: c2v
    Full point group: C_inf_v

    Geometry (in Angstrom), charge = 1, multiplicity = 2:

    O            0.000000000000     0.000000000000     0.992706456408
    SI           0.000000000000     0.000000000000    -0.567548225602

    Psi4 stopped on: Thursday, 17 July 2025 02:09PM
    Psi4 wall time for execution: 0:00:13.38

*** Psi4 exiting successfully. Buy a developer a beer!
