                               Psi4 1.9.1 release

  ==> Input File <==

--------------------------------------------------------------------------
molecule {
1 2
Mg   0.00000        0.60000        0.00000
Mg   0.00000       -0.60000        0.00000
}

set {
basis              cc-pvdz
reference          uks
maxiter            500
geom_maxiter       500
DAMPING_PERCENTAGE 1
guess              SAP
}

optimize('b3lyp')
--------------------------------------------------------------------------

    Molecular point group: d2h
  Charge       = 1
  Multiplicity = 2
  Basis Set: CC-PVDZ
    Blend: CC-PVDZ
  Basis Set: (CC-PVDZ AUX)
    Blend: DEF2-UNIVERSAL-JKFIT
  @DF-UKS Final Energy:  -399.13059070172926
    Total Energy =                       -399.1305907017292611
 Dipole X            :          0.0000000            0.0000000            0.0000000
 Dipole Y            :          0.0000000            0.0000000            0.0000000
 Dipole Z            :          0.0000000            0.0000000            0.0000000
 Magnitude           :                                                    0.0000000
    Molecular point group: d2h
  Basis Set: CC-PVDZ
    Blend: CC-PVDZ
  Basis Set: (CC-PVDZ AUX)
    Blend: DEF2-UNIVERSAL-JKFIT
  Basis Set: CC-PVDZ
    Blend: CC-PVDZ
  Basis Set: (CC-PVDZ AUX)
    Blend: DEF2-UNIVERSAL-JKFIT
  @DF-UKS Final Energy:  -399.13806994084842
    Total Energy =                       -399.1380699408484247
  Basis Set: CC-PVDZ
    Blend: CC-PVDZ
  Basis Set: (CC-PVDZ AUX)
    Blend: DEF2-UNIVERSAL-JKFIT
  Basis Set: CC-PVDZ
    Blend: CC-PVDZ
  @DF-UKS Final Energy:  -399.15254804995050
    Total Energy =                       -399.1525480499504965
  @DF-UKS Final Energy:  -399.20551051700545
    Total Energy =                       -399.2055105170054503
  @DF-UKS Final Energy:  -399.45753328492566
    Total Energy =                       -399.4575332849256597
  @DF-UKS Final Energy:  -399.61707265992709
    Total Energy =                       -399.6170726599270893
  @DF-UKS Final Energy:  -399.74186086509576
    Total Energy =                       -399.7418608650957594
  @DF-UKS Final Energy:  -399.81649458664981
    Total Energy =                       -399.8164945866498101
  @DF-UKS Final Energy:  -399.89906205693813
    Total Energy =                       -399.8990620569381349
  @DF-UKS Final Energy:  -399.93866519187202
    Total Energy =                       -399.9386651918720759
  @DF-UKS Final Energy:  -399.94030930630265
    Total Energy =                       -399.9403093063026517
  @DF-UKS Final Energy:  -399.94695766358996
    Total Energy =                       -399.9469576635899557
  @DF-UKS Final Energy:  -399.94835154472332
    Total Energy =                       -399.9483515447232662
  @DF-UKS Final Energy:  -399.94869441460395
    Total Energy =                       -399.9486944146039491
  @DF-UKS Final Energy:  -399.94871972697217
    Total Energy =                       -399.9487197269721150
  Basis Set: (CC-PVDZ AUX)
    Blend: DEF2-UNIVERSAL-JKFIT
  Basis Set: CC-PVDZ
    Blend: CC-PVDZ
  Basis Set: (CC-PVDZ AUX)
    Blend: DEF2-UNIVERSAL-JKFIT
  @DF-UKS Final Energy:  -399.94872164926466
    Total Energy =                       -399.9487216492646553
  Basis Set: CC-PVDZ
    Blend: CC-PVDZ
  Basis Set: (CC-PVDZ AUX)
    Blend: DEF2-UNIVERSAL-JKFIT
  Charge       = 1
  Multiplicity = 2
  Basis Set: CC-PVDZ
    Blend: CC-PVDZ
  Basis Set: (CC-PVDZ AUX)
    Blend: DEF2-UNIVERSAL-JKFIT

    Orbital Energies [Eh]
    ---------------------

    Alpha Occupied:

       1B2u  -47.052054     1Ag   -47.052053     2B2u   -3.328562
       2Ag    -3.328491     1B1u   -2.072039     1B3u   -2.072039
       1B3g   -2.072003     1B1g   -2.072003     3Ag    -2.070966
       3B2u   -2.070545     4Ag    -0.431793     4B2u   -0.360137

    Alpha Virtual:

       5Ag    -0.230119     2B3u   -0.225944     2B1u   -0.225944
       2B1g   -0.173363     2B3g   -0.173363     5B2u   -0.109402
       6Ag    -0.063219     7Ag    -0.021226     6B2u   -0.006156
       3B3u   -0.002687     3B1u   -0.002687     3B1g    0.024011
       3B3g    0.024011     4B3u    0.066046     4B1u    0.066046
       7B2u    0.071508     8Ag     0.105290     1B2g    0.105291
       8B2u    0.145245     1Au     0.145246     9Ag     0.172692
       4B1g    0.239002     4B3g    0.239002     9B2u    0.392912

    Beta Occupied:

       1B2u  -47.050383     1Ag   -47.050382     2B2u   -3.325466
       2Ag    -3.325397     1B1u   -2.069961     1B3u   -2.069961
       1B3g   -2.069908     1B1g   -2.069908     3Ag    -2.068988
       3B2u   -2.068532     4Ag    -0.419492

    Beta Virtual:

       4B2u   -0.295679     2B3u   -0.215810     2B1u   -0.215810
       5Ag    -0.208127     2B1g   -0.153836     2B3g   -0.153836
       5B2u   -0.096664     6Ag    -0.062617     7Ag    -0.014621
       3B3u    0.000725     3B1u    0.000725     6B2u    0.006763
       3B1g    0.032114     3B3g    0.032114     7B2u    0.078009
       4B3u    0.084152     4B1u    0.084152     8Ag     0.123198
       1B2g    0.123199     8B2u    0.165243     1Au     0.165243
       9Ag     0.189705     4B1g    0.256609     4B3g    0.256609
       9B2u    0.405964

    Final Occupation by Irrep:
             Ag   B1g   B2g   B3g    Au   B1u   B2u   B3u
    DOCC [     4,    1,    0,    1,    0,    1,    3,    1 ]
    SOCC [     0,    0,    0,    0,    0,    0,    1,    0 ]
    NA   [     4,    1,    0,    1,    0,    1,    4,    1 ]
    NB   [     4,    1,    0,    1,    0,    1,    3,    1 ]

  @DF-UKS Final Energy:  -399.94872179002510

   => Energetics <=

    Nuclear Repulsion Energy =             24.8366096631938333
    One-Electron Energy =                -603.1463155678112571
    Two-Electron Energy =                 204.7600302006520678
    DFT Exchange-Correlation Energy =     -26.3990460860597373
    Empirical Dispersion Energy =           0.0000000000000000
    VV10 Nonlocal Energy =                  0.0000000000000000
    Total Energy =                       -399.9487217900251039

  UHF NO Occupations:
  HONO-2 :    1B3g 1.9999993
  HONO-1 :    4 Ag 1.9906352
  HONO-0 :    4B2u 1.0000000
  LUNO+0 :    5 Ag 0.0093648
  LUNO+1 :    2B3g 0.0000007
  LUNO+2 :    2B1g 0.0000007
  LUNO+3 :    2B3u 0.0000006

Computation Completed

Properties will be evaluated at   0.000000,   0.000000,   0.000000 [a0]

Properties computed using the SCF density matrix

 Multipole Moments:

 ------------------------------------------------------------------------------------
     Multipole            Electronic (a.u.)      Nuclear  (a.u.)        Total (a.u.)
 ------------------------------------------------------------------------------------

 L = 1.  Multiply by 2.5417464519 to convert [e a0] to [Debye]
 Dipole X            :          0.0000000            0.0000000            0.0000000
 Dipole Y            :          0.0000000            0.0000000            0.0000000
 Dipole Z            :          0.0000000            0.0000000            0.0000000
 Magnitude           :                                                    0.0000000

 ------------------------------------------------------------------------------------

*** tstop() called on Joses-MacBook-Pro-2.local at Thu Jul 17 15:03:26 2025
Module time:
	user time   =       5.16 seconds =       0.09 minutes
	system time =       2.44 seconds =       0.04 minutes
	total time  =          1 seconds =       0.02 minutes
Total time:
	user time   =     177.40 seconds =       2.96 minutes
	system time =      73.17 seconds =       1.22 minutes
	total time  =         24 seconds =       0.40 minutes

*** tstart() called on Joses-MacBook-Pro-2.local
*** at Thu Jul 17 15:03:26 2025

         ------------------------------------------------------------
                                   SCF GRAD
                          Rob Parrish, Justin Turney,
                       Andy Simmonett, and Alex Sokolov
         ------------------------------------------------------------

  ==> Geometry <==

    Molecular point group: d2h
    Full point group: D_inf_h

    Geometry (in Angstrom), charge = 1, multiplicity = 2:

       Center              X                  Y                   Z               Mass
    ------------   -----------------  -----------------  -----------------  -----------------
         MG          -0.000000000000     1.534056366184     0.000000000000    23.985041697000
         MG           0.000000000000    -1.534056366184     0.000000000000    23.985041697000

  Nuclear repulsion =   24.836609663193833

  ==> Basis Set <==

  Basis Set: CC-PVDZ
    Blend: CC-PVDZ
    Number of shells: 16
    Number of basis functions: 36
    Number of Cartesian functions: 38
    Spherical Harmonics?: true
    Max angular momentum: 2

  ==> DFJKGrad: Density-Fitted SCF Gradients <==

    Gradient:                    1
    J tasked:                  Yes
    K tasked:                  Yes
    wK tasked:                  No
    OpenMP threads:              1
    Integrals threads:           1
    Memory [MiB]:              375
    Schwarz Cutoff:          1E-12
    Fitting Condition:       1E-10

   => Auxiliary Basis Set <=

  Basis Set: (CC-PVDZ AUX)
    Blend: DEF2-UNIVERSAL-JKFIT
    Number of shells: 68
    Number of basis functions: 224
    Number of Cartesian functions: 274
    Spherical Harmonics?: true
    Max angular momentum: 4

  ==> DFT Potential <==

   => LibXC <=

    Version 6.2.2
    S. Lehtola, C. Steigemann, M. J.T. Oliveira, and M. A.L. Marques.,  SoftwareX 7, 1â€“5 (2018) (10.1016/j.softx.2017.11.002)

   => Composite Functional: B3LYP <=

    B3LYP Hyb-GGA Exchange-Correlation Functional

    P. J. Stephens, F. J. Devlin, C. F. Chabalowski, and M. J. Frisch.,  J. Phys. Chem. 98, 11623 (1994) (10.1021/j100096a001)

    Deriv               =              1
    GGA                 =           TRUE
    Meta                =          FALSE

    Exchange Hybrid     =           TRUE
    MP2 Hybrid          =          FALSE

   => Exchange Functionals <=

    0.0800   Slater exchange
    0.7200         Becke 88

   => Exact (HF) Exchange <=

    0.2000               HF

   => Correlation Functionals <=

    0.1900   Vosko, Wilk & Nusair (VWN5_RPA)
    0.8100   Lee, Yang & Parr

   => LibXC Density Thresholds  <==

    XC_HYB_GGA_XC_B3LYP:  1.00E-15

   => Molecular Quadrature <=

    Radial Scheme          =       TREUTLER
    Pruning Scheme         =           NONE
    Nuclear Scheme         =       TREUTLER

    Blocking Scheme        =         OCTREE
    BS radius alpha        =              1
    Pruning alpha          =              1
    Radial Points          =             75
    Spherical Points       =            302
    Total Points           =          42406
    Total Blocks           =            410
    Max Points             =            254
    Max Functions          =             36
    Weights Tolerance      =       1.00E-15

  -Total Gradient:
     Atom            X                  Y                   Z
    ------   -----------------  -----------------  -----------------
       1        0.000000000000    -0.000021162080     0.000000000000
       2       -0.000000000000     0.000021162080     0.000000000000

*** tstop() called on Joses-MacBook-Pro-2.local at Thu Jul 17 15:03:26 2025
Module time:
	user time   =       2.80 seconds =       0.05 minutes
	system time =       1.76 seconds =       0.03 minutes
	total time  =          0 seconds =       0.00 minutes
Total time:
	user time   =     180.20 seconds =       3.00 minutes
	system time =      74.93 seconds =       1.25 minutes
	total time  =         24 seconds =       0.40 minutes

    			-----------------------------------------

    			 OPTKING 3.0: for geometry optimizations

    			     By R.A. King, Bethel University

    			        with contributions from

    			    A.V. Copan, J. Cayton, A. Heide

    			-----------------------------------------

	                            ===> Fragment 1 <==

	 Z (Atomic Numbers)          Masses                          Geom
	      12.000000            23.985042         -0.00000000  2.89894639  0.00000000
	      12.000000            23.985042          0.00000000 -2.89894639  0.00000000

	 - Coordinate -           - BOHR/RAD -       - ANG/DEG -
	 R(1,2)           =         5.797893           3.068113

	        --- Internal Coordinate Step in ANG or DEG, aJ/ANG or AJ/DEG ---
	-------------------------------------------------------------------------------
	           Coordinate      Previous         Force          Change          New
	           ----------      --------        ------          ------        ------
	               R(1,2)       3.06811        0.00017        0.00059       3.06870
	-------------------------------------------------------------------------------

	                                 ==> Convergence Check <==

	Measures of convergence in internal coordinates in au.

	Criteria marked as inactive (o), active & met (*), and active & unmet ( ).

	----------------------------------------------------------------------------------------------
	   Step    Total Energy     Delta E     Max Force     RMS Force      Max Disp      RMS Disp
	----------------------------------------------------------------------------------------------
	  Convergence Criteria     1.00e-06 *    3.00e-04 *             o    1.20e-03 *             o
	----------------------------------------------------------------------------------------------
	    17    -399.94872179   -1.41e-07 *    2.12e-05 *    2.12e-05 o    1.11e-03 *    1.11e-03 o  ~
	----------------------------------------------------------------------------------------------

Next Geometry in Ang
	Fragment 1 (Ang)

	   Mg  -0.0000000000   1.5343495915   0.0000000000
	   Mg   0.0000000000  -1.5343495915   0.0000000000

    Final optimized geometry and variables:
    Molecular point group: d2h
    Full point group: D_inf_h

    Geometry (in Angstrom), charge = 1, multiplicity = 2:

    MG          -0.000000000000     1.534056366184     0.000000000000
    MG           0.000000000000    -1.534056366184     0.000000000000

    Psi4 stopped on: Thursday, 17 July 2025 03:03PM
    Psi4 wall time for execution: 0:00:24.76

*** Psi4 exiting successfully. Buy a developer a beer!
