                               Psi4 1.9.1 release

  ==> Input File <==

--------------------------------------------------------------------------
molecule {
1 2
Li   0.00000        0.60000        0.00000
Na   0.00000       -0.60000        0.00000
}

set {
basis              cc-pvdz
reference          uks
maxiter            500
geom_maxiter       500
DAMPING_PERCENTAGE 1
guess              SAP
}

optimize('b3lyp')
--------------------------------------------------------------------------

    Molecular point group: c2v
  Charge       = 1
  Multiplicity = 2
  Basis Set: CC-PVDZ
    Blend: CC-PVDZ
  Basis Set: (CC-PVDZ AUX)
    Blend: DEF2-UNIVERSAL-JKFIT
  @DF-UKS Final Energy:  -169.33091148665713
    Total Energy =                       -169.3309114866571292
 Dipole X            :          0.0000000            0.0000000            0.0000000
 Dipole Y            :          0.0000000            0.0000000            0.0000000
 Dipole Z            :          0.9454749           -0.6202195            0.3252553
 Magnitude           :                                                    0.3252553
    Molecular point group: c2v
  Basis Set: CC-PVDZ
    Blend: CC-PVDZ
  Basis Set: (CC-PVDZ AUX)
    Blend: DEF2-UNIVERSAL-JKFIT
  Basis Set: CC-PVDZ
    Blend: CC-PVDZ
  Basis Set: (CC-PVDZ AUX)
    Blend: DEF2-UNIVERSAL-JKFIT
  @DF-UKS Final Energy:  -169.36790933858794
    Total Energy =                       -169.3679093385879355
  Basis Set: CC-PVDZ
    Blend: CC-PVDZ
  Basis Set: (CC-PVDZ AUX)
    Blend: DEF2-UNIVERSAL-JKFIT
  Basis Set: CC-PVDZ
    Blend: CC-PVDZ
  @DF-UKS Final Energy:  -169.41340520789024
    Total Energy =                       -169.4134052078902357
  @DF-UKS Final Energy:  -169.47766148862684
    Total Energy =                       -169.4776614886268362
  @DF-UKS Final Energy:  -169.52032252122152
    Total Energy =                       -169.5203225212215159
  @DF-UKS Final Energy:  -169.56512164211935
    Total Energy =                       -169.5651216421193226
  @DF-UKS Final Energy:  -169.57989453064786
    Total Energy =                       -169.5798945306478629
  @DF-UKS Final Energy:  -169.60394357919895
    Total Energy =                       -169.6039435791989547
  @DF-UKS Final Energy:  -169.60799387278294
    Total Energy =                       -169.6079938727829415
  @DF-UKS Final Energy:  -169.61687293090785
    Total Energy =                       -169.6168729309078458
  @DF-UKS Final Energy:  -169.61769399517752
    Total Energy =                       -169.6176939951775182
  @DF-UKS Final Energy:  -169.62062325859753
    Total Energy =                       -169.6206232585975329
  @DF-UKS Final Energy:  -169.62127769130947
    Total Energy =                       -169.6212776913094729
  @DF-UKS Final Energy:  -169.62138803378957
    Total Energy =                       -169.6213880337895716
  Basis Set: (CC-PVDZ AUX)
    Blend: DEF2-UNIVERSAL-JKFIT
  Basis Set: CC-PVDZ
    Blend: CC-PVDZ
  Basis Set: (CC-PVDZ AUX)
    Blend: DEF2-UNIVERSAL-JKFIT
  @DF-UKS Final Energy:  -169.62139314102393
    Total Energy =                       -169.6213931410239297
  Basis Set: CC-PVDZ
    Blend: CC-PVDZ
  Basis Set: (CC-PVDZ AUX)
    Blend: DEF2-UNIVERSAL-JKFIT
  Charge       = 1
  Multiplicity = 2
  Basis Set: CC-PVDZ
    Blend: CC-PVDZ
  Basis Set: (CC-PVDZ AUX)
    Blend: DEF2-UNIVERSAL-JKFIT

    Orbital Energies [Eh]
    ---------------------

    Alpha Occupied:

       1A1   -38.678892     2A1    -2.420110     3A1    -2.229176
       1B1    -1.351251     1B2    -1.351251     4A1    -1.350810
       5A1    -0.318274

    Alpha Virtual:

       6A1    -0.201323     2B2    -0.176176     2B1    -0.176176
       7A1    -0.159085     3B1    -0.116073     3B2    -0.116073
       8A1    -0.079016     9A1    -0.059331     4B1    -0.049017
       4B2    -0.049017    10A1    -0.042293     5B1    -0.022693
       5B2    -0.022693    11A1    -0.017896    12A1     0.018896
       1A2     0.018896     6B2     0.024321     6B1     0.024321
      13A1     0.066127     2A2     0.098027    14A1     0.098027
      15A1     0.130070     7B2     0.173260     7B1     0.173260
      16A1     0.254713

    Beta Occupied:

       1A1   -38.678039     2A1    -2.418461     3A1    -2.225143
       1B1    -1.350271     1B2    -1.350271     4A1    -1.349297

    Beta Virtual:

       5A1    -0.237784     6A1    -0.192938     2B2    -0.149045
       2B1    -0.149045     7A1    -0.138341     3B1    -0.108324
       3B2    -0.108324     8A1    -0.068321     9A1    -0.045677
       4B1    -0.039382     4B2    -0.039382    10A1    -0.037712
       5B1    -0.018721     5B2    -0.018721    11A1    -0.011812
      12A1     0.030483     1A2     0.030486     6B2     0.042580
       6B1     0.042580    13A1     0.079154    14A1     0.118958
       2A2     0.118963    15A1     0.145888     7B2     0.191625
       7B1     0.191625    16A1     0.269442

    Final Occupation by Irrep:
             A1    A2    B1    B2
    DOCC [     4,    0,    1,    1 ]
    SOCC [     1,    0,    0,    0 ]
    NA   [     5,    0,    1,    1 ]
    NB   [     4,    0,    1,    1 ]

  @DF-UKS Final Energy:  -169.62139335975212

   => Energetics <=

    Nuclear Repulsion Energy =              5.2178957561223926
    One-Electron Energy =                -245.2862146649010242
    Two-Electron Energy =                  83.4706039551249575
    DFT Exchange-Correlation Energy =     -13.0236784060984707
    Empirical Dispersion Energy =           0.0000000000000000
    VV10 Nonlocal Energy =                  0.0000000000000000
    Total Energy =                       -169.6213933597521475

  UHF NO Occupations:
  HONO-2 :    3 A1 1.9999995
  HONO-1 :    4 A1 1.9999993
  HONO-0 :    5 A1 1.0000000
  LUNO+0 :    6 A1 0.0000007
  LUNO+1 :    7 A1 0.0000005
  LUNO+2 :    2 B1 0.0000001
  LUNO+3 :    2 B2 0.0000001

Computation Completed

Properties will be evaluated at   0.000000,   0.000000,   0.000000 [a0]

Properties computed using the SCF density matrix

 Multipole Moments:

 ------------------------------------------------------------------------------------
     Multipole            Electronic (a.u.)      Nuclear  (a.u.)        Total (a.u.)
 ------------------------------------------------------------------------------------

 L = 1.  Multiply by 2.5417464519 to convert [e a0] to [Debye]
 Dipole X            :          0.0000000            0.0000000            0.0000000
 Dipole Y            :          0.0000000            0.0000000            0.0000000
 Dipole Z            :          3.2797785           -1.7297521            1.5500264
 Magnitude           :                                                    1.5500264

 ------------------------------------------------------------------------------------

*** tstop() called on Joses-MacBook-Pro-2.local at Thu Jul 17 12:51:20 2025
Module time:
	user time   =       2.61 seconds =       0.04 minutes
	system time =       3.30 seconds =       0.06 minutes
	total time  =          1 seconds =       0.02 minutes
Total time:
	user time   =      65.77 seconds =       1.10 minutes
	system time =     102.21 seconds =       1.70 minutes
	total time  =         19 seconds =       0.32 minutes

*** tstart() called on Joses-MacBook-Pro-2.local
*** at Thu Jul 17 12:51:20 2025

         ------------------------------------------------------------
                                   SCF GRAD
                          Rob Parrish, Justin Turney,
                       Andy Simmonett, and Alex Sokolov
         ------------------------------------------------------------

  ==> Geometry <==

    Molecular point group: c2v
    Full point group: C_inf_v

    Geometry (in Angstrom), charge = 1, multiplicity = 2:

       Center              X                  Y                   Z               Mass
    ------------   -----------------  -----------------  -----------------  -----------------
         LI           0.000000000000     0.000000000000     2.564185687173     7.016003436600
         NA           0.000000000000     0.000000000000    -0.782536587149    22.989769282000

  Nuclear repulsion =    5.217895756122393

  ==> Basis Set <==

  Basis Set: CC-PVDZ
    Blend: CC-PVDZ
    Number of shells: 14
    Number of basis functions: 32
    Number of Cartesian functions: 34
    Spherical Harmonics?: true
    Max angular momentum: 2

  ==> DFJKGrad: Density-Fitted SCF Gradients <==

    Gradient:                    1
    J tasked:                  Yes
    K tasked:                  Yes
    wK tasked:                  No
    OpenMP threads:              1
    Integrals threads:           1
    Memory [MiB]:              375
    Schwarz Cutoff:          1E-12
    Fitting Condition:       1E-10

   => Auxiliary Basis Set <=

  Basis Set: (CC-PVDZ AUX)
    Blend: DEF2-UNIVERSAL-JKFIT
    Number of shells: 51
    Number of basis functions: 163
    Number of Cartesian functions: 197
    Spherical Harmonics?: true
    Max angular momentum: 4

  ==> DFT Potential <==

   => LibXC <=

    Version 6.2.2
    S. Lehtola, C. Steigemann, M. J.T. Oliveira, and M. A.L. Marques.,  SoftwareX 7, 1â€“5 (2018) (10.1016/j.softx.2017.11.002)

   => Composite Functional: B3LYP <=

    B3LYP Hyb-GGA Exchange-Correlation Functional

    P. J. Stephens, F. J. Devlin, C. F. Chabalowski, and M. J. Frisch.,  J. Phys. Chem. 98, 11623 (1994) (10.1021/j100096a001)

    Deriv               =              1
    GGA                 =           TRUE
    Meta                =          FALSE

    Exchange Hybrid     =           TRUE
    MP2 Hybrid          =          FALSE

   => Exchange Functionals <=

    0.0800   Slater exchange
    0.7200         Becke 88

   => Exact (HF) Exchange <=

    0.2000               HF

   => Correlation Functionals <=

    0.1900   Vosko, Wilk & Nusair (VWN5_RPA)
    0.8100   Lee, Yang & Parr

   => LibXC Density Thresholds  <==

    XC_HYB_GGA_XC_B3LYP:  1.00E-15

   => Molecular Quadrature <=

    Radial Scheme          =       TREUTLER
    Pruning Scheme         =           NONE
    Nuclear Scheme         =       TREUTLER

    Blocking Scheme        =         OCTREE
    BS radius alpha        =              1
    Pruning alpha          =              1
    Radial Points          =             75
    Spherical Points       =            302
    Total Points           =          43650
    Total Blocks           =            457
    Max Points             =            256
    Max Functions          =             32
    Weights Tolerance      =       1.00E-15

  -Total Gradient:
     Atom            X                  Y                   Z
    ------   -----------------  -----------------  -----------------
       1        0.000000000000    -0.000000000000    -0.000011171460
       2        0.000000000000     0.000000000000     0.000012136915

*** tstop() called on Joses-MacBook-Pro-2.local at Thu Jul 17 12:51:20 2025
Module time:
	user time   =       1.65 seconds =       0.03 minutes
	system time =       1.92 seconds =       0.03 minutes
	total time  =          0 seconds =       0.00 minutes
Total time:
	user time   =      67.43 seconds =       1.12 minutes
	system time =     104.13 seconds =       1.74 minutes
	total time  =         19 seconds =       0.32 minutes

    			-----------------------------------------

    			 OPTKING 3.0: for geometry optimizations

    			     By R.A. King, Bethel University

    			        with contributions from

    			    A.V. Copan, J. Cayton, A. Heide

    			-----------------------------------------

	                            ===> Fragment 1 <==

	 Z (Atomic Numbers)          Masses                          Geom
	       3.000000             7.016003          0.00000000  0.00000000  4.84560868
	      11.000000            22.989769          0.00000000  0.00000000 -1.47877983

	 - Coordinate -           - BOHR/RAD -       - ANG/DEG -
	 R(1,2)           =         6.324389           3.346722

	        --- Internal Coordinate Step in ANG or DEG, aJ/ANG or AJ/DEG ---
	-------------------------------------------------------------------------------
	           Coordinate      Previous         Force          Change          New
	           ----------      --------        ------          ------        ------
	               R(1,2)       3.34672        0.00010        0.00076       3.34748
	-------------------------------------------------------------------------------

	                                 ==> Convergence Check <==

	Measures of convergence in internal coordinates in au.

	Criteria marked as inactive (o), active & met (*), and active & unmet ( ).

	----------------------------------------------------------------------------------------------
	   Step    Total Energy     Delta E     Max Force     RMS Force      Max Disp      RMS Disp
	----------------------------------------------------------------------------------------------
	  Convergence Criteria     1.00e-06 *    3.00e-04 *             o    1.20e-03 *             o
	----------------------------------------------------------------------------------------------
	    16    -169.62139336   -2.19e-07 *    1.17e-05 *    1.17e-05 o    1.44e-03      1.44e-03 o  ~
	----------------------------------------------------------------------------------------------

Next Geometry in Ang
	Fragment 1 (Ang)

	   Li   0.0000000000   0.0000000000   2.5645668637
	   Na   0.0000000000   0.0000000000  -0.7829177637

    Final optimized geometry and variables:
    Molecular point group: c2v
    Full point group: C_inf_v

    Geometry (in Angstrom), charge = 1, multiplicity = 2:

    LI           0.000000000000     0.000000000000     2.564185687173
    NA           0.000000000000     0.000000000000    -0.782536587149

    Psi4 stopped on: Thursday, 17 July 2025 12:51PM
    Psi4 wall time for execution: 0:00:19.79

*** Psi4 exiting successfully. Buy a developer a beer!
