                               Psi4 1.9.1 release

  ==> Input File <==

--------------------------------------------------------------------------
molecule {
1 2
He   0.00000        0.60000        0.00000
Be   0.00000       -0.60000        0.00000
}

set {
basis              cc-pvdz
reference          uks
maxiter            500
geom_maxiter       500
DAMPING_PERCENTAGE 1
guess              SAP
}

optimize('b3lyp')
--------------------------------------------------------------------------

    Molecular point group: c2v
  Charge       = 1
  Multiplicity = 2
  Basis Set: CC-PVDZ
    Blend: CC-PVDZ
  Basis Set: (CC-PVDZ AUX)
    Blend: DEF2-UNIVERSAL-JKFIT
  @DF-UKS Final Energy:   -17.20237584663211
    Total Energy =                        -17.2023758466321084
 Dipole X            :          0.0000000            0.0000000            0.0000000
 Dipole Y            :          0.0000000            0.0000000            0.0000000
 Dipole Z            :          0.0664918            0.3509073            0.4173991
 Magnitude           :                                                    0.4173991
    Molecular point group: c2v
  Basis Set: CC-PVDZ
    Blend: CC-PVDZ
  Basis Set: (CC-PVDZ AUX)
    Blend: DEF2-UNIVERSAL-JKFIT
  Basis Set: CC-PVDZ
    Blend: CC-PVDZ
  Basis Set: (CC-PVDZ AUX)
    Blend: DEF2-UNIVERSAL-JKFIT
  @DF-UKS Final Energy:   -17.22614055262211
    Total Energy =                        -17.2261405526221125
  Basis Set: CC-PVDZ
    Blend: CC-PVDZ
  Basis Set: (CC-PVDZ AUX)
    Blend: DEF2-UNIVERSAL-JKFIT
  Basis Set: CC-PVDZ
    Blend: CC-PVDZ
  @DF-UKS Final Energy:   -17.23279447317669
    Total Energy =                        -17.2327944731766856
  @DF-UKS Final Energy:   -17.23759895950285
    Total Energy =                        -17.2375989595028507
  @DF-UKS Final Energy:   -17.23971684284879
    Total Energy =                        -17.2397168428487859
  @DF-UKS Final Energy:   -17.24127192905645
    Total Energy =                        -17.2412719290564524
  @DF-UKS Final Energy:   -17.24241606324234
    Total Energy =                        -17.2424160632423380
  @DF-UKS Final Energy:   -17.24314519237966
    Total Energy =                        -17.2431451923796644
  @DF-UKS Final Energy:   -17.24339566667284
    Total Energy =                        -17.2433956666728392
  @DF-UKS Final Energy:   -17.24345937229377
    Total Energy =                        -17.2434593722937741
  Basis Set: (CC-PVDZ AUX)
    Blend: DEF2-UNIVERSAL-JKFIT
  Basis Set: CC-PVDZ
    Blend: CC-PVDZ
  Basis Set: (CC-PVDZ AUX)
    Blend: DEF2-UNIVERSAL-JKFIT
  @DF-UKS Final Energy:   -17.24346689491079
    Total Energy =                        -17.2434668949107888
  Basis Set: CC-PVDZ
    Blend: CC-PVDZ
  Basis Set: (CC-PVDZ AUX)
    Blend: DEF2-UNIVERSAL-JKFIT
  Charge       = 1
  Multiplicity = 2
  Basis Set: CC-PVDZ
    Blend: CC-PVDZ
  Basis Set: (CC-PVDZ AUX)
    Blend: DEF2-UNIVERSAL-JKFIT

    Orbital Energies [Eh]
    ---------------------

    Alpha Occupied:

       1A1    -4.516732     2A1    -0.876745     3A1    -0.554584

    Alpha Virtual:

       1B2    -0.350699     1B1    -0.350699     4A1    -0.342403
       2B1    -0.046480     2B2    -0.046480     5A1    -0.043307
       6A1    -0.025338     3B2     0.173666     3B1     0.173666
       1A2     0.174581     7A1     0.174581     8A1     0.186491
       9A1     1.070185     4B2     1.972804     4B1     1.972804
      10A1     2.011616

    Beta Occupied:

       1A1    -4.500730     2A1    -0.874479

    Beta Virtual:

       3A1    -0.415884     1B1    -0.280216     1B2    -0.280216
       4A1    -0.277667     2B2    -0.028284     2B1    -0.028284
       5A1    -0.020777     6A1    -0.007048     3B1     0.243611
       3B2     0.243611     7A1     0.248086     8A1     0.252667
       1A2     0.252679     9A1     1.073869     4B2     1.973994
       4B1     1.973994    10A1     2.014032

    Final Occupation by Irrep:
             A1    A2    B1    B2
    DOCC [     2,    0,    0,    0 ]
    SOCC [     1,    0,    0,    0 ]
    NA   [     3,    0,    0,    0 ]
    NB   [     2,    0,    0,    0 ]

  @DF-UKS Final Energy:   -17.24346778956181

   => Energetics <=

    Nuclear Repulsion Energy =              1.6700743933251883
    One-Electron Energy =                 -24.3851274520210843
    Two-Electron Energy =                   8.3975116515231161
    DFT Exchange-Correlation Energy =      -2.9259263823890316
    Empirical Dispersion Energy =           0.0000000000000000
    VV10 Nonlocal Energy =                  0.0000000000000000
    Total Energy =                        -17.2434677895618123

  UHF NO Occupations:
  HONO-2 :    1 A1 1.9999999
  HONO-1 :    2 A1 1.9999864
  HONO-0 :    3 A1 1.0000000
  LUNO+0 :    4 A1 0.0000136
  LUNO+1 :    5 A1 0.0000001
  LUNO+2 :    6 A1 0.0000000
  LUNO+3 :    7 A1 0.0000000

Computation Completed

Properties will be evaluated at   0.000000,   0.000000,   0.000000 [a0]

Properties computed using the SCF density matrix

 Multipole Moments:

 ------------------------------------------------------------------------------------
     Multipole            Electronic (a.u.)      Nuclear  (a.u.)        Total (a.u.)
 ------------------------------------------------------------------------------------

 L = 1.  Multiply by 2.5417464519 to convert [e a0] to [Debye]
 Dipole X            :          0.0000000            0.0000000            0.0000000
 Dipole Y            :          0.0000000            0.0000000            0.0000000
 Dipole Z            :         -2.0626348            0.7412530           -1.3213817
 Magnitude           :                                                    1.3213817

 ------------------------------------------------------------------------------------

*** tstop() called on Joses-MacBook-Pro-2.local at Thu Jul 17 12:25:33 2025
Module time:
	user time   =       0.65 seconds =       0.01 minutes
	system time =       3.27 seconds =       0.05 minutes
	total time  =          0 seconds =       0.00 minutes
Total time:
	user time   =      13.31 seconds =       0.22 minutes
	system time =      50.39 seconds =       0.84 minutes
	total time  =          6 seconds =       0.10 minutes

*** tstart() called on Joses-MacBook-Pro-2.local
*** at Thu Jul 17 12:25:33 2025

         ------------------------------------------------------------
                                   SCF GRAD
                          Rob Parrish, Justin Turney,
                       Andy Simmonett, and Alex Sokolov
         ------------------------------------------------------------

  ==> Geometry <==

    Molecular point group: c2v
    Full point group: C_inf_v

    Geometry (in Angstrom), charge = 1, multiplicity = 2:

       Center              X                  Y                   Z               Mass
    ------------   -----------------  -----------------  -----------------  -----------------
         HE           0.000000000000     0.000000000000     1.755287521660     4.002603254130
         BE           0.000000000000     0.000000000000    -0.779580207754     9.012183065000

  Nuclear repulsion =    1.670074393325188

  ==> Basis Set <==

  Basis Set: CC-PVDZ
    Blend: CC-PVDZ
    Number of shells: 9
    Number of basis functions: 19
    Number of Cartesian functions: 20
    Spherical Harmonics?: true
    Max angular momentum: 2

  ==> DFJKGrad: Density-Fitted SCF Gradients <==

    Gradient:                    1
    J tasked:                  Yes
    K tasked:                  Yes
    wK tasked:                  No
    OpenMP threads:              1
    Integrals threads:           1
    Memory [MiB]:              375
    Schwarz Cutoff:          1E-12
    Fitting Condition:       1E-10

   => Auxiliary Basis Set <=

  Basis Set: (CC-PVDZ AUX)
    Blend: DEF2-UNIVERSAL-JKFIT
    Number of shells: 26
    Number of basis functions: 74
    Number of Cartesian functions: 85
    Spherical Harmonics?: true
    Max angular momentum: 3

  ==> DFT Potential <==

   => LibXC <=

    Version 6.2.2
    S. Lehtola, C. Steigemann, M. J.T. Oliveira, and M. A.L. Marques.,  SoftwareX 7, 1â€“5 (2018) (10.1016/j.softx.2017.11.002)

   => Composite Functional: B3LYP <=

    B3LYP Hyb-GGA Exchange-Correlation Functional

    P. J. Stephens, F. J. Devlin, C. F. Chabalowski, and M. J. Frisch.,  J. Phys. Chem. 98, 11623 (1994) (10.1021/j100096a001)

    Deriv               =              1
    GGA                 =           TRUE
    Meta                =          FALSE

    Exchange Hybrid     =           TRUE
    MP2 Hybrid          =          FALSE

   => Exchange Functionals <=

    0.0800   Slater exchange
    0.7200         Becke 88

   => Exact (HF) Exchange <=

    0.2000               HF

   => Correlation Functionals <=

    0.1900   Vosko, Wilk & Nusair (VWN5_RPA)
    0.8100   Lee, Yang & Parr

   => LibXC Density Thresholds  <==

    XC_HYB_GGA_XC_B3LYP:  1.00E-15

   => Molecular Quadrature <=

    Radial Scheme          =       TREUTLER
    Pruning Scheme         =           NONE
    Nuclear Scheme         =       TREUTLER

    Blocking Scheme        =         OCTREE
    BS radius alpha        =              1
    Pruning alpha          =              1
    Radial Points          =             75
    Spherical Points       =            302
    Total Points           =          43626
    Total Blocks           =            391
    Max Points             =            256
    Max Functions          =             19
    Weights Tolerance      =       1.00E-15

  -Total Gradient:
     Atom            X                  Y                   Z
    ------   -----------------  -----------------  -----------------
       1       -0.000000000000    -0.000000000000    -0.000018236094
       2        0.000000000000     0.000000000000     0.000008312902

*** tstop() called on Joses-MacBook-Pro-2.local at Thu Jul 17 12:25:34 2025
Module time:
	user time   =       0.38 seconds =       0.01 minutes
	system time =       0.72 seconds =       0.01 minutes
	total time  =          1 seconds =       0.02 minutes
Total time:
	user time   =      13.70 seconds =       0.23 minutes
	system time =      51.11 seconds =       0.85 minutes
	total time  =          7 seconds =       0.12 minutes

    			-----------------------------------------

    			 OPTKING 3.0: for geometry optimizations

    			     By R.A. King, Bethel University

    			        with contributions from

    			    A.V. Copan, J. Cayton, A. Heide

    			-----------------------------------------

	                            ===> Fragment 1 <==

	 Z (Atomic Numbers)          Masses                          Geom
	       2.000000             4.002603          0.00000000  0.00000000  3.31701269
	       4.000000             9.012183          0.00000000  0.00000000 -1.47319309

	 - Coordinate -           - BOHR/RAD -       - ANG/DEG -
	 R(1,2)           =         4.790206           2.534868

	        --- Internal Coordinate Step in ANG or DEG, aJ/ANG or AJ/DEG ---
	-------------------------------------------------------------------------------
	           Coordinate      Previous         Force          Change          New
	           ----------      --------        ------          ------        ------
	               R(1,2)       2.53487        0.00011        0.00375       2.53861
	-------------------------------------------------------------------------------

	                                 ==> Convergence Check <==

	Measures of convergence in internal coordinates in au.

	Criteria marked as inactive (o), active & met (*), and active & unmet ( ).

	----------------------------------------------------------------------------------------------
	   Step    Total Energy     Delta E     Max Force     RMS Force      Max Disp      RMS Disp
	----------------------------------------------------------------------------------------------
	  Convergence Criteria     1.00e-06 *    3.00e-04 *             o    1.20e-03 *             o
	----------------------------------------------------------------------------------------------
	    12     -17.24346779   -8.95e-07 *    1.33e-05 *    1.33e-05 o    7.08e-03      7.08e-03 o  ~
	----------------------------------------------------------------------------------------------

Next Geometry in Ang
	Fragment 1 (Ang)

	   He   0.0000000000   0.0000000000   1.7571606800
	   Be   0.0000000000   0.0000000000  -0.7814533661

    Final optimized geometry and variables:
    Molecular point group: c2v
    Full point group: C_inf_v

    Geometry (in Angstrom), charge = 1, multiplicity = 2:

    HE           0.000000000000     0.000000000000     1.755287521660
    BE           0.000000000000     0.000000000000    -0.779580207754

    Psi4 stopped on: Thursday, 17 July 2025 12:25PM
    Psi4 wall time for execution: 0:00:07.35

*** Psi4 exiting successfully. Buy a developer a beer!
