                               Psi4 1.9.1 release

  ==> Input File <==

--------------------------------------------------------------------------
molecule {
1 2
S   0.00000        0.60000        0.00000
S   0.00000       -0.60000        0.00000
}

set {
basis              cc-pvdz
reference          uks
maxiter            500
geom_maxiter       500
DAMPING_PERCENTAGE 1
guess              SAP
}

optimize('b3lyp')
--------------------------------------------------------------------------

    Molecular point group: d2h
  Charge       = 1
  Multiplicity = 2
  Basis Set: CC-PVDZ
    Blend: CC-PVDZ
  Basis Set: (CC-PVDZ AUX)
    Blend: CC-PVDZ-JKFIT
  @DF-UKS Final Energy:  -794.95326110864528
    Total Energy =                       -794.9532611086452789
 Dipole X            :          0.0000000            0.0000000            0.0000000
 Dipole Y            :          0.0000000            0.0000000            0.0000000
 Dipole Z            :          0.0000000            0.0000000            0.0000000
 Magnitude           :                                                    0.0000000
    Molecular point group: d2h
  Basis Set: CC-PVDZ
    Blend: CC-PVDZ
  Basis Set: (CC-PVDZ AUX)
    Blend: CC-PVDZ-JKFIT
  Basis Set: CC-PVDZ
    Blend: CC-PVDZ
  Basis Set: (CC-PVDZ AUX)
    Blend: CC-PVDZ-JKFIT
  @DF-UKS Final Energy:  -794.99534021427473
    Total Energy =                       -794.9953402142747336
  Basis Set: CC-PVDZ
    Blend: CC-PVDZ
  Basis Set: (CC-PVDZ AUX)
    Blend: CC-PVDZ-JKFIT
  Basis Set: CC-PVDZ
    Blend: CC-PVDZ
  @DF-UKS Final Energy:  -795.07295398058909
    Total Energy =                       -795.0729539805889772
  @DF-UKS Final Energy:  -795.32139836732142
    Total Energy =                       -795.3213983673214216
  @DF-UKS Final Energy:  -795.79463338482299
    Total Energy =                       -795.7946333848231006
  @DF-UKS Final Energy:  -795.93729413114431
    Total Energy =                       -795.9372941311443128
  @DF-UKS Final Energy:  -796.01658858487929
    Total Energy =                       -796.0165885848791731
  @DF-UKS Final Energy:  -796.04011129704452
    Total Energy =                       -796.0401112970446320
  @DF-UKS Final Energy:  -796.04911238639363
    Total Energy =                       -796.0491123863936309
  @DF-UKS Final Energy:  -796.05129144620207
    Total Energy =                       -796.0512914462020717
  @DF-UKS Final Energy:  -796.05201081458688
    Total Energy =                       -796.0520108145869926
  @DF-UKS Final Energy:  -796.05211264620925
    Total Energy =                       -796.0521126462092525
  Basis Set: (CC-PVDZ AUX)
    Blend: CC-PVDZ-JKFIT
  Basis Set: CC-PVDZ
    Blend: CC-PVDZ
  Basis Set: (CC-PVDZ AUX)
    Blend: CC-PVDZ-JKFIT
  @DF-UKS Final Energy:  -796.05212935968916
    Total Energy =                       -796.0521293596891610
  Basis Set: CC-PVDZ
    Blend: CC-PVDZ
  Basis Set: (CC-PVDZ AUX)
    Blend: CC-PVDZ-JKFIT
  Charge       = 1
  Multiplicity = 2
  Basis Set: CC-PVDZ
    Blend: CC-PVDZ
  Basis Set: (CC-PVDZ AUX)
    Blend: CC-PVDZ-JKFIT

    Orbital Energies [Eh]
    ---------------------

    Alpha Occupied:

       1Ag   -89.260736     1B2u  -89.260735     2Ag    -8.319013
       2B2u   -8.318897     1B3u   -6.281434     1B1g   -6.281347
       3Ag    -6.279420     3B2u   -6.278367     1B1u   -6.278255
       1B3g   -6.278174     4Ag    -1.158857     4B2u   -0.915812
       5Ag    -0.692556     2B1u   -0.671514     2B3u   -0.658854
       2B3g   -0.524424

    Alpha Virtual:

       2B1g   -0.458262     5B2u   -0.258328     6Ag     0.011034
       3B1u    0.102277     3B3u    0.102470     6B2u    0.186062
       7Ag     0.188383     4B1u    0.201565     4B3u    0.201834
       1B2g    0.202341     8Ag     0.203908     3B3g    0.245616
       3B1g    0.247694     1Au     0.321081     7B2u    0.322552
       8B2u    0.428550     9Ag     0.548021     4B3g    0.579167
       4B1g    0.580053     9B2u    0.975981

    Beta Occupied:

       1Ag   -89.257427     1B2u  -89.257426     2Ag    -8.315687
       2B2u   -8.315557     1B3u   -6.279524     1B1g   -6.279436
       3Ag    -6.277584     3B2u   -6.276525     1B1u   -6.267123
       1B3g   -6.267033     4Ag    -1.144523     4B2u   -0.886829
       5Ag    -0.679481     2B3u   -0.652377     2B1u   -0.625494

    Beta Virtual:

       2B1g   -0.449148     2B3g   -0.419248     5B2u   -0.248023
       6Ag     0.016354     3B3u    0.105394     3B1u    0.126670
       6B2u    0.191274     7Ag     0.197100     4B3u    0.205382
       4B1u    0.226243     1B2g    0.229633     8Ag     0.230220
       3B1g    0.251630     3B3g    0.269982     7B2u    0.352556
       1Au     0.352620     8B2u    0.439526     9Ag     0.557435
       4B1g    0.583948     4B3g    0.608099     9B2u    0.987004

    Final Occupation by Irrep:
             Ag   B1g   B2g   B3g    Au   B1u   B2u   B3u
    DOCC [     5,    1,    0,    1,    0,    2,    4,    2 ]
    SOCC [     0,    0,    0,    1,    0,    0,    0,    0 ]
    NA   [     5,    1,    0,    2,    0,    2,    4,    2 ]
    NB   [     5,    1,    0,    1,    0,    2,    4,    2 ]

  @DF-UKS Final Energy:  -796.05213056153832

   => Energetics <=

    Nuclear Repulsion Energy =             73.2059391888946749
    One-Electron Energy =               -1235.0384754962335592
    Two-Electron Energy =                 406.8913163308755543
    DFT Exchange-Correlation Energy =     -41.1109105850750254
    Empirical Dispersion Energy =           0.0000000000000000
    VV10 Nonlocal Energy =                  0.0000000000000000
    Total Energy =                       -796.0521305615383199

  UHF NO Occupations:
  HONO-2 :    4B2u 1.9996253
  HONO-1 :    2B1u 1.9992788
  HONO-0 :    2B3g 1.0000000
  LUNO+0 :    3B1u 0.0007212
  LUNO+1 :    5B2u 0.0003747
  LUNO+2 :    6 Ag 0.0003014
  LUNO+3 :    3B3u 0.0000154

Computation Completed

Properties will be evaluated at   0.000000,   0.000000,   0.000000 [a0]

Properties computed using the SCF density matrix

 Multipole Moments:

 ------------------------------------------------------------------------------------
     Multipole            Electronic (a.u.)      Nuclear  (a.u.)        Total (a.u.)
 ------------------------------------------------------------------------------------

 L = 1.  Multiply by 2.5417464519 to convert [e a0] to [Debye]
 Dipole X            :          0.0000000            0.0000000            0.0000000
 Dipole Y            :          0.0000000            0.0000000            0.0000000
 Dipole Z            :          0.0000000            0.0000000            0.0000000
 Magnitude           :                                                    0.0000000

 ------------------------------------------------------------------------------------

*** tstop() called on Joses-MacBook-Pro-2.local at Thu Jul 17 15:49:44 2025
Module time:
	user time   =       6.73 seconds =       0.11 minutes
	system time =       2.15 seconds =       0.04 minutes
	total time  =          1 seconds =       0.02 minutes
Total time:
	user time   =     154.42 seconds =       2.57 minutes
	system time =      43.89 seconds =       0.73 minutes
	total time  =         19 seconds =       0.32 minutes

*** tstart() called on Joses-MacBook-Pro-2.local
*** at Thu Jul 17 15:49:44 2025

         ------------------------------------------------------------
                                   SCF GRAD
                          Rob Parrish, Justin Turney,
                       Andy Simmonett, and Alex Sokolov
         ------------------------------------------------------------

  ==> Geometry <==

    Molecular point group: d2h
    Full point group: D_inf_h

    Geometry (in Angstrom), charge = 1, multiplicity = 2:

       Center              X                  Y                   Z               Mass
    ------------   -----------------  -----------------  -----------------  -----------------
         S           -0.000000000000     0.925262126492     0.000000000000    31.972071174400
         S            0.000000000000    -0.925262126492     0.000000000000    31.972071174400

  Nuclear repulsion =   73.205939188894675

  ==> Basis Set <==

  Basis Set: CC-PVDZ
    Blend: CC-PVDZ
    Number of shells: 16
    Number of basis functions: 36
    Number of Cartesian functions: 38
    Spherical Harmonics?: true
    Max angular momentum: 2

  ==> DFJKGrad: Density-Fitted SCF Gradients <==

    Gradient:                    1
    J tasked:                  Yes
    K tasked:                  Yes
    wK tasked:                  No
    OpenMP threads:              1
    Integrals threads:           1
    Memory [MiB]:              375
    Schwarz Cutoff:          1E-12
    Fitting Condition:       1E-10

   => Auxiliary Basis Set <=

  Basis Set: (CC-PVDZ AUX)
    Blend: CC-PVDZ-JKFIT
    Number of shells: 72
    Number of basis functions: 224
    Number of Cartesian functions: 260
    Spherical Harmonics?: true
    Max angular momentum: 3

  ==> DFT Potential <==

   => LibXC <=

    Version 6.2.2
    S. Lehtola, C. Steigemann, M. J.T. Oliveira, and M. A.L. Marques.,  SoftwareX 7, 1â€“5 (2018) (10.1016/j.softx.2017.11.002)

   => Composite Functional: B3LYP <=

    B3LYP Hyb-GGA Exchange-Correlation Functional

    P. J. Stephens, F. J. Devlin, C. F. Chabalowski, and M. J. Frisch.,  J. Phys. Chem. 98, 11623 (1994) (10.1021/j100096a001)

    Deriv               =              1
    GGA                 =           TRUE
    Meta                =          FALSE

    Exchange Hybrid     =           TRUE
    MP2 Hybrid          =          FALSE

   => Exchange Functionals <=

    0.0800   Slater exchange
    0.7200         Becke 88

   => Exact (HF) Exchange <=

    0.2000               HF

   => Correlation Functionals <=

    0.1900   Vosko, Wilk & Nusair (VWN5_RPA)
    0.8100   Lee, Yang & Parr

   => LibXC Density Thresholds  <==

    XC_HYB_GGA_XC_B3LYP:  1.00E-15

   => Molecular Quadrature <=

    Radial Scheme          =       TREUTLER
    Pruning Scheme         =           NONE
    Nuclear Scheme         =       TREUTLER

    Blocking Scheme        =         OCTREE
    BS radius alpha        =              1
    Pruning alpha          =              1
    Radial Points          =             75
    Spherical Points       =            302
    Total Points           =          40196
    Total Blocks           =            374
    Max Points             =            252
    Max Functions          =             36
    Weights Tolerance      =       1.00E-15

  -Total Gradient:
     Atom            X                  Y                   Z
    ------   -----------------  -----------------  -----------------
       1        0.000000000000    -0.000147479561     0.000000000000
       2       -0.000000000000     0.000147479561     0.000000000000

*** tstop() called on Joses-MacBook-Pro-2.local at Thu Jul 17 15:49:44 2025
Module time:
	user time   =       2.46 seconds =       0.04 minutes
	system time =       1.29 seconds =       0.02 minutes
	total time  =          0 seconds =       0.00 minutes
Total time:
	user time   =     156.88 seconds =       2.61 minutes
	system time =      45.18 seconds =       0.75 minutes
	total time  =         19 seconds =       0.32 minutes

    			-----------------------------------------

    			 OPTKING 3.0: for geometry optimizations

    			     By R.A. King, Bethel University

    			        with contributions from

    			    A.V. Copan, J. Cayton, A. Heide

    			-----------------------------------------

	                            ===> Fragment 1 <==

	 Z (Atomic Numbers)          Masses                          Geom
	      16.000000            31.972071         -0.00000000  1.74849201  0.00000000
	      16.000000            31.972071          0.00000000 -1.74849201  0.00000000

	 - Coordinate -           - BOHR/RAD -       - ANG/DEG -
	 R(1,2)           =         3.496984           1.850524

	        --- Internal Coordinate Step in ANG or DEG, aJ/ANG or AJ/DEG ---
	-------------------------------------------------------------------------------
	           Coordinate      Previous         Force          Change          New
	           ----------      --------        ------          ------        ------
	               R(1,2)       1.85052        0.00122        0.00018       1.85070
	-------------------------------------------------------------------------------

	                                 ==> Convergence Check <==

	Measures of convergence in internal coordinates in au.

	Criteria marked as inactive (o), active & met (*), and active & unmet ( ).

	----------------------------------------------------------------------------------------------
	   Step    Total Energy     Delta E     Max Force     RMS Force      Max Disp      RMS Disp
	----------------------------------------------------------------------------------------------
	  Convergence Criteria     1.00e-06 *    3.00e-04 *             o    1.20e-03 *             o
	----------------------------------------------------------------------------------------------
	    14    -796.05213056   -1.20e-06      1.47e-04 *    1.47e-04 o    3.37e-04 *    3.37e-04 o  ~
	----------------------------------------------------------------------------------------------

Next Geometry in Ang
	Fragment 1 (Ang)

	    S  -0.0000000000   0.9253512165   0.0000000000
	    S   0.0000000000  -0.9253512165   0.0000000000

    Final optimized geometry and variables:
    Molecular point group: d2h
    Full point group: D_inf_h

    Geometry (in Angstrom), charge = 1, multiplicity = 2:

    S           -0.000000000000     0.925262126492     0.000000000000
    S            0.000000000000    -0.925262126492     0.000000000000

    Psi4 stopped on: Thursday, 17 July 2025 03:49PM
    Psi4 wall time for execution: 0:00:19.74

*** Psi4 exiting successfully. Buy a developer a beer!
