                               Psi4 1.9.1 release

  ==> Input File <==

--------------------------------------------------------------------------
molecule {
1 2
Be   0.00000        0.60000        0.00000
Si   0.00000       -0.60000        0.00000
}

set {
basis              cc-pvdz
reference          uks
maxiter            500
geom_maxiter       500
DAMPING_PERCENTAGE 1
guess              SAP
}

optimize('b3lyp')
--------------------------------------------------------------------------

    Molecular point group: c2v
  Charge       = 1
  Multiplicity = 2
  Basis Set: CC-PVDZ
    Blend: CC-PVDZ
  Basis Set: (CC-PVDZ AUX)
    Blend: CC-PVDZ-JKFIT + DEF2-UNIVERSAL-JKFIT
  @DF-UKS Final Energy:  -303.28572915138227
    Total Energy =                       -303.2857291513822702
 Dipole X            :          0.0000000            0.0000000            0.0000000
 Dipole Y            :          0.0000000            0.0000000            0.0000000
 Dipole Z            :          1.0130666           -0.8744053            0.1386614
 Magnitude           :                                                    0.1386614
    Molecular point group: c2v
  Basis Set: CC-PVDZ
    Blend: CC-PVDZ
  Basis Set: (CC-PVDZ AUX)
    Blend: CC-PVDZ-JKFIT + DEF2-UNIVERSAL-JKFIT
  Basis Set: CC-PVDZ
    Blend: CC-PVDZ
  Basis Set: (CC-PVDZ AUX)
    Blend: CC-PVDZ-JKFIT + DEF2-UNIVERSAL-JKFIT
  @DF-UKS Final Energy:  -303.43557418357500
    Total Energy =                       -303.4355741835749996
  Basis Set: CC-PVDZ
    Blend: CC-PVDZ
  Basis Set: (CC-PVDZ AUX)
    Blend: CC-PVDZ-JKFIT + DEF2-UNIVERSAL-JKFIT
  Basis Set: CC-PVDZ
    Blend: CC-PVDZ
  @DF-UKS Final Energy:  -303.56376138027673
    Total Energy =                       -303.5637613802767305
  @DF-UKS Final Energy:  -303.69748493461736
    Total Energy =                       -303.6974849346173642
  @DF-UKS Final Energy:  -303.82595211587778
    Total Energy =                       -303.8259521158777829
  @DF-UKS Final Energy:  -303.82922851953350
    Total Energy =                       -303.8292285195335012
  @DF-UKS Final Energy:  -303.83409353461479
    Total Energy =                       -303.8340935346147944
  @DF-UKS Final Energy:  -303.83475707911936
    Total Energy =                       -303.8347570791192993
  @DF-UKS Final Energy:  -303.83486245188431
    Total Energy =                       -303.8348624518843053
  @DF-UKS Final Energy:  -303.83488100762179
    Total Energy =                       -303.8348810076217887
  Basis Set: (CC-PVDZ AUX)
    Blend: CC-PVDZ-JKFIT + DEF2-UNIVERSAL-JKFIT
  Basis Set: CC-PVDZ
    Blend: CC-PVDZ
  Basis Set: (CC-PVDZ AUX)
    Blend: CC-PVDZ-JKFIT + DEF2-UNIVERSAL-JKFIT
  @DF-UKS Final Energy:  -303.83488463813120
    Total Energy =                       -303.8348846381312001
  Basis Set: CC-PVDZ
    Blend: CC-PVDZ
  Basis Set: (CC-PVDZ AUX)
    Blend: CC-PVDZ-JKFIT + DEF2-UNIVERSAL-JKFIT
  Charge       = 1
  Multiplicity = 2
  Basis Set: CC-PVDZ
    Blend: CC-PVDZ
  Basis Set: (CC-PVDZ AUX)
    Blend: CC-PVDZ-JKFIT + DEF2-UNIVERSAL-JKFIT

    Orbital Energies [Eh]
    ---------------------

    Alpha Occupied:

       1A1   -66.424231     2A1    -5.561396     3A1    -4.369660
       1B2    -3.923274     1B1    -3.919731     4A1    -3.916363
       5A1    -0.696221     6A1    -0.483041     2B1    -0.418455

    Alpha Virtual:

       2B2    -0.354693     7A1    -0.338851     3B1    -0.256577
       3B2    -0.245089     8A1    -0.128869     9A1    -0.055293
       4B1    -0.007770     4B2    -0.005328    10A1    -0.001125
       5B1     0.091031    11A1     0.099383     5B2     0.099880
       1A2     0.112699    12A1     0.116905     6B1     0.139710
       6B2     0.144777    13A1     0.214169     2A2     0.263489
      14A1     0.264845    15A1     0.387813     7B1     0.422213
       7B2     0.426386    16A1     0.580362

    Beta Occupied:

       1A1   -66.421384     2A1    -5.558177     3A1    -4.369401
       1B2    -3.921649     4A1    -3.914386     1B1    -3.909467
       5A1    -0.666023     6A1    -0.471931

    Beta Virtual:

       2B2    -0.347523     7A1    -0.338237     2B1    -0.322809
       3B2    -0.244494     3B1    -0.229318     8A1    -0.121774
       9A1    -0.046780     4B2    -0.006313    10A1    -0.002479
       4B1    -0.000868     5B2     0.102345    11A1     0.103175
       5B1     0.121537     6B2     0.147314    12A1     0.148313
       1A2     0.148369     6B1     0.166199    13A1     0.224322
       2A2     0.275202    14A1     0.275326    15A1     0.397602
       7B2     0.426201     7B1     0.441310    16A1     0.585549

    Final Occupation by Irrep:
             A1    A2    B1    B2
    DOCC [     6,    0,    1,    1 ]
    SOCC [     0,    0,    1,    0 ]
    NA   [     6,    0,    2,    1 ]
    NB   [     6,    0,    1,    1 ]

  @DF-UKS Final Energy:  -303.83488521195682

   => Energetics <=

    Nuclear Repulsion Energy =             12.8920517932547831
    One-Electron Energy =                -441.0428056853736507
    Two-Electron Energy =                 143.1753054606841147
    DFT Exchange-Correlation Energy =     -18.8594367805220493
    Empirical Dispersion Energy =           0.0000000000000000
    VV10 Nonlocal Energy =                  0.0000000000000000
    Total Energy =                       -303.8348852119568164

  UHF NO Occupations:
  HONO-2 :    5 A1 1.9990065
  HONO-1 :    6 A1 1.9982543
  HONO-0 :    2 B1 1.0000000
  LUNO+0 :    7 A1 0.0017457
  LUNO+1 :    8 A1 0.0009935
  LUNO+2 :    9 A1 0.0000000
  LUNO+3 :    3 B1 0.0000000

Computation Completed

Properties will be evaluated at   0.000000,   0.000000,   0.000000 [a0]

Properties computed using the SCF density matrix

 Multipole Moments:

 ------------------------------------------------------------------------------------
     Multipole            Electronic (a.u.)      Nuclear  (a.u.)        Total (a.u.)
 ------------------------------------------------------------------------------------

 L = 1.  Multiply by 2.5417464519 to convert [e a0] to [Debye]
 Dipole X            :          0.0000000            0.0000000            0.0000000
 Dipole Y            :          0.0000000            0.0000000            0.0000000
 Dipole Z            :          3.4497404           -1.6749376            1.7748028
 Magnitude           :                                                    1.7748028

 ------------------------------------------------------------------------------------

*** tstop() called on Joses-MacBook-Pro-2.local at Thu Jul 17 13:22:58 2025
Module time:
	user time   =       3.27 seconds =       0.05 minutes
	system time =       4.35 seconds =       0.07 minutes
	total time  =          1 seconds =       0.02 minutes
Total time:
	user time   =      53.70 seconds =       0.90 minutes
	system time =      82.15 seconds =       1.37 minutes
	total time  =         14 seconds =       0.23 minutes

*** tstart() called on Joses-MacBook-Pro-2.local
*** at Thu Jul 17 13:22:58 2025

         ------------------------------------------------------------
                                   SCF GRAD
                          Rob Parrish, Justin Turney,
                       Andy Simmonett, and Alex Sokolov
         ------------------------------------------------------------

  ==> Geometry <==

    Molecular point group: c2v
    Full point group: C_inf_v

    Geometry (in Angstrom), charge = 1, multiplicity = 2:

       Center              X                  Y                   Z               Mass
    ------------   -----------------  -----------------  -----------------  -----------------
         BE           0.000000000000     0.000000000000     1.738574251868     9.012183065000
         SI           0.000000000000     0.000000000000    -0.560045414943    27.976926534650

  Nuclear repulsion =   12.892051793254783

  ==> Basis Set <==

  Basis Set: CC-PVDZ
    Blend: CC-PVDZ
    Number of shells: 14
    Number of basis functions: 32
    Number of Cartesian functions: 34
    Spherical Harmonics?: true
    Max angular momentum: 2

  ==> DFJKGrad: Density-Fitted SCF Gradients <==

    Gradient:                    1
    J tasked:                  Yes
    K tasked:                  Yes
    wK tasked:                  No
    OpenMP threads:              1
    Integrals threads:           1
    Memory [MiB]:              375
    Schwarz Cutoff:          1E-12
    Fitting Condition:       1E-10

   => Auxiliary Basis Set <=

  Basis Set: (CC-PVDZ AUX)
    Blend: CC-PVDZ-JKFIT + DEF2-UNIVERSAL-JKFIT
    Number of shells: 53
    Number of basis functions: 163
    Number of Cartesian functions: 190
    Spherical Harmonics?: true
    Max angular momentum: 3

  ==> DFT Potential <==

   => LibXC <=

    Version 6.2.2
    S. Lehtola, C. Steigemann, M. J.T. Oliveira, and M. A.L. Marques.,  SoftwareX 7, 1â€“5 (2018) (10.1016/j.softx.2017.11.002)

   => Composite Functional: B3LYP <=

    B3LYP Hyb-GGA Exchange-Correlation Functional

    P. J. Stephens, F. J. Devlin, C. F. Chabalowski, and M. J. Frisch.,  J. Phys. Chem. 98, 11623 (1994) (10.1021/j100096a001)

    Deriv               =              1
    GGA                 =           TRUE
    Meta                =          FALSE

    Exchange Hybrid     =           TRUE
    MP2 Hybrid          =          FALSE

   => Exchange Functionals <=

    0.0800   Slater exchange
    0.7200         Becke 88

   => Exact (HF) Exchange <=

    0.2000               HF

   => Correlation Functionals <=

    0.1900   Vosko, Wilk & Nusair (VWN5_RPA)
    0.8100   Lee, Yang & Parr

   => LibXC Density Thresholds  <==

    XC_HYB_GGA_XC_B3LYP:  1.00E-15

   => Molecular Quadrature <=

    Radial Scheme          =       TREUTLER
    Pruning Scheme         =           NONE
    Nuclear Scheme         =       TREUTLER

    Blocking Scheme        =         OCTREE
    BS radius alpha        =              1
    Pruning alpha          =              1
    Radial Points          =             75
    Spherical Points       =            302
    Total Points           =          42505
    Total Blocks           =            392
    Max Points             =            256
    Max Functions          =             32
    Weights Tolerance      =       1.00E-15

  -Total Gradient:
     Atom            X                  Y                   Z
    ------   -----------------  -----------------  -----------------
       1        0.000000000000    -0.000000000000    -0.000044291369
       2        0.000000000000    -0.000000000000     0.000043696916

*** tstop() called on Joses-MacBook-Pro-2.local at Thu Jul 17 13:22:58 2025
Module time:
	user time   =       0.71 seconds =       0.01 minutes
	system time =       1.92 seconds =       0.03 minutes
	total time  =          0 seconds =       0.00 minutes
Total time:
	user time   =      54.41 seconds =       0.91 minutes
	system time =      84.08 seconds =       1.40 minutes
	total time  =         14 seconds =       0.23 minutes

    			-----------------------------------------

    			 OPTKING 3.0: for geometry optimizations

    			     By R.A. King, Bethel University

    			        with contributions from

    			    A.V. Copan, J. Cayton, A. Heide

    			-----------------------------------------

	                            ===> Fragment 1 <==

	 Z (Atomic Numbers)          Masses                          Geom
	       4.000000             9.012183          0.00000000  0.00000000  3.28542918
	      14.000000            27.976927          0.00000000  0.00000000 -1.05833245

	 - Coordinate -           - BOHR/RAD -       - ANG/DEG -
	 R(1,2)           =         4.343762           2.298620

	        --- Internal Coordinate Step in ANG or DEG, aJ/ANG or AJ/DEG ---
	-------------------------------------------------------------------------------
	           Coordinate      Previous         Force          Change          New
	           ----------      --------        ------          ------        ------
	               R(1,2)       2.29862        0.00036        0.00041       2.29903
	-------------------------------------------------------------------------------

	                                 ==> Convergence Check <==

	Measures of convergence in internal coordinates in au.

	Criteria marked as inactive (o), active & met (*), and active & unmet ( ).

	----------------------------------------------------------------------------------------------
	   Step    Total Energy     Delta E     Max Force     RMS Force      Max Disp      RMS Disp
	----------------------------------------------------------------------------------------------
	  Convergence Criteria     1.00e-06 *    3.00e-04 *             o    1.20e-03 *             o
	----------------------------------------------------------------------------------------------
	    12    -303.83488521   -5.74e-07 *    4.40e-05 *    4.40e-05 o    7.76e-04 *    7.76e-04 o  ~
	----------------------------------------------------------------------------------------------

Next Geometry in Ang
	Fragment 1 (Ang)

	   Be   0.0000000000   0.0000000000   1.7387796647
	   Si   0.0000000000   0.0000000000  -0.5602508278

    Final optimized geometry and variables:
    Molecular point group: c2v
    Full point group: C_inf_v

    Geometry (in Angstrom), charge = 1, multiplicity = 2:

    BE           0.000000000000     0.000000000000     1.738574251868
    SI           0.000000000000     0.000000000000    -0.560045414943

    Psi4 stopped on: Thursday, 17 July 2025 01:22PM
    Psi4 wall time for execution: 0:00:14.37

*** Psi4 exiting successfully. Buy a developer a beer!
