                               Psi4 1.9.1 release

  ==> Input File <==

--------------------------------------------------------------------------
molecule {
1 2
Ne   0.00000        0.60000        0.00000
Si   0.00000       -0.60000        0.00000
}

set {
basis              cc-pvdz
reference          uks
maxiter            500
geom_maxiter       500
DAMPING_PERCENTAGE 1
guess              SAP
}

optimize('b3lyp')
--------------------------------------------------------------------------

    Molecular point group: c2v
  Charge       = 1
  Multiplicity = 2
  Basis Set: CC-PVDZ
    Blend: CC-PVDZ
  Basis Set: (CC-PVDZ AUX)
    Blend: CC-PVDZ-JKFIT
  @DF-UKS Final Energy:  -417.53139056967768
    Total Energy =                       -417.5313905696776260
 Dipole X            :          0.0000000            0.0000000            0.0000000
 Dipole Y            :          0.0000000            0.0000000            0.0000000
 Dipole Z            :          0.4055999           -0.0059043            0.3996956
 Magnitude           :                                                    0.3996956
    Molecular point group: c2v
  Basis Set: CC-PVDZ
    Blend: CC-PVDZ
  Basis Set: (CC-PVDZ AUX)
    Blend: CC-PVDZ-JKFIT
  Basis Set: CC-PVDZ
    Blend: CC-PVDZ
  Basis Set: (CC-PVDZ AUX)
    Blend: CC-PVDZ-JKFIT
  @DF-UKS Final Energy:  -417.74580967350369
    Total Energy =                       -417.7458096735036861
  Basis Set: CC-PVDZ
    Blend: CC-PVDZ
  Basis Set: (CC-PVDZ AUX)
    Blend: CC-PVDZ-JKFIT
  Basis Set: CC-PVDZ
    Blend: CC-PVDZ
  @DF-UKS Final Energy:  -417.87044344959327
    Total Energy =                       -417.8704434495932674
  @DF-UKS Final Energy:  -417.93955779712780
    Total Energy =                       -417.9395577971278044
  @DF-UKS Final Energy:  -417.97605845304912
    Total Energy =                       -417.9760584530491201
  @DF-UKS Final Energy:  -417.99463313565627
    Total Energy =                       -417.9946331356562723
  @DF-UKS Final Energy:  -418.00345856038700
    Total Energy =                       -418.0034585603870028
  @DF-UKS Final Energy:  -418.00729900528228
    Total Energy =                       -418.0072990052822774
  @DF-UKS Final Energy:  -418.00874150643830
    Total Energy =                       -418.0087415064382981
  @DF-UKS Final Energy:  -418.00908606374736
    Total Energy =                       -418.0090860637474179
  @DF-UKS Final Energy:  -418.00920323625928
    Total Energy =                       -418.0092032362593386
  @DF-UKS Final Energy:  -418.00922241888503
    Total Energy =                       -418.0092224188850309
  Basis Set: (CC-PVDZ AUX)
    Blend: CC-PVDZ-JKFIT
  Basis Set: CC-PVDZ
    Blend: CC-PVDZ
  Basis Set: (CC-PVDZ AUX)
    Blend: CC-PVDZ-JKFIT
  @DF-UKS Final Energy:  -418.00922572782372
    Total Energy =                       -418.0092257278237184
  Basis Set: CC-PVDZ
    Blend: CC-PVDZ
  Basis Set: (CC-PVDZ AUX)
    Blend: CC-PVDZ-JKFIT
  Charge       = 1
  Multiplicity = 2
  Basis Set: CC-PVDZ
    Blend: CC-PVDZ
  Basis Set: (CC-PVDZ AUX)
    Blend: CC-PVDZ-JKFIT

    Orbital Energies [Eh]
    ---------------------

    Alpha Occupied:

       1A1   -66.531311     2A1   -31.232389     3A1    -5.663407
       1B2    -4.023752     4A1    -4.023652     1B1    -4.019188
       5A1    -1.691849     6A1    -0.819899     2B2    -0.795630
       2B1    -0.795345     7A1    -0.726539     3B1    -0.469234

    Alpha Virtual:

       3B2    -0.395007     8A1    -0.378402     9A1     0.002691
      10A1     0.053041     4B1     0.056099     1A2     0.060360
       5B1     0.060580     4B2     0.064044    11A1     0.067257
       5B2     0.074615    12A1     0.115751     6B2     1.142148
       6B1     1.143352    13A1     1.222329    14A1     1.800939
       7B2     4.464993     7B1     4.465427    15A1     4.468838
       2A2     4.469737    16A1     4.469802

    Beta Occupied:

       1A1   -66.527553     2A1   -31.232289     3A1    -5.659243
       1B2    -4.021653     4A1    -4.021545     1B1    -4.005258
       5A1    -1.691713     6A1    -0.817013     2B2    -0.795602
       2B1    -0.794528     7A1    -0.691912

    Beta Virtual:

       3B2    -0.384700     8A1    -0.367484     3B1    -0.347315
       9A1     0.013725    10A1     0.058813     4B2     0.066872
       5B2     0.078111     4B1     0.089147    11A1     0.102377
       5B1     0.107526     1A2     0.108594    12A1     0.135410
       6B2     1.142157     6B1     1.144208    13A1     1.222712
      14A1     1.802046     7B2     4.464907     7B1     4.465631
      15A1     4.468777     2A2     4.470036    16A1     4.470161

    Final Occupation by Irrep:
             A1    A2    B1    B2
    DOCC [     7,    0,    2,    2 ]
    SOCC [     0,    0,    1,    0 ]
    NA   [     7,    0,    3,    2 ]
    NB   [     7,    0,    2,    2 ]

  @DF-UKS Final Energy:  -418.00922632771977

   => Energetics <=

    Nuclear Repulsion Energy =             30.2991394359670849
    One-Electron Energy =                -636.5313745268649654
    Two-Electron Energy =                 214.8826194843379653
    DFT Exchange-Correlation Energy =     -26.6596107211598046
    Empirical Dispersion Energy =           0.0000000000000000
    VV10 Nonlocal Energy =                  0.0000000000000000
    Total Energy =                       -418.0092263277197731

  UHF NO Occupations:
  HONO-2 :    6 A1 1.9999960
  HONO-1 :    7 A1 1.9981498
  HONO-0 :    3 B1 1.0000000
  LUNO+0 :    8 A1 0.0018502
  LUNO+1 :    9 A1 0.0000040
  LUNO+2 :    4 B1 0.0000010
  LUNO+3 :    3 B2 0.0000003

Computation Completed

Properties will be evaluated at   0.000000,   0.000000,   0.000000 [a0]

Properties computed using the SCF density matrix

 Multipole Moments:

 ------------------------------------------------------------------------------------
     Multipole            Electronic (a.u.)      Nuclear  (a.u.)        Total (a.u.)
 ------------------------------------------------------------------------------------

 L = 1.  Multiply by 2.5417464519 to convert [e a0] to [Debye]
 Dipole X            :          0.0000000            0.0000000            0.0000000
 Dipole Y            :          0.0000000            0.0000000            0.0000000
 Dipole Z            :         -1.5679155           -0.0120306           -1.5799461
 Magnitude           :                                                    1.5799461

 ------------------------------------------------------------------------------------

*** tstop() called on Joses-MacBook-Pro-2.local at Thu Jul 17 14:40:33 2025
Module time:
	user time   =       3.48 seconds =       0.06 minutes
	system time =       4.09 seconds =       0.07 minutes
	total time  =          1 seconds =       0.02 minutes
Total time:
	user time   =      57.99 seconds =       0.97 minutes
	system time =      83.67 seconds =       1.39 minutes
	total time  =         14 seconds =       0.23 minutes

*** tstart() called on Joses-MacBook-Pro-2.local
*** at Thu Jul 17 14:40:33 2025

         ------------------------------------------------------------
                                   SCF GRAD
                          Rob Parrish, Justin Turney,
                       Andy Simmonett, and Alex Sokolov
         ------------------------------------------------------------

  ==> Geometry <==

    Molecular point group: c2v
    Full point group: C_inf_v

    Geometry (in Angstrom), charge = 1, multiplicity = 2:

       Center              X                  Y                   Z               Mass
    ------------   -----------------  -----------------  -----------------  -----------------
         NE           0.000000000000     0.000000000000     1.426050457085    19.992440176200
         SI           0.000000000000     0.000000000000    -1.019062205285    27.976926534650

  Nuclear repulsion =   30.299139435967085

  ==> Basis Set <==

  Basis Set: CC-PVDZ
    Blend: CC-PVDZ
    Number of shells: 14
    Number of basis functions: 32
    Number of Cartesian functions: 34
    Spherical Harmonics?: true
    Max angular momentum: 2

  ==> DFJKGrad: Density-Fitted SCF Gradients <==

    Gradient:                    1
    J tasked:                  Yes
    K tasked:                  Yes
    wK tasked:                  No
    OpenMP threads:              1
    Integrals threads:           1
    Memory [MiB]:              375
    Schwarz Cutoff:          1E-12
    Fitting Condition:       1E-10

   => Auxiliary Basis Set <=

  Basis Set: (CC-PVDZ AUX)
    Blend: CC-PVDZ-JKFIT
    Number of shells: 60
    Number of basis functions: 182
    Number of Cartesian functions: 211
    Spherical Harmonics?: true
    Max angular momentum: 3

  ==> DFT Potential <==

   => LibXC <=

    Version 6.2.2
    S. Lehtola, C. Steigemann, M. J.T. Oliveira, and M. A.L. Marques.,  SoftwareX 7, 1â€“5 (2018) (10.1016/j.softx.2017.11.002)

   => Composite Functional: B3LYP <=

    B3LYP Hyb-GGA Exchange-Correlation Functional

    P. J. Stephens, F. J. Devlin, C. F. Chabalowski, and M. J. Frisch.,  J. Phys. Chem. 98, 11623 (1994) (10.1021/j100096a001)

    Deriv               =              1
    GGA                 =           TRUE
    Meta                =          FALSE

    Exchange Hybrid     =           TRUE
    MP2 Hybrid          =          FALSE

   => Exchange Functionals <=

    0.0800   Slater exchange
    0.7200         Becke 88

   => Exact (HF) Exchange <=

    0.2000               HF

   => Correlation Functionals <=

    0.1900   Vosko, Wilk & Nusair (VWN5_RPA)
    0.8100   Lee, Yang & Parr

   => LibXC Density Thresholds  <==

    XC_HYB_GGA_XC_B3LYP:  1.00E-15

   => Molecular Quadrature <=

    Radial Scheme          =       TREUTLER
    Pruning Scheme         =           NONE
    Nuclear Scheme         =       TREUTLER

    Blocking Scheme        =         OCTREE
    BS radius alpha        =              1
    Pruning alpha          =              1
    Radial Points          =             75
    Spherical Points       =            302
    Total Points           =          42997
    Total Blocks           =            389
    Max Points             =            255
    Max Functions          =             32
    Weights Tolerance      =       1.00E-15

  -Total Gradient:
     Atom            X                  Y                   Z
    ------   -----------------  -----------------  -----------------
       1        0.000000000000     0.000000000000    -0.000045872351
       2        0.000000000000     0.000000000000     0.000033139032

*** tstop() called on Joses-MacBook-Pro-2.local at Thu Jul 17 14:40:33 2025
Module time:
	user time   =       1.01 seconds =       0.02 minutes
	system time =       1.65 seconds =       0.03 minutes
	total time  =          0 seconds =       0.00 minutes
Total time:
	user time   =      59.00 seconds =       0.98 minutes
	system time =      85.33 seconds =       1.42 minutes
	total time  =         14 seconds =       0.23 minutes

    			-----------------------------------------

    			 OPTKING 3.0: for geometry optimizations

    			     By R.A. King, Bethel University

    			        with contributions from

    			    A.V. Copan, J. Cayton, A. Heide

    			-----------------------------------------

	                            ===> Fragment 1 <==

	 Z (Atomic Numbers)          Masses                          Geom
	      10.000000            19.992440          0.00000000  0.00000000  2.69484480
	      14.000000            27.976927          0.00000000  0.00000000 -1.92574847

	 - Coordinate -           - BOHR/RAD -       - ANG/DEG -
	 R(1,2)           =         4.620593           2.445113

	        --- Internal Coordinate Step in ANG or DEG, aJ/ANG or AJ/DEG ---
	-------------------------------------------------------------------------------
	           Coordinate      Previous         Force          Change          New
	           ----------      --------        ------          ------        ------
	               R(1,2)       2.44511        0.00033        0.00139       2.44650
	-------------------------------------------------------------------------------

	                                 ==> Convergence Check <==

	Measures of convergence in internal coordinates in au.

	Criteria marked as inactive (o), active & met (*), and active & unmet ( ).

	----------------------------------------------------------------------------------------------
	   Step    Total Energy     Delta E     Max Force     RMS Force      Max Disp      RMS Disp
	----------------------------------------------------------------------------------------------
	  Convergence Criteria     1.00e-06 *    3.00e-04 *             o    1.20e-03 *             o
	----------------------------------------------------------------------------------------------
	    14    -418.00922633   -6.00e-07 *    3.95e-05 *    3.95e-05 o    2.62e-03      2.62e-03 o  ~
	----------------------------------------------------------------------------------------------

Next Geometry in Ang
	Fragment 1 (Ang)

	   Ne   0.0000000000   0.0000000000   1.4267429633
	   Si   0.0000000000   0.0000000000  -1.0197547115

    Final optimized geometry and variables:
    Molecular point group: c2v
    Full point group: C_inf_v

    Geometry (in Angstrom), charge = 1, multiplicity = 2:

    NE           0.000000000000     0.000000000000     1.426050457085
    SI           0.000000000000     0.000000000000    -1.019062205285

    Psi4 stopped on: Thursday, 17 July 2025 02:40PM
    Psi4 wall time for execution: 0:00:15.41

*** Psi4 exiting successfully. Buy a developer a beer!
