                               Psi4 1.9.1 release

  ==> Input File <==

--------------------------------------------------------------------------
molecule {
1 2
C   0.00000        0.60000        0.00000
O   0.00000       -0.60000        0.00000
}

set {
basis              cc-pvdz
reference          uks
maxiter            500
geom_maxiter       500
DAMPING_PERCENTAGE 1
guess              SAP
}

optimize('b3lyp')
--------------------------------------------------------------------------

    Molecular point group: c2v
  Charge       = 1
  Multiplicity = 2
  Basis Set: CC-PVDZ
    Blend: CC-PVDZ
  Basis Set: (CC-PVDZ AUX)
    Blend: CC-PVDZ-JKFIT
  @DF-UKS Final Energy:  -112.79147402681399
    Total Energy =                       -112.7914740268139866
 Dipole X            :          0.0000000            0.0000000            0.0000000
 Dipole Y            :          0.0000000            0.0000000            0.0000000
 Dipole Z            :          1.1132227           -0.0024716            1.1107511
 Magnitude           :                                                    1.1107511
    Molecular point group: c2v
  Basis Set: CC-PVDZ
    Blend: CC-PVDZ
  Basis Set: (CC-PVDZ AUX)
    Blend: CC-PVDZ-JKFIT
  Basis Set: CC-PVDZ
    Blend: CC-PVDZ
  Basis Set: (CC-PVDZ AUX)
    Blend: CC-PVDZ-JKFIT
  @DF-UKS Final Energy:  -112.80475245512716
    Total Energy =                       -112.8047524551271579
  Basis Set: CC-PVDZ
    Blend: CC-PVDZ
  Basis Set: (CC-PVDZ AUX)
    Blend: CC-PVDZ-JKFIT
  Basis Set: CC-PVDZ
    Blend: CC-PVDZ
  @DF-UKS Final Energy:  -112.80481836976278
    Total Energy =                       -112.8048183697627849
  @DF-UKS Final Energy:  -112.80482689083600
    Total Energy =                       -112.8048268908359972
  Basis Set: (CC-PVDZ AUX)
    Blend: CC-PVDZ-JKFIT
  Basis Set: CC-PVDZ
    Blend: CC-PVDZ
  Basis Set: (CC-PVDZ AUX)
    Blend: CC-PVDZ-JKFIT
  @DF-UKS Final Energy:  -112.80482793652372
    Total Energy =                       -112.8048279365237221
  Basis Set: CC-PVDZ
    Blend: CC-PVDZ
  Basis Set: (CC-PVDZ AUX)
    Blend: CC-PVDZ-JKFIT
  Charge       = 1
  Multiplicity = 2
  Basis Set: CC-PVDZ
    Blend: CC-PVDZ
  Basis Set: (CC-PVDZ AUX)
    Blend: CC-PVDZ-JKFIT

    Orbital Energies [Eh]
    ---------------------

    Alpha Occupied:

       1A1   -19.674526     2A1   -10.815948     3A1    -1.578200
       4A1    -0.970215     1B2    -0.865637     1B1    -0.865637
       5A1    -0.865350

    Alpha Virtual:

       2B2    -0.433429     2B1    -0.433429     6A1    -0.070910
       3B1     0.104072     3B2     0.104072     7A1     0.140788
       8A1     0.342293     9A1     0.492256     4B2     0.616468
       4B1     0.616468    10A1     0.688776     1A2     0.688776
       5B2     0.859466     5B1     0.859466    11A1     1.303188
      12A1     1.580744    13A1     2.198906     2A2     2.198906
       6B2     2.660073     6B1     2.660073    14A1     3.085363

    Beta Occupied:

       1A1   -19.675191     2A1   -10.792206     3A1    -1.570516
       4A1    -0.935364     1B2    -0.861126     1B1    -0.861126

    Beta Virtual:

       5A1    -0.649644     2B2    -0.392359     2B1    -0.392359
       6A1    -0.051825     3B1     0.121439     3B2     0.121439
       7A1     0.213845     8A1     0.379983     9A1     0.504603
       4B2     0.611790     4B1     0.611790    10A1     0.727826
       1A2     0.727826     5B2     0.921323     5B1     0.921323
      11A1     1.321881    12A1     1.628786    13A1     2.189416
       2A2     2.189416     6B2     2.673187     6B1     2.673187
      14A1     3.095696

    Final Occupation by Irrep:
             A1    A2    B1    B2
    DOCC [     4,    0,    1,    1 ]
    SOCC [     1,    0,    0,    0 ]
    NA   [     5,    0,    1,    1 ]
    NB   [     4,    0,    1,    1 ]

  @DF-UKS Final Energy:  -112.80482806227006

   => Energetics <=

    Nuclear Repulsion Energy =             22.7231782875334467
    One-Electron Energy =                -192.8586753541061967
    Two-Electron Energy =                  68.2660031469224862
    DFT Exchange-Correlation Energy =     -10.9353341426197890
    Empirical Dispersion Energy =           0.0000000000000000
    VV10 Nonlocal Energy =                  0.0000000000000000
    Total Energy =                       -112.8048280622700617

  UHF NO Occupations:
  HONO-2 :    1 B2 1.9964430
  HONO-1 :    1 B1 1.9964430
  HONO-0 :    5 A1 1.0000000
  LUNO+0 :    2 B1 0.0035570
  LUNO+1 :    2 B2 0.0035570
  LUNO+2 :    6 A1 0.0002404
  LUNO+3 :    7 A1 0.0000181

Computation Completed

Properties will be evaluated at   0.000000,   0.000000,   0.000000 [a0]

Properties computed using the SCF density matrix

 Multipole Moments:

 ------------------------------------------------------------------------------------
     Multipole            Electronic (a.u.)      Nuclear  (a.u.)        Total (a.u.)
 ------------------------------------------------------------------------------------

 L = 1.  Multiply by 2.5417464519 to convert [e a0] to [Debye]
 Dipole X            :          0.0000000            0.0000000            0.0000000
 Dipole Y            :          0.0000000            0.0000000            0.0000000
 Dipole Z            :          1.0674245           -0.0023023            1.0651221
 Magnitude           :                                                    1.0651221

 ------------------------------------------------------------------------------------

*** tstop() called on Joses-MacBook-Pro-2.local at Thu Jul 17 13:41:05 2025
Module time:
	user time   =       2.66 seconds =       0.04 minutes
	system time =       3.03 seconds =       0.05 minutes
	total time  =          0 seconds =       0.00 minutes
Total time:
	user time   =      21.27 seconds =       0.35 minutes
	system time =      31.82 seconds =       0.53 minutes
	total time  =          5 seconds =       0.08 minutes

*** tstart() called on Joses-MacBook-Pro-2.local
*** at Thu Jul 17 13:41:05 2025

         ------------------------------------------------------------
                                   SCF GRAD
                          Rob Parrish, Justin Turney,
                       Andy Simmonett, and Alex Sokolov
         ------------------------------------------------------------

  ==> Geometry <==

    Molecular point group: c2v
    Full point group: C_inf_v

    Geometry (in Angstrom), charge = 1, multiplicity = 2:

       Center              X                  Y                   Z               Mass
    ------------   -----------------  -----------------  -----------------  -----------------
         C            0.000000000000     0.000000000000     0.638669347557    12.000000000000
         O            0.000000000000     0.000000000000    -0.479154303288    15.994914619570

  Nuclear repulsion =   22.723178287533447

  ==> Basis Set <==

  Basis Set: CC-PVDZ
    Blend: CC-PVDZ
    Number of shells: 12
    Number of basis functions: 28
    Number of Cartesian functions: 30
    Spherical Harmonics?: true
    Max angular momentum: 2

  ==> DFJKGrad: Density-Fitted SCF Gradients <==

    Gradient:                    1
    J tasked:                  Yes
    K tasked:                  Yes
    wK tasked:                  No
    OpenMP threads:              1
    Integrals threads:           1
    Memory [MiB]:              375
    Schwarz Cutoff:          1E-12
    Fitting Condition:       1E-10

   => Auxiliary Basis Set <=

  Basis Set: (CC-PVDZ AUX)
    Blend: CC-PVDZ-JKFIT
    Number of shells: 48
    Number of basis functions: 140
    Number of Cartesian functions: 162
    Spherical Harmonics?: true
    Max angular momentum: 3

  ==> DFT Potential <==

   => LibXC <=

    Version 6.2.2
    S. Lehtola, C. Steigemann, M. J.T. Oliveira, and M. A.L. Marques.,  SoftwareX 7, 1â€“5 (2018) (10.1016/j.softx.2017.11.002)

   => Composite Functional: B3LYP <=

    B3LYP Hyb-GGA Exchange-Correlation Functional

    P. J. Stephens, F. J. Devlin, C. F. Chabalowski, and M. J. Frisch.,  J. Phys. Chem. 98, 11623 (1994) (10.1021/j100096a001)

    Deriv               =              1
    GGA                 =           TRUE
    Meta                =          FALSE

    Exchange Hybrid     =           TRUE
    MP2 Hybrid          =          FALSE

   => Exchange Functionals <=

    0.0800   Slater exchange
    0.7200         Becke 88

   => Exact (HF) Exchange <=

    0.2000               HF

   => Correlation Functionals <=

    0.1900   Vosko, Wilk & Nusair (VWN5_RPA)
    0.8100   Lee, Yang & Parr

   => LibXC Density Thresholds  <==

    XC_HYB_GGA_XC_B3LYP:  1.00E-15

   => Molecular Quadrature <=

    Radial Scheme          =       TREUTLER
    Pruning Scheme         =           NONE
    Nuclear Scheme         =       TREUTLER

    Blocking Scheme        =         OCTREE
    BS radius alpha        =              1
    Pruning alpha          =              1
    Radial Points          =             75
    Spherical Points       =            302
    Total Points           =          42735
    Total Blocks           =            383
    Max Points             =            253
    Max Functions          =             28
    Weights Tolerance      =       1.00E-15

  -Total Gradient:
     Atom            X                  Y                   Z
    ------   -----------------  -----------------  -----------------
       1        0.000000000000     0.000000000000     0.000225601720
       2        0.000000000000    -0.000000000000    -0.000216337771

*** tstop() called on Joses-MacBook-Pro-2.local at Thu Jul 17 13:41:06 2025
Module time:
	user time   =       0.66 seconds =       0.01 minutes
	system time =       1.20 seconds =       0.02 minutes
	total time  =          1 seconds =       0.02 minutes
Total time:
	user time   =      21.93 seconds =       0.37 minutes
	system time =      33.03 seconds =       0.55 minutes
	total time  =          6 seconds =       0.10 minutes

    			-----------------------------------------

    			 OPTKING 3.0: for geometry optimizations

    			     By R.A. King, Bethel University

    			        with contributions from

    			    A.V. Copan, J. Cayton, A. Heide

    			-----------------------------------------

	                            ===> Fragment 1 <==

	 Z (Atomic Numbers)          Masses                          Geom
	       6.000000            12.000000          0.00000000  0.00000000  1.20691015
	       8.000000            15.994915          0.00000000  0.00000000 -0.90547041

	 - Coordinate -           - BOHR/RAD -       - ANG/DEG -
	 R(1,2)           =         2.112381           1.117824

	        --- Internal Coordinate Step in ANG or DEG, aJ/ANG or AJ/DEG ---
	-------------------------------------------------------------------------------
	           Coordinate      Previous         Force          Change          New
	           ----------      --------        ------          ------        ------
	               R(1,2)       1.11782       -0.00182       -0.00009       1.11774
	-------------------------------------------------------------------------------

	                                 ==> Convergence Check <==

	Measures of convergence in internal coordinates in au.

	Criteria marked as inactive (o), active & met (*), and active & unmet ( ).

	----------------------------------------------------------------------------------------------
	   Step    Total Energy     Delta E     Max Force     RMS Force      Max Disp      RMS Disp
	----------------------------------------------------------------------------------------------
	  Convergence Criteria     1.00e-06 *    3.00e-04 *             o    1.20e-03 *             o
	----------------------------------------------------------------------------------------------
	     6    -112.80482806   -1.26e-07 *    2.21e-04 *    2.21e-04 o    1.67e-04 *    1.67e-04 o  ~
	----------------------------------------------------------------------------------------------

Next Geometry in Ang
	Fragment 1 (Ang)

	    C   0.0000000000   0.0000000000   0.6386250408
	    O   0.0000000000   0.0000000000  -0.4791099966

    Final optimized geometry and variables:
    Molecular point group: c2v
    Full point group: C_inf_v

    Geometry (in Angstrom), charge = 1, multiplicity = 2:

    C            0.000000000000     0.000000000000     0.638669347557
    O            0.000000000000     0.000000000000    -0.479154303288

    Psi4 stopped on: Thursday, 17 July 2025 01:41PM
    Psi4 wall time for execution: 0:00:05.85

*** Psi4 exiting successfully. Buy a developer a beer!
