                               Psi4 1.9.1 release

  ==> Input File <==

--------------------------------------------------------------------------
molecule {
1 2
Si   0.00000        0.60000        0.00000
S   0.00000       -0.60000        0.00000
}

set {
basis              cc-pvdz
reference          uks
maxiter            500
geom_maxiter       500
DAMPING_PERCENTAGE 1
guess              SAP
}

optimize('b3lyp')
--------------------------------------------------------------------------

    Molecular point group: c2v
  Charge       = 1
  Multiplicity = 2
  Basis Set: CC-PVDZ
    Blend: CC-PVDZ
  Basis Set: (CC-PVDZ AUX)
    Blend: CC-PVDZ-JKFIT
  @DF-UKS Final Energy:  -686.25026059670006
    Total Energy =                       -686.2502605967001728
 Dipole X            :          0.0000000            0.0000000            0.0000000
 Dipole Y            :          0.0000000            0.0000000            0.0000000
 Dipole Z            :          0.6578125           -0.0008257            0.6569868
 Magnitude           :                                                    0.6569868
    Molecular point group: c2v
  Basis Set: CC-PVDZ
    Blend: CC-PVDZ
  Basis Set: (CC-PVDZ AUX)
    Blend: CC-PVDZ-JKFIT
  Basis Set: CC-PVDZ
    Blend: CC-PVDZ
  Basis Set: (CC-PVDZ AUX)
    Blend: CC-PVDZ-JKFIT
  @DF-UKS Final Energy:  -686.28197997204779
    Total Energy =                       -686.2819799720477931
  Basis Set: CC-PVDZ
    Blend: CC-PVDZ
  Basis Set: (CC-PVDZ AUX)
    Blend: CC-PVDZ-JKFIT
  Basis Set: CC-PVDZ
    Blend: CC-PVDZ
  @DF-UKS Final Energy:  -686.34179808642443
    Total Energy =                       -686.3417980864243191
  @DF-UKS Final Energy:  -686.54456901534820
    Total Energy =                       -686.5445690153482019
  @DF-UKS Final Energy:  -687.07474529782939
    Total Energy =                       -687.0747452978295087
  @DF-UKS Final Energy:  -687.23097508101625
    Total Energy =                       -687.2309750810162541
  @DF-UKS Final Energy:  -687.31256304547435
    Total Energy =                       -687.3125630454742350
  @DF-UKS Final Energy:  -687.33531156674076
    Total Energy =                       -687.3353115667407565
  @DF-UKS Final Energy:  -687.34482755265049
    Total Energy =                       -687.3448275526504858
  @DF-UKS Final Energy:  -687.34794505884486
    Total Energy =                       -687.3479450588448572
  @DF-UKS Final Energy:  -687.34843628315548
    Total Energy =                       -687.3484362831554790
  @DF-UKS Final Energy:  -687.34852321433937
    Total Energy =                       -687.3485232143392523
  Basis Set: (CC-PVDZ AUX)
    Blend: CC-PVDZ-JKFIT
  Basis Set: CC-PVDZ
    Blend: CC-PVDZ
  Basis Set: (CC-PVDZ AUX)
    Blend: CC-PVDZ-JKFIT
  @DF-UKS Final Energy:  -687.34854131869247
    Total Energy =                       -687.3485413186924688
  Basis Set: CC-PVDZ
    Blend: CC-PVDZ
  Basis Set: (CC-PVDZ AUX)
    Blend: CC-PVDZ-JKFIT
  Charge       = 1
  Multiplicity = 2
  Basis Set: CC-PVDZ
    Blend: CC-PVDZ
  Basis Set: (CC-PVDZ AUX)
    Blend: CC-PVDZ-JKFIT

    Orbital Energies [Eh]
    ---------------------

    Alpha Occupied:

       1A1   -89.172273     2A1   -66.514580     3A1    -8.233355
       4A1    -6.201431     1B1    -6.189938     1B2    -6.189938
       5A1    -5.651942     6A1    -4.011836     2B2    -4.009464
       2B1    -4.009464     7A1    -1.003776     8A1    -0.733822
       9A1    -0.588886     3B2    -0.553700     3B1    -0.553700

    Alpha Virtual:

       4B2    -0.353317     4B1    -0.353317    10A1    -0.202123
      11A1    -0.033261     5B1     0.025505     5B2     0.025505
      12A1     0.031213    13A1     0.070167     1A2     0.070168
       6B1     0.088531     6B2     0.088531    14A1     0.140346
       7B1     0.287594     7B2     0.287594     2A2     0.363627
      15A1     0.363629    16A1     0.396640    17A1     0.479782
       8B1     0.532691     8B2     0.532691    18A1     0.899047

    Beta Occupied:

       1A1   -89.169412     2A1   -66.511599     3A1    -8.230481
       4A1    -6.191497     1B1    -6.188345     1B2    -6.188345
       5A1    -5.648136     2B2    -4.007142     2B1    -4.007142
       6A1    -4.003414     7A1    -0.979973     8A1    -0.692938
       3B2    -0.547960     3B1    -0.547960

    Beta Virtual:

       9A1    -0.482303     4B2    -0.336902     4B1    -0.336902
      10A1    -0.176962    11A1    -0.022354     5B1     0.038728
       5B2     0.038728    12A1     0.057575    13A1     0.079979
       1A2     0.079979     6B1     0.110822     6B2     0.110822
      14A1     0.162561     7B1     0.290952     7B2     0.290952
       2A2     0.366970    15A1     0.366972    16A1     0.418442
      17A1     0.496386     8B1     0.555380     8B2     0.555380
      18A1     0.917058

    Final Occupation by Irrep:
             A1    A2    B1    B2
    DOCC [     8,    0,    3,    3 ]
    SOCC [     1,    0,    0,    0 ]
    NA   [     9,    0,    3,    3 ]
    NB   [     8,    0,    3,    3 ]

  @DF-UKS Final Energy:  -687.34854319704448

   => Energetics <=

    Nuclear Repulsion Energy =             60.8423932320094636
    One-Electron Energy =               -1063.3195449660408940
    Two-Electron Energy =                 352.3989867217932215
    DFT Exchange-Correlation Energy =     -37.2703781848062690
    Empirical Dispersion Energy =           0.0000000000000000
    VV10 Nonlocal Energy =                  0.0000000000000000
    Total Energy =                       -687.3485431970444779

  UHF NO Occupations:
  HONO-2 :    7 A1 1.9997140
  HONO-1 :    8 A1 1.9975476
  HONO-0 :    9 A1 1.0000000
  LUNO+0 :   10 A1 0.0024524
  LUNO+1 :   11 A1 0.0002860
  LUNO+2 :    4 B2 0.0001174
  LUNO+3 :    4 B1 0.0001174

Computation Completed

Properties will be evaluated at   0.000000,   0.000000,   0.000000 [a0]

Properties computed using the SCF density matrix

 Multipole Moments:

 ------------------------------------------------------------------------------------
     Multipole            Electronic (a.u.)      Nuclear  (a.u.)        Total (a.u.)
 ------------------------------------------------------------------------------------

 L = 1.  Multiply by 2.5417464519 to convert [e a0] to [Debye]
 Dipole X            :          0.0000000            0.0000000            0.0000000
 Dipole Y            :          0.0000000            0.0000000            0.0000000
 Dipole Z            :          1.4352005           -0.0013405            1.4338600
 Magnitude           :                                                    1.4338600

 ------------------------------------------------------------------------------------

*** tstop() called on Joses-MacBook-Pro-2.local at Thu Jul 17 15:41:04 2025
Module time:
	user time   =       8.07 seconds =       0.13 minutes
	system time =       2.09 seconds =       0.03 minutes
	total time  =          1 seconds =       0.02 minutes
Total time:
	user time   =     175.49 seconds =       2.92 minutes
	system time =      41.41 seconds =       0.69 minutes
	total time  =         21 seconds =       0.35 minutes

*** tstart() called on Joses-MacBook-Pro-2.local
*** at Thu Jul 17 15:41:04 2025

         ------------------------------------------------------------
                                   SCF GRAD
                          Rob Parrish, Justin Turney,
                       Andy Simmonett, and Alex Sokolov
         ------------------------------------------------------------

  ==> Geometry <==

    Molecular point group: c2v
    Full point group: C_inf_v

    Geometry (in Angstrom), charge = 1, multiplicity = 2:

       Center              X                  Y                   Z               Mass
    ------------   -----------------  -----------------  -----------------  -----------------
         SI           0.000000000000     0.000000000000     1.039038660436    27.976926534650
         S            0.000000000000     0.000000000000    -0.909203163946    31.972071174400

  Nuclear repulsion =   60.842393232009464

  ==> Basis Set <==

  Basis Set: CC-PVDZ
    Blend: CC-PVDZ
    Number of shells: 16
    Number of basis functions: 36
    Number of Cartesian functions: 38
    Spherical Harmonics?: true
    Max angular momentum: 2

  ==> DFJKGrad: Density-Fitted SCF Gradients <==

    Gradient:                    1
    J tasked:                  Yes
    K tasked:                  Yes
    wK tasked:                  No
    OpenMP threads:              1
    Integrals threads:           1
    Memory [MiB]:              375
    Schwarz Cutoff:          1E-12
    Fitting Condition:       1E-10

   => Auxiliary Basis Set <=

  Basis Set: (CC-PVDZ AUX)
    Blend: CC-PVDZ-JKFIT
    Number of shells: 72
    Number of basis functions: 224
    Number of Cartesian functions: 260
    Spherical Harmonics?: true
    Max angular momentum: 3

  ==> DFT Potential <==

   => LibXC <=

    Version 6.2.2
    S. Lehtola, C. Steigemann, M. J.T. Oliveira, and M. A.L. Marques.,  SoftwareX 7, 1â€“5 (2018) (10.1016/j.softx.2017.11.002)

   => Composite Functional: B3LYP <=

    B3LYP Hyb-GGA Exchange-Correlation Functional

    P. J. Stephens, F. J. Devlin, C. F. Chabalowski, and M. J. Frisch.,  J. Phys. Chem. 98, 11623 (1994) (10.1021/j100096a001)

    Deriv               =              1
    GGA                 =           TRUE
    Meta                =          FALSE

    Exchange Hybrid     =           TRUE
    MP2 Hybrid          =          FALSE

   => Exchange Functionals <=

    0.0800   Slater exchange
    0.7200         Becke 88

   => Exact (HF) Exchange <=

    0.2000               HF

   => Correlation Functionals <=

    0.1900   Vosko, Wilk & Nusair (VWN5_RPA)
    0.8100   Lee, Yang & Parr

   => LibXC Density Thresholds  <==

    XC_HYB_GGA_XC_B3LYP:  1.00E-15

   => Molecular Quadrature <=

    Radial Scheme          =       TREUTLER
    Pruning Scheme         =           NONE
    Nuclear Scheme         =       TREUTLER

    Blocking Scheme        =         OCTREE
    BS radius alpha        =              1
    Pruning alpha          =              1
    Radial Points          =             75
    Spherical Points       =            302
    Total Points           =          41590
    Total Blocks           =            383
    Max Points             =            255
    Max Functions          =             36
    Weights Tolerance      =       1.00E-15

  -Total Gradient:
     Atom            X                  Y                   Z
    ------   -----------------  -----------------  -----------------
       1        0.000000000000    -0.000000000000    -0.000187152105
       2        0.000000000000    -0.000000000000     0.000203983241

*** tstop() called on Joses-MacBook-Pro-2.local at Thu Jul 17 15:41:04 2025
Module time:
	user time   =       2.13 seconds =       0.04 minutes
	system time =       1.24 seconds =       0.02 minutes
	total time  =          0 seconds =       0.00 minutes
Total time:
	user time   =     177.64 seconds =       2.96 minutes
	system time =      42.65 seconds =       0.71 minutes
	total time  =         21 seconds =       0.35 minutes

    			-----------------------------------------

    			 OPTKING 3.0: for geometry optimizations

    			     By R.A. King, Bethel University

    			        with contributions from

    			    A.V. Copan, J. Cayton, A. Heide

    			-----------------------------------------

	                            ===> Fragment 1 <==

	 Z (Atomic Numbers)          Masses                          Geom
	      14.000000            27.976927          0.00000000  0.00000000  1.96349850
	      16.000000            31.972071          0.00000000  0.00000000 -1.71814497

	 - Coordinate -           - BOHR/RAD -       - ANG/DEG -
	 R(1,2)           =         3.681643           1.948242

	        --- Internal Coordinate Step in ANG or DEG, aJ/ANG or AJ/DEG ---
	-------------------------------------------------------------------------------
	           Coordinate      Previous         Force          Change          New
	           ----------      --------        ------          ------        ------
	               R(1,2)       1.94824        0.00161        0.00035       1.94859
	-------------------------------------------------------------------------------

	                                 ==> Convergence Check <==

	Measures of convergence in internal coordinates in au.

	Criteria marked as inactive (o), active & met (*), and active & unmet ( ).

	----------------------------------------------------------------------------------------------
	   Step    Total Energy     Delta E     Max Force     RMS Force      Max Disp      RMS Disp
	----------------------------------------------------------------------------------------------
	  Convergence Criteria     1.00e-06 *    3.00e-04 *             o    1.20e-03 *             o
	----------------------------------------------------------------------------------------------
	    14    -687.34854320   -1.88e-06      1.96e-04 *    1.96e-04 o    6.54e-04 *    6.54e-04 o  ~
	----------------------------------------------------------------------------------------------

Next Geometry in Ang
	Fragment 1 (Ang)

	   Si   0.0000000000   0.0000000000   1.0392117388
	    S   0.0000000000   0.0000000000  -0.9093762423

    Final optimized geometry and variables:
    Molecular point group: c2v
    Full point group: C_inf_v

    Geometry (in Angstrom), charge = 1, multiplicity = 2:

    SI           0.000000000000     0.000000000000     1.039038660436
    S            0.000000000000     0.000000000000    -0.909203163946

    Psi4 stopped on: Thursday, 17 July 2025 03:41PM
    Psi4 wall time for execution: 0:00:21.44

*** Psi4 exiting successfully. Buy a developer a beer!
