                               Psi4 1.9.1 release

  ==> Input File <==

--------------------------------------------------------------------------
molecule {
1 2
Li   0.00000        0.60000        0.00000
N   0.00000       -0.60000        0.00000
}

set {
basis              cc-pvdz
reference          uks
maxiter            500
geom_maxiter       500
DAMPING_PERCENTAGE 1
guess              SAP
}

optimize('b3lyp')
--------------------------------------------------------------------------

    Molecular point group: c2v
  Charge       = 1
  Multiplicity = 2
  Basis Set: CC-PVDZ
    Blend: CC-PVDZ
  Basis Set: (CC-PVDZ AUX)
    Blend: CC-PVDZ-JKFIT + DEF2-UNIVERSAL-JKFIT
  @DF-UKS Final Energy:   -61.58520344587392
    Total Energy =                        -61.5852034458739226
 Dipole X            :          0.0000000            0.0000000            0.0000000
 Dipole Y            :          0.0000000            0.0000000            0.0000000
 Dipole Z            :          1.8879819           -0.7662953            1.1216866
 Magnitude           :                                                    1.1216866
    Molecular point group: c2v
  Basis Set: CC-PVDZ
    Blend: CC-PVDZ
  Basis Set: (CC-PVDZ AUX)
    Blend: CC-PVDZ-JKFIT + DEF2-UNIVERSAL-JKFIT
  Basis Set: CC-PVDZ
    Blend: CC-PVDZ
  Basis Set: (CC-PVDZ AUX)
    Blend: CC-PVDZ-JKFIT + DEF2-UNIVERSAL-JKFIT
  @DF-UKS Final Energy:   -61.67216197287849
    Total Energy =                        -61.6721619728784916
  Basis Set: CC-PVDZ
    Blend: CC-PVDZ
  Basis Set: (CC-PVDZ AUX)
    Blend: CC-PVDZ-JKFIT + DEF2-UNIVERSAL-JKFIT
  Basis Set: CC-PVDZ
    Blend: CC-PVDZ
  @DF-UKS Final Energy:   -61.71721804598232
    Total Energy =                        -61.7172180459823210
  @DF-UKS Final Energy:   -61.73998643687639
    Total Energy =                        -61.7399864368763929
  @DF-UKS Final Energy:   -61.75203184787118
    Total Energy =                        -61.7520318478711800
  @DF-UKS Final Energy:   -61.75861032789176
    Total Energy =                        -61.7586103278917520
  @DF-UKS Final Energy:   -61.76229145878977
    Total Energy =                        -61.7622914587897682
  @DF-UKS Final Energy:   -61.76434065093072
    Total Energy =                        -61.7643406509307269
  @DF-UKS Final Energy:   -61.76545862807258
    Total Energy =                        -61.7654586280725795
  @DF-UKS Final Energy:   -61.76605293721549
    Total Energy =                        -61.7660529372154912
  @DF-UKS Final Energy:   -61.76636068052361
    Total Energy =                        -61.7663606805236185
  @DF-UKS Final Energy:   -61.76651812233418
    Total Energy =                        -61.7665181223341762
  @DF-UKS Final Energy:   -61.76661860473288
    Total Energy =                        -61.7666186047328694
  @DF-UKS Final Energy:   -61.76672213580317
    Total Energy =                        -61.7667221358031640
  @DF-UKS Final Energy:   -61.76696395457984
    Total Energy =                        -61.7669639545798503
  @DF-UKS Final Energy:   -61.76696531276564
    Total Energy =                        -61.7669653127656417
  @DF-UKS Final Energy:   -61.76696667342085
    Total Energy =                        -61.7669666734208533
  @DF-UKS Final Energy:   -61.76696803795014
    Total Energy =                        -61.7669680379501358
  @DF-UKS Final Energy:   -61.76696940634508
    Total Energy =                        -61.7669694063450834
  @DF-UKS Final Energy:   -61.76697077859016
    Total Energy =                        -61.7669707785901565
  @DF-UKS Final Energy:   -61.76730348419827
    Total Energy =                        -61.7673034841982584
  @DF-UKS Final Energy:   -61.76730512794069
    Total Energy =                        -61.7673051279407019
  @DF-UKS Final Energy:   -61.76730676972105
    Total Energy =                        -61.7673067697210527
  @DF-UKS Final Energy:   -61.76730840953978
    Total Energy =                        -61.7673084095397797
  @DF-UKS Final Energy:   -61.76731004739039
    Total Energy =                        -61.7673100473903887
  @DF-UKS Final Energy:   -61.76731168327035
    Total Energy =                        -61.7673116832703499
  @DF-UKS Final Energy:   -61.76731331717613
    Total Energy =                        -61.7673133171761322
  @DF-UKS Final Energy:   -61.76731494910720
    Total Energy =                        -61.7673149491072095
  @DF-UKS Final Energy:   -61.76757248428677
    Total Energy =                        -61.7675724842867737
  @DF-UKS Final Energy:   -61.76757362198631
    Total Energy =                        -61.7675736219863083
  @DF-UKS Final Energy:   -61.76757475622703
    Total Energy =                        -61.7675747562270345
  @DF-UKS Final Energy:   -61.76757588782441
    Total Energy =                        -61.7675758878244139
  @DF-UKS Final Energy:   -61.76757701678508
    Total Energy =                        -61.7675770167850757
  @DF-UKS Final Energy:   -61.76757814310952
    Total Energy =                        -61.7675781431095174
  @DF-UKS Final Energy:   -61.76757926679868
    Total Energy =                        -61.7675792667986769
  @DF-UKS Final Energy:   -61.76758038785574
    Total Energy =                        -61.7675803878557375
  @DF-UKS Final Energy:   -61.76758150628346
    Total Energy =                        -61.7675815062834559
  @DF-UKS Final Energy:   -61.76758262208433
    Total Energy =                        -61.7675826220843263
  Basis Set: (CC-PVDZ AUX)
    Blend: CC-PVDZ-JKFIT + DEF2-UNIVERSAL-JKFIT
  Basis Set: CC-PVDZ
    Blend: CC-PVDZ
  Basis Set: (CC-PVDZ AUX)
    Blend: CC-PVDZ-JKFIT + DEF2-UNIVERSAL-JKFIT
  @DF-UKS Final Energy:   -61.76776588280645
    Total Energy =                        -61.7677658828064580
  Basis Set: CC-PVDZ
    Blend: CC-PVDZ
  Basis Set: (CC-PVDZ AUX)
    Blend: CC-PVDZ-JKFIT + DEF2-UNIVERSAL-JKFIT
  Charge       = 1
  Multiplicity = 2
  Basis Set: CC-PVDZ
    Blend: CC-PVDZ
  Basis Set: (CC-PVDZ AUX)
    Blend: CC-PVDZ-JKFIT + DEF2-UNIVERSAL-JKFIT

    Orbital Energies [Eh]
    ---------------------

    Alpha Occupied:

       1A1   -14.550784     2A1    -2.351765     3A1    -0.849239
       1B1    -0.436412     1B2    -0.369767

    Alpha Virtual:

       4A1    -0.301783     5A1    -0.251243     6A1    -0.174877
       2B2    -0.174771     2B1    -0.174152     3B2    -0.066421
       7A1    -0.063854     3B1    -0.063520     8A1    -0.045685
       9A1     0.076984     4B1     0.077213     4B2     0.077270
       1A2     0.077947    10A1     0.078168     5B1     0.562301
      11A1     0.598554     5B2     0.604661    12A1     0.714940
       6B1     1.584889    13A1     1.593529     2A2     1.627004
       6B2     1.634339    14A1     1.651597

    Beta Occupied:

       1A1   -14.530945     2A1    -2.351765     3A1    -0.779558
       1B2    -0.348438

    Beta Virtual:

       4A1    -0.278949     5A1    -0.250988     1B1    -0.214332
       6A1    -0.174712     2B1    -0.174453     2B2    -0.174397
       3B2    -0.066589     7A1    -0.064193     3B1    -0.061576
       8A1    -0.045486     9A1     0.076952     4B1     0.077288
       1A2     0.078170     4B2     0.078228    10A1     0.078732
      11A1     0.612407     5B2     0.617131     5B1     0.649959
      12A1     0.750058     6B2     1.643165    13A1     1.645108
       6B1     1.666320     2A2     1.693717    14A1     1.704693

    Final Occupation by Irrep:
             A1    A2    B1    B2
    DOCC [     3,    0,    0,    1 ]
    SOCC [     0,    0,    1,    0 ]
    NA   [     3,    0,    1,    1 ]
    NB   [     3,    0,    0,    1 ]

  @DF-UKS Final Energy:   -61.76776661665887

   => Energetics <=

    Nuclear Repulsion Energy =              1.9975398982920731
    One-Electron Energy =                 -86.0501226994065860
    Two-Electron Energy =                  29.0915797923734907
    DFT Exchange-Correlation Energy =      -6.8067636079178540
    Empirical Dispersion Energy =           0.0000000000000000
    VV10 Nonlocal Energy =                  0.0000000000000000
    Total Energy =                        -61.7677666166588679

  UHF NO Occupations:
  HONO-2 :    1 B2 1.9999314
  HONO-1 :    3 A1 1.9993787
  HONO-0 :    1 B1 1.0000000
  LUNO+0 :    4 A1 0.0006213
  LUNO+1 :    2 B2 0.0000686
  LUNO+2 :    5 A1 0.0000000
  LUNO+3 :    6 A1 0.0000000

Computation Completed

Properties will be evaluated at   0.000000,   0.000000,   0.000000 [a0]

Properties computed using the SCF density matrix

 Multipole Moments:

 ------------------------------------------------------------------------------------
     Multipole            Electronic (a.u.)      Nuclear  (a.u.)        Total (a.u.)
 ------------------------------------------------------------------------------------

 L = 1.  Multiply by 2.5417464519 to convert [e a0] to [Debye]
 Dipole X            :          0.0000000            0.0000000            0.0000000
 Dipole Y            :          0.0000000            0.0000000            0.0000000
 Dipole Z            :         10.5149940           -3.5525475            6.9624465
 Magnitude           :                                                    6.9624465

 ------------------------------------------------------------------------------------

*** tstop() called on Joses-MacBook-Pro-2.local at Thu Jul 17 12:48:05 2025
Module time:
	user time   =       1.37 seconds =       0.02 minutes
	system time =       3.02 seconds =       0.05 minutes
	total time  =          0 seconds =       0.00 minutes
Total time:
	user time   =     123.25 seconds =       2.05 minutes
	system time =     205.69 seconds =       3.43 minutes
	total time  =         31 seconds =       0.52 minutes

*** tstart() called on Joses-MacBook-Pro-2.local
*** at Thu Jul 17 12:48:05 2025

         ------------------------------------------------------------
                                   SCF GRAD
                          Rob Parrish, Justin Turney,
                       Andy Simmonett, and Alex Sokolov
         ------------------------------------------------------------

  ==> Geometry <==

    Molecular point group: c2v
    Full point group: C_inf_v

    Geometry (in Angstrom), charge = 1, multiplicity = 2:

       Center              X                  Y                   Z               Mass
    ------------   -----------------  -----------------  -----------------  -----------------
         LI           0.000000000000     0.000000000000     3.706249897459     7.016003436600
         N            0.000000000000     0.000000000000    -1.856953838082    14.003074004430

  Nuclear repulsion =    1.997539898292073

  ==> Basis Set <==

  Basis Set: CC-PVDZ
    Blend: CC-PVDZ
    Number of shells: 12
    Number of basis functions: 28
    Number of Cartesian functions: 30
    Spherical Harmonics?: true
    Max angular momentum: 2

  ==> DFJKGrad: Density-Fitted SCF Gradients <==

    Gradient:                    1
    J tasked:                  Yes
    K tasked:                  Yes
    wK tasked:                  No
    OpenMP threads:              1
    Integrals threads:           1
    Memory [MiB]:              375
    Schwarz Cutoff:          1E-12
    Fitting Condition:       1E-10

   => Auxiliary Basis Set <=

  Basis Set: (CC-PVDZ AUX)
    Blend: CC-PVDZ-JKFIT + DEF2-UNIVERSAL-JKFIT
    Number of shells: 41
    Number of basis functions: 121
    Number of Cartesian functions: 141
    Spherical Harmonics?: true
    Max angular momentum: 3

  ==> DFT Potential <==

   => LibXC <=

    Version 6.2.2
    S. Lehtola, C. Steigemann, M. J.T. Oliveira, and M. A.L. Marques.,  SoftwareX 7, 1â€“5 (2018) (10.1016/j.softx.2017.11.002)

   => Composite Functional: B3LYP <=

    B3LYP Hyb-GGA Exchange-Correlation Functional

    P. J. Stephens, F. J. Devlin, C. F. Chabalowski, and M. J. Frisch.,  J. Phys. Chem. 98, 11623 (1994) (10.1021/j100096a001)

    Deriv               =              1
    GGA                 =           TRUE
    Meta                =          FALSE

    Exchange Hybrid     =           TRUE
    MP2 Hybrid          =          FALSE

   => Exchange Functionals <=

    0.0800   Slater exchange
    0.7200         Becke 88

   => Exact (HF) Exchange <=

    0.2000               HF

   => Correlation Functionals <=

    0.1900   Vosko, Wilk & Nusair (VWN5_RPA)
    0.8100   Lee, Yang & Parr

   => LibXC Density Thresholds  <==

    XC_HYB_GGA_XC_B3LYP:  1.00E-15

   => Molecular Quadrature <=

    Radial Scheme          =       TREUTLER
    Pruning Scheme         =           NONE
    Nuclear Scheme         =       TREUTLER

    Blocking Scheme        =         OCTREE
    BS radius alpha        =              1
    Pruning alpha          =              1
    Radial Points          =             75
    Spherical Points       =            302
    Total Points           =          44430
    Total Blocks           =            453
    Max Points             =            256
    Max Functions          =             28
    Weights Tolerance      =       1.00E-15

  -Total Gradient:
     Atom            X                  Y                   Z
    ------   -----------------  -----------------  -----------------
       1        0.000000000000     0.000000000000    -0.000190801542
       2       -0.000000000000    -0.000000000000     0.000159097106

*** tstop() called on Joses-MacBook-Pro-2.local at Thu Jul 17 12:48:05 2025
Module time:
	user time   =       0.64 seconds =       0.01 minutes
	system time =       1.12 seconds =       0.02 minutes
	total time  =          0 seconds =       0.00 minutes
Total time:
	user time   =     123.89 seconds =       2.06 minutes
	system time =     206.81 seconds =       3.45 minutes
	total time  =         31 seconds =       0.52 minutes

    			-----------------------------------------

    			 OPTKING 3.0: for geometry optimizations

    			     By R.A. King, Bethel University

    			        with contributions from

    			    A.V. Copan, J. Cayton, A. Heide

    			-----------------------------------------

	                            ===> Fragment 1 <==

	 Z (Atomic Numbers)          Masses                          Geom
	       3.000000             7.016003          0.00000000  0.00000000  7.00379726
	       7.000000            14.003074          0.00000000  0.00000000 -3.50913418

	 - Coordinate -           - BOHR/RAD -       - ANG/DEG -
	 R(1,2)           =        10.512931           5.563204

	        --- Internal Coordinate Step in ANG or DEG, aJ/ANG or AJ/DEG ---
	-------------------------------------------------------------------------------
	           Coordinate      Previous         Force          Change          New
	           ----------      --------        ------          ------        ------
	               R(1,2)       5.56320        0.00144        0.00206       5.56527
	-------------------------------------------------------------------------------

	                                 ==> Convergence Check <==

	Measures of convergence in internal coordinates in au.

	Criteria marked as inactive (o), active & met (*), and active & unmet ( ).

	----------------------------------------------------------------------------------------------
	   Step    Total Energy     Delta E     Max Force     RMS Force      Max Disp      RMS Disp
	----------------------------------------------------------------------------------------------
	  Convergence Criteria     1.00e-06 *    3.00e-04 *             o    1.20e-03 *             o
	----------------------------------------------------------------------------------------------
	    45     -61.76776662   -7.34e-07 *    1.75e-04 *    1.75e-04 o    3.90e-03      3.90e-03 o  ~
	----------------------------------------------------------------------------------------------

Next Geometry in Ang
	Fragment 1 (Ang)

	   Li   0.0000000000   0.0000000000   3.7072805595
	    N   0.0000000000   0.0000000000  -1.8579845001

    Final optimized geometry and variables:
    Molecular point group: c2v
    Full point group: C_inf_v

    Geometry (in Angstrom), charge = 1, multiplicity = 2:

    LI           0.000000000000     0.000000000000     3.706249897459
    N            0.000000000000     0.000000000000    -1.856953838082

    Psi4 stopped on: Thursday, 17 July 2025 12:48PM
    Psi4 wall time for execution: 0:00:32.27

*** Psi4 exiting successfully. Buy a developer a beer!
