                               Psi4 1.9.1 release

  ==> Input File <==

--------------------------------------------------------------------------
molecule {
1 2
F   0.00000        0.60000        0.00000
Al   0.00000       -0.60000        0.00000
}

set {
basis              cc-pvdz
reference          uks
maxiter            500
geom_maxiter       500
DAMPING_PERCENTAGE 1
guess              SAP
}

optimize('b3lyp')
--------------------------------------------------------------------------

    Molecular point group: c2v
  Charge       = 1
  Multiplicity = 2
  Basis Set: CC-PVDZ
    Blend: CC-PVDZ
  Basis Set: (CC-PVDZ AUX)
    Blend: CC-PVDZ-JKFIT
  @DF-UKS Final Energy:  -341.69174468751612
    Total Energy =                       -341.6917446875161204
 Dipole X            :          0.0000000            0.0000000            0.0000000
 Dipole Y            :          0.0000000            0.0000000            0.0000000
 Dipole Z            :         -1.3669302           -0.2044455           -1.5713757
 Magnitude           :                                                    1.5713757
    Molecular point group: c2v
  Basis Set: CC-PVDZ
    Blend: CC-PVDZ
  Basis Set: (CC-PVDZ AUX)
    Blend: CC-PVDZ-JKFIT
  Basis Set: CC-PVDZ
    Blend: CC-PVDZ
  Basis Set: (CC-PVDZ AUX)
    Blend: CC-PVDZ-JKFIT
  @DF-UKS Final Energy:  -341.87505039110903
    Total Energy =                       -341.8750503911090277
  Basis Set: CC-PVDZ
    Blend: CC-PVDZ
  Basis Set: (CC-PVDZ AUX)
    Blend: CC-PVDZ-JKFIT
  Basis Set: CC-PVDZ
    Blend: CC-PVDZ
  @DF-UKS Final Energy:  -341.94982459453638
    Total Energy =                       -341.9498245945363806
  @DF-UKS Final Energy:  -341.97472555909741
    Total Energy =                       -341.9747255590974078
  @DF-UKS Final Energy:  -341.98766841189109
    Total Energy =                       -341.9876684118910930
  @DF-UKS Final Energy:  -341.99116038276094
    Total Energy =                       -341.9911603827609383
  @DF-UKS Final Energy:  -341.99246324184458
    Total Energy =                       -341.9924632418445754
  @DF-UKS Final Energy:  -341.99269591385502
    Total Energy =                       -341.9926959138550160
  @DF-UKS Final Energy:  -341.99274506195979
    Total Energy =                       -341.9927450619597948
  Basis Set: (CC-PVDZ AUX)
    Blend: CC-PVDZ-JKFIT
  Basis Set: CC-PVDZ
    Blend: CC-PVDZ
  Basis Set: (CC-PVDZ AUX)
    Blend: CC-PVDZ-JKFIT
  @DF-UKS Final Energy:  -341.99275054516551
    Total Energy =                       -341.9927505451655065
  Basis Set: CC-PVDZ
    Blend: CC-PVDZ
  Basis Set: (CC-PVDZ AUX)
    Blend: CC-PVDZ-JKFIT
  Charge       = 1
  Multiplicity = 2
  Basis Set: CC-PVDZ
    Blend: CC-PVDZ
  Basis Set: (CC-PVDZ AUX)
    Blend: CC-PVDZ-JKFIT

    Orbital Energies [Eh]
    ---------------------

    Alpha Occupied:

       1A1   -56.459886     2A1   -24.941208     3A1    -4.531356
       1B1    -3.084374     1B2    -3.084374     4A1    -3.082306
       5A1    -1.415417     6A1    -0.730886     2B1    -0.662271
       2B2    -0.662271     7A1    -0.576865

    Alpha Virtual:

       3B2    -0.325508     3B1    -0.325508     8A1    -0.227878
       9A1    -0.062266     4B1    -0.012844     4B2    -0.012844
      10A1    -0.010034     1A2    -0.010034    11A1     0.025102
       5B1     0.046125     5B2     0.046125    12A1     0.224757
       6B2     1.042739     6B1     1.042739    13A1     1.066251
      14A1     1.987019     2A2     3.326577    15A1     3.326692
       7B1     3.336851     7B2     3.336851    16A1     3.385833

    Beta Occupied:

       1A1   -56.455769     2A1   -24.937090     3A1    -4.524686
       1B1    -3.079999     1B2    -3.079999     4A1    -3.075450
       5A1    -1.404728     6A1    -0.705763     2B1    -0.658990
       2B2    -0.658990

    Beta Virtual:

       7A1    -0.461054     3B2    -0.288610     3B1    -0.288610
       8A1    -0.198351     9A1    -0.043506     4B1    -0.000830
       4B2    -0.000830    10A1     0.016508     1A2     0.016508
      11A1     0.047026     5B1     0.073383     5B2     0.073383
      12A1     0.243952     6B2     1.046598     6B1     1.046598
      13A1     1.078823    14A1     1.995980     2A2     3.328105
      15A1     3.328221     7B1     3.348270     7B2     3.348270
      16A1     3.399485

    Final Occupation by Irrep:
             A1    A2    B1    B2
    DOCC [     6,    0,    2,    2 ]
    SOCC [     1,    0,    0,    0 ]
    NA   [     7,    0,    2,    2 ]
    NB   [     6,    0,    2,    2 ]

  @DF-UKS Final Energy:  -341.99275068826427

   => Energetics <=

    Nuclear Repulsion Energy =             37.2717308219094647
    One-Electron Energy =                -544.0743320581957505
    Two-Electron Energy =                 188.0946119074409069
    DFT Exchange-Correlation Energy =     -23.2847613594188481
    Empirical Dispersion Energy =           0.0000000000000000
    VV10 Nonlocal Energy =                  0.0000000000000000
    Total Energy =                       -341.9927506882642660

  UHF NO Occupations:
  HONO-2 :    2 B2 1.9999366
  HONO-1 :    6 A1 1.9995248
  HONO-0 :    7 A1 1.0000000
  LUNO+0 :    8 A1 0.0004752
  LUNO+1 :    3 B1 0.0000634
  LUNO+2 :    3 B2 0.0000634
  LUNO+3 :    9 A1 0.0000055

Computation Completed

Properties will be evaluated at   0.000000,   0.000000,   0.000000 [a0]

Properties computed using the SCF density matrix

 Multipole Moments:

 ------------------------------------------------------------------------------------
     Multipole            Electronic (a.u.)      Nuclear  (a.u.)        Total (a.u.)
 ------------------------------------------------------------------------------------

 L = 1.  Multiply by 2.5417464519 to convert [e a0] to [Debye]
 Dipole X            :          0.0000000            0.0000000            0.0000000
 Dipole Y            :          0.0000000            0.0000000            0.0000000
 Dipole Z            :         -1.9193151           -0.2830113           -2.2023263
 Magnitude           :                                                    2.2023263

 ------------------------------------------------------------------------------------

*** tstop() called on Joses-MacBook-Pro-2.local at Thu Jul 17 14:27:18 2025
Module time:
	user time   =       3.94 seconds =       0.07 minutes
	system time =       3.11 seconds =       0.05 minutes
	total time  =          1 seconds =       0.02 minutes
Total time:
	user time   =      55.24 seconds =       0.92 minutes
	system time =      57.01 seconds =       0.95 minutes
	total time  =         11 seconds =       0.18 minutes

*** tstart() called on Joses-MacBook-Pro-2.local
*** at Thu Jul 17 14:27:18 2025

         ------------------------------------------------------------
                                   SCF GRAD
                          Rob Parrish, Justin Turney,
                       Andy Simmonett, and Alex Sokolov
         ------------------------------------------------------------

  ==> Geometry <==

    Molecular point group: c2v
    Full point group: C_inf_v

    Geometry (in Angstrom), charge = 1, multiplicity = 2:

       Center              X                  Y                   Z               Mass
    ------------   -----------------  -----------------  -----------------  -----------------
         F            0.000000000000     0.000000000000     0.974778019365    18.998403162730
         AL           0.000000000000     0.000000000000    -0.686366560805    26.981538530000

  Nuclear repulsion =   37.271730821909465

  ==> Basis Set <==

  Basis Set: CC-PVDZ
    Blend: CC-PVDZ
    Number of shells: 14
    Number of basis functions: 32
    Number of Cartesian functions: 34
    Spherical Harmonics?: true
    Max angular momentum: 2

  ==> DFJKGrad: Density-Fitted SCF Gradients <==

    Gradient:                    1
    J tasked:                  Yes
    K tasked:                  Yes
    wK tasked:                  No
    OpenMP threads:              1
    Integrals threads:           1
    Memory [MiB]:              375
    Schwarz Cutoff:          1E-12
    Fitting Condition:       1E-10

   => Auxiliary Basis Set <=

  Basis Set: (CC-PVDZ AUX)
    Blend: CC-PVDZ-JKFIT
    Number of shells: 60
    Number of basis functions: 182
    Number of Cartesian functions: 211
    Spherical Harmonics?: true
    Max angular momentum: 3

  ==> DFT Potential <==

   => LibXC <=

    Version 6.2.2
    S. Lehtola, C. Steigemann, M. J.T. Oliveira, and M. A.L. Marques.,  SoftwareX 7, 1â€“5 (2018) (10.1016/j.softx.2017.11.002)

   => Composite Functional: B3LYP <=

    B3LYP Hyb-GGA Exchange-Correlation Functional

    P. J. Stephens, F. J. Devlin, C. F. Chabalowski, and M. J. Frisch.,  J. Phys. Chem. 98, 11623 (1994) (10.1021/j100096a001)

    Deriv               =              1
    GGA                 =           TRUE
    Meta                =          FALSE

    Exchange Hybrid     =           TRUE
    MP2 Hybrid          =          FALSE

   => Exchange Functionals <=

    0.0800   Slater exchange
    0.7200         Becke 88

   => Exact (HF) Exchange <=

    0.2000               HF

   => Correlation Functionals <=

    0.1900   Vosko, Wilk & Nusair (VWN5_RPA)
    0.8100   Lee, Yang & Parr

   => LibXC Density Thresholds  <==

    XC_HYB_GGA_XC_B3LYP:  1.00E-15

   => Molecular Quadrature <=

    Radial Scheme          =       TREUTLER
    Pruning Scheme         =           NONE
    Nuclear Scheme         =       TREUTLER

    Blocking Scheme        =         OCTREE
    BS radius alpha        =              1
    Pruning alpha          =              1
    Radial Points          =             75
    Spherical Points       =            302
    Total Points           =          43420
    Total Blocks           =            406
    Max Points             =            253
    Max Functions          =             32
    Weights Tolerance      =       1.00E-15

  -Total Gradient:
     Atom            X                  Y                   Z
    ------   -----------------  -----------------  -----------------
       1        0.000000000000    -0.000000000000    -0.000125426536
       2        0.000000000000     0.000000000000    -0.000023719535

*** tstop() called on Joses-MacBook-Pro-2.local at Thu Jul 17 14:27:18 2025
Module time:
	user time   =       0.95 seconds =       0.02 minutes
	system time =       1.50 seconds =       0.03 minutes
	total time  =          0 seconds =       0.00 minutes
Total time:
	user time   =      56.19 seconds =       0.94 minutes
	system time =      58.51 seconds =       0.98 minutes
	total time  =         11 seconds =       0.18 minutes

    			-----------------------------------------

    			 OPTKING 3.0: for geometry optimizations

    			     By R.A. King, Bethel University

    			        with contributions from

    			    A.V. Copan, J. Cayton, A. Heide

    			-----------------------------------------

	                            ===> Fragment 1 <==

	 Z (Atomic Numbers)          Masses                          Geom
	       9.000000            18.998403          0.00000000  0.00000000  1.84206349
	      13.000000            26.981539          0.00000000  0.00000000 -1.29704482

	 - Coordinate -           - BOHR/RAD -       - ANG/DEG -
	 R(1,2)           =         3.139108           1.661145

	        --- Internal Coordinate Step in ANG or DEG, aJ/ANG or AJ/DEG ---
	-------------------------------------------------------------------------------
	           Coordinate      Previous         Force          Change          New
	           ----------      --------        ------          ------        ------
	               R(1,2)       1.66114        0.00042        0.00008       1.66122
	-------------------------------------------------------------------------------

	                                 ==> Convergence Check <==

	Measures of convergence in internal coordinates in au.

	Criteria marked as inactive (o), active & met (*), and active & unmet ( ).

	----------------------------------------------------------------------------------------------
	   Step    Total Energy     Delta E     Max Force     RMS Force      Max Disp      RMS Disp
	----------------------------------------------------------------------------------------------
	  Convergence Criteria     1.00e-06 *    3.00e-04 *             o    1.20e-03 *             o
	----------------------------------------------------------------------------------------------
	    11    -341.99275069   -1.43e-07 *    5.09e-05 *    5.09e-05 o    1.51e-04 *    1.51e-04 o  ~
	----------------------------------------------------------------------------------------------

Next Geometry in Ang
	Fragment 1 (Ang)

	    F   0.0000000000   0.0000000000   0.9748179462
	   Al   0.0000000000   0.0000000000  -0.6864064876

    Final optimized geometry and variables:
    Molecular point group: c2v
    Full point group: C_inf_v

    Geometry (in Angstrom), charge = 1, multiplicity = 2:

    F            0.000000000000     0.000000000000     0.974778019365
    AL           0.000000000000     0.000000000000    -0.686366560805

    Psi4 stopped on: Thursday, 17 July 2025 02:27PM
    Psi4 wall time for execution: 0:00:11.75

*** Psi4 exiting successfully. Buy a developer a beer!
