                               Psi4 1.9.1 release

  ==> Input File <==

--------------------------------------------------------------------------
molecule {
1 2
Si   0.00000        0.60000        0.00000
Ar   0.00000       -0.60000        0.00000
}

set {
basis              cc-pvdz
reference          uks
maxiter            500
geom_maxiter       500
DAMPING_PERCENTAGE 1
guess              SAP
}

optimize('b3lyp')
--------------------------------------------------------------------------

    Molecular point group: c2v
  Charge       = 1
  Multiplicity = 2
  Basis Set: CC-PVDZ
    Blend: CC-PVDZ
  Basis Set: (CC-PVDZ AUX)
    Blend: CC-PVDZ-JKFIT
  @DF-UKS Final Energy:  -815.28810811315304
    Total Energy =                       -815.2881081131530436
 Dipole X            :          0.0000000            0.0000000            0.0000000
 Dipole Y            :          0.0000000            0.0000000            0.0000000
 Dipole Z            :         -3.0156464            1.8654469           -1.1501995
 Magnitude           :                                                    1.1501995
    Molecular point group: c2v
  Basis Set: CC-PVDZ
    Blend: CC-PVDZ
  Basis Set: (CC-PVDZ AUX)
    Blend: CC-PVDZ-JKFIT
  Basis Set: CC-PVDZ
    Blend: CC-PVDZ
  Basis Set: (CC-PVDZ AUX)
    Blend: CC-PVDZ-JKFIT
  @DF-UKS Final Energy:  -815.32852099070692
    Total Energy =                       -815.3285209907069202
  Basis Set: CC-PVDZ
    Blend: CC-PVDZ
  Basis Set: (CC-PVDZ AUX)
    Blend: CC-PVDZ-JKFIT
  Basis Set: CC-PVDZ
    Blend: CC-PVDZ
  @DF-UKS Final Energy:  -815.40347144112388
    Total Energy =                       -815.4034714411238838
  @DF-UKS Final Energy:  -815.64732867537202
    Total Energy =                       -815.6473286753720231
  @DF-UKS Final Energy:  -816.16923574748398
    Total Energy =                       -816.1692357474838673
  @DF-UKS Final Energy:  -816.36186534537387
    Total Energy =                       -816.3618653453738716
  @DF-UKS Final Energy:  -816.49147180958551
    Total Energy =                       -816.4914718095855051
  @DF-UKS Final Energy:  -816.56814661687054
    Total Energy =                       -816.5681466168705356
  @DF-UKS Final Energy:  -816.60912900315930
    Total Energy =                       -816.6091290031591825
  @DF-UKS Final Energy:  -816.62979915621497
    Total Energy =                       -816.6297991562148582
  @DF-UKS Final Energy:  -816.63937911311211
    Total Energy =                       -816.6393791131121134
  @DF-UKS Final Energy:  -816.64325167135235
    Total Energy =                       -816.6432516713523455
  @DF-UKS Final Energy:  -816.64452530161475
    Total Energy =                       -816.6445253016147490
  @DF-UKS Final Energy:  -816.64477572717954
    Total Energy =                       -816.6447757271795354
  @DF-UKS Final Energy:  -816.64484468880050
    Total Energy =                       -816.6448446888005037
  Basis Set: (CC-PVDZ AUX)
    Blend: CC-PVDZ-JKFIT
  Basis Set: CC-PVDZ
    Blend: CC-PVDZ
  Basis Set: (CC-PVDZ AUX)
    Blend: CC-PVDZ-JKFIT
  @DF-UKS Final Energy:  -816.64485283671888
    Total Energy =                       -816.6448528367188828
  Basis Set: CC-PVDZ
    Blend: CC-PVDZ
  Basis Set: (CC-PVDZ AUX)
    Blend: CC-PVDZ-JKFIT
  Charge       = 1
  Multiplicity = 2
  Basis Set: CC-PVDZ
    Blend: CC-PVDZ
  Basis Set: (CC-PVDZ AUX)
    Blend: CC-PVDZ-JKFIT

    Orbital Energies [Eh]
    ---------------------

    Alpha Occupied:

       1A1  -115.342960     2A1   -66.508304     3A1   -11.379269
       4A1    -8.930840     1B1    -8.928238     1B2    -8.928018
       5A1    -5.641561     2B1    -4.002011     6A1    -4.001297
       2B2    -3.997523     7A1    -1.205968     8A1    -0.746384
       3B1    -0.654681     3B2    -0.654065     9A1    -0.652320
       4B2    -0.454226

    Alpha Virtual:

       4B1    -0.381211    10A1    -0.354657    11A1     0.013820
      12A1     0.045625     5B2     0.064135     6B2     0.067079
       5B1     0.073901     1A2     0.074601     6B1     0.077493
      13A1     0.081122    14A1     0.137923     7B1     0.405244
       7B2     0.406799    15A1     0.425534    16A1     0.584334
       2A2     0.603569    17A1     0.603603     8B1     0.609231
       8B2     0.609858    18A1     0.849605

    Beta Occupied:

       1A1  -115.342908     2A1   -66.504619     3A1   -11.379221
       4A1    -8.930913     1B1    -8.928212     1B2    -8.927752
       5A1    -5.637474     2B1    -3.999950     6A1    -3.999200
       2B2    -3.983878     7A1    -1.205765     8A1    -0.723221
       3B1    -0.654689     3B2    -0.652775     9A1    -0.638087

    Beta Virtual:

       4B1    -0.370914    10A1    -0.343823     4B2    -0.333987
      11A1     0.025715    12A1     0.052131     5B1     0.076761
       6B1     0.081155     5B2     0.099299     6B2     0.109080
      13A1     0.118919     1A2     0.122472    14A1     0.153097
       7B1     0.405255     7B2     0.408969    15A1     0.425483
      16A1     0.584369     2A2     0.604035    17A1     0.604076
       8B1     0.609144     8B2     0.611386    18A1     0.852755

    Final Occupation by Irrep:
             A1    A2    B1    B2
    DOCC [     9,    0,    3,    3 ]
    SOCC [     0,    0,    0,    1 ]
    NA   [     9,    0,    3,    4 ]
    NB   [     9,    0,    3,    3 ]

  @DF-UKS Final Energy:  -816.64485378172060

   => Energetics <=

    Nuclear Repulsion Energy =             49.6615272746889573
    One-Electron Energy =               -1219.6033226770755391
    Two-Electron Energy =                 394.7429617445837380
    DFT Exchange-Correlation Energy =     -41.4460201239178829
    Empirical Dispersion Energy =           0.0000000000000000
    VV10 Nonlocal Energy =                  0.0000000000000000
    Total Energy =                       -816.6448537817207125

  UHF NO Occupations:
  HONO-2 :    8 A1 1.9999672
  HONO-1 :    9 A1 1.9981245
  HONO-0 :    4 B2 1.0000000
  LUNO+0 :   10 A1 0.0018755
  LUNO+1 :   11 A1 0.0000328
  LUNO+2 :    5 B2 0.0000051
  LUNO+3 :    4 B1 0.0000032

Computation Completed

Properties will be evaluated at   0.000000,   0.000000,   0.000000 [a0]

Properties computed using the SCF density matrix

 Multipole Moments:

 ------------------------------------------------------------------------------------
     Multipole            Electronic (a.u.)      Nuclear  (a.u.)        Total (a.u.)
 ------------------------------------------------------------------------------------

 L = 1.  Multiply by 2.5417464519 to convert [e a0] to [Debye]
 Dipole X            :          0.0000000            0.0000000            0.0000000
 Dipole Y            :          0.0000000            0.0000000            0.0000000
 Dipole Z            :         -2.1109954            4.1742960            2.0633006
 Magnitude           :                                                    2.0633006

 ------------------------------------------------------------------------------------

*** tstop() called on Joses-MacBook-Pro-2.local at Thu Jul 17 15:43:33 2025
Module time:
	user time   =       6.61 seconds =       0.11 minutes
	system time =       1.72 seconds =       0.03 minutes
	total time  =          1 seconds =       0.02 minutes
Total time:
	user time   =     214.15 seconds =       3.57 minutes
	system time =      56.20 seconds =       0.94 minutes
	total time  =         26 seconds =       0.43 minutes

*** tstart() called on Joses-MacBook-Pro-2.local
*** at Thu Jul 17 15:43:33 2025

         ------------------------------------------------------------
                                   SCF GRAD
                          Rob Parrish, Justin Turney,
                       Andy Simmonett, and Alex Sokolov
         ------------------------------------------------------------

  ==> Geometry <==

    Molecular point group: c2v
    Full point group: C_inf_v

    Geometry (in Angstrom), charge = 1, multiplicity = 2:

       Center              X                  Y                   Z               Mass
    ------------   -----------------  -----------------  -----------------  -----------------
         SI           0.000000000000     0.000000000000     1.579471709376    27.976926534650
         AR           0.000000000000     0.000000000000    -1.105758979388    39.962383123700

  Nuclear repulsion =   49.661527274688957

  ==> Basis Set <==

  Basis Set: CC-PVDZ
    Blend: CC-PVDZ
    Number of shells: 16
    Number of basis functions: 36
    Number of Cartesian functions: 38
    Spherical Harmonics?: true
    Max angular momentum: 2

  ==> DFJKGrad: Density-Fitted SCF Gradients <==

    Gradient:                    1
    J tasked:                  Yes
    K tasked:                  Yes
    wK tasked:                  No
    OpenMP threads:              1
    Integrals threads:           1
    Memory [MiB]:              375
    Schwarz Cutoff:          1E-12
    Fitting Condition:       1E-10

   => Auxiliary Basis Set <=

  Basis Set: (CC-PVDZ AUX)
    Blend: CC-PVDZ-JKFIT
    Number of shells: 72
    Number of basis functions: 224
    Number of Cartesian functions: 260
    Spherical Harmonics?: true
    Max angular momentum: 3

  ==> DFT Potential <==

   => LibXC <=

    Version 6.2.2
    S. Lehtola, C. Steigemann, M. J.T. Oliveira, and M. A.L. Marques.,  SoftwareX 7, 1â€“5 (2018) (10.1016/j.softx.2017.11.002)

   => Composite Functional: B3LYP <=

    B3LYP Hyb-GGA Exchange-Correlation Functional

    P. J. Stephens, F. J. Devlin, C. F. Chabalowski, and M. J. Frisch.,  J. Phys. Chem. 98, 11623 (1994) (10.1021/j100096a001)

    Deriv               =              1
    GGA                 =           TRUE
    Meta                =          FALSE

    Exchange Hybrid     =           TRUE
    MP2 Hybrid          =          FALSE

   => Exchange Functionals <=

    0.0800   Slater exchange
    0.7200         Becke 88

   => Exact (HF) Exchange <=

    0.2000               HF

   => Correlation Functionals <=

    0.1900   Vosko, Wilk & Nusair (VWN5_RPA)
    0.8100   Lee, Yang & Parr

   => LibXC Density Thresholds  <==

    XC_HYB_GGA_XC_B3LYP:  1.00E-15

   => Molecular Quadrature <=

    Radial Scheme          =       TREUTLER
    Pruning Scheme         =           NONE
    Nuclear Scheme         =       TREUTLER

    Blocking Scheme        =         OCTREE
    BS radius alpha        =              1
    Pruning alpha          =              1
    Radial Points          =             75
    Spherical Points       =            302
    Total Points           =          41655
    Total Blocks           =            385
    Max Points             =            256
    Max Functions          =             36
    Weights Tolerance      =       1.00E-15

  -Total Gradient:
     Atom            X                  Y                   Z
    ------   -----------------  -----------------  -----------------
       1        0.000000000000    -0.000000000000    -0.000063178033
       2        0.000000000000    -0.000000000000     0.000092314950

*** tstop() called on Joses-MacBook-Pro-2.local at Thu Jul 17 15:43:33 2025
Module time:
	user time   =       2.69 seconds =       0.04 minutes
	system time =       1.20 seconds =       0.02 minutes
	total time  =          0 seconds =       0.00 minutes
Total time:
	user time   =     216.84 seconds =       3.61 minutes
	system time =      57.40 seconds =       0.96 minutes
	total time  =         26 seconds =       0.43 minutes

    			-----------------------------------------

    			 OPTKING 3.0: for geometry optimizations

    			     By R.A. King, Bethel University

    			        with contributions from

    			    A.V. Copan, J. Cayton, A. Heide

    			-----------------------------------------

	                            ===> Fragment 1 <==

	 Z (Atomic Numbers)          Masses                          Geom
	      14.000000            27.976927          0.00000000  0.00000000  2.98476895
	      18.000000            39.962383          0.00000000  0.00000000 -2.08958163

	 - Coordinate -           - BOHR/RAD -       - ANG/DEG -
	 R(1,2)           =         5.074351           2.685231

	        --- Internal Coordinate Step in ANG or DEG, aJ/ANG or AJ/DEG ---
	-------------------------------------------------------------------------------
	           Coordinate      Previous         Force          Change          New
	           ----------      --------        ------          ------        ------
	               R(1,2)       2.68523        0.00064        0.00192       2.68715
	-------------------------------------------------------------------------------

	                                 ==> Convergence Check <==

	Measures of convergence in internal coordinates in au.

	Criteria marked as inactive (o), active & met (*), and active & unmet ( ).

	----------------------------------------------------------------------------------------------
	   Step    Total Energy     Delta E     Max Force     RMS Force      Max Disp      RMS Disp
	----------------------------------------------------------------------------------------------
	  Convergence Criteria     1.00e-06 *    3.00e-04 *             o    1.20e-03 *             o
	----------------------------------------------------------------------------------------------
	    17    -816.64485378   -9.45e-07 *    7.77e-05 *    7.77e-05 o    3.62e-03      3.62e-03 o  ~
	----------------------------------------------------------------------------------------------

Next Geometry in Ang
	Fragment 1 (Ang)

	   Si   0.0000000000   0.0000000000   1.5804299723
	   Ar   0.0000000000   0.0000000000  -1.1067172423

    Final optimized geometry and variables:
    Molecular point group: c2v
    Full point group: C_inf_v

    Geometry (in Angstrom), charge = 1, multiplicity = 2:

    SI           0.000000000000     0.000000000000     1.579471709376
    AR           0.000000000000     0.000000000000    -1.105758979388

    Psi4 stopped on: Thursday, 17 July 2025 03:43PM
    Psi4 wall time for execution: 0:00:26.65

*** Psi4 exiting successfully. Buy a developer a beer!
