                               Psi4 1.9.1 release

  ==> Input File <==

--------------------------------------------------------------------------
molecule {
1 2
H   0.00000        0.60000        0.00000
Al   0.00000       -0.60000        0.00000
}

set {
basis              cc-pvdz
reference          uks
maxiter            500
geom_maxiter       500
DAMPING_PERCENTAGE 1
guess              SAP
}

optimize('b3lyp')
--------------------------------------------------------------------------

    Molecular point group: c2v
  Charge       = 1
  Multiplicity = 2
  Basis Set: CC-PVDZ
    Blend: CC-PVDZ
  Basis Set: (CC-PVDZ AUX)
    Blend: CC-PVDZ-JKFIT
  @DF-UKS Final Energy:  -242.62872727566804
    Total Energy =                       -242.6287272756680409
 Dipole X            :          0.0000000            0.0000000            0.0000000
 Dipole Y            :          0.0000000            0.0000000            0.0000000
 Dipole Z            :         -1.2829291            1.1245291           -0.1583999
 Magnitude           :                                                    0.1583999
    Molecular point group: c2v
  Basis Set: CC-PVDZ
    Blend: CC-PVDZ
  Basis Set: (CC-PVDZ AUX)
    Blend: CC-PVDZ-JKFIT
  Basis Set: CC-PVDZ
    Blend: CC-PVDZ
  Basis Set: (CC-PVDZ AUX)
    Blend: CC-PVDZ-JKFIT
  @DF-UKS Final Energy:  -242.68553784818906
    Total Energy =                       -242.6855378481890284
  Basis Set: CC-PVDZ
    Blend: CC-PVDZ
  Basis Set: (CC-PVDZ AUX)
    Blend: CC-PVDZ-JKFIT
  Basis Set: CC-PVDZ
    Blend: CC-PVDZ
  @DF-UKS Final Energy:  -242.69219014387497
    Total Energy =                       -242.6921901438749956
  @DF-UKS Final Energy:  -242.69500705765176
    Total Energy =                       -242.6950070576517930
  @DF-UKS Final Energy:  -242.69534448886012
    Total Energy =                       -242.6953444888601155
  @DF-UKS Final Energy:  -242.69539242562112
    Total Energy =                       -242.6953924256210939
  @DF-UKS Final Energy:  -242.69539983888839
    Total Energy =                       -242.6953998388883917
  Basis Set: (CC-PVDZ AUX)
    Blend: CC-PVDZ-JKFIT
  Basis Set: CC-PVDZ
    Blend: CC-PVDZ
  Basis Set: (CC-PVDZ AUX)
    Blend: CC-PVDZ-JKFIT
  @DF-UKS Final Energy:  -242.69540115089436
    Total Energy =                       -242.6954011508943552
  Basis Set: CC-PVDZ
    Blend: CC-PVDZ
  Basis Set: (CC-PVDZ AUX)
    Blend: CC-PVDZ-JKFIT
  Charge       = 1
  Multiplicity = 2
  Basis Set: CC-PVDZ
    Blend: CC-PVDZ
  Basis Set: (CC-PVDZ AUX)
    Blend: CC-PVDZ-JKFIT

    Orbital Energies [Eh]
    ---------------------

    Alpha Occupied:

       1A1   -56.402050     2A1    -4.475676     1B2    -3.029262
       1B1    -3.029262     3A1    -3.025406     4A1    -0.666879
       5A1    -0.511195

    Alpha Virtual:

       2B2    -0.320410     2B1    -0.320410     6A1    -0.180723
       7A1    -0.057693     8A1    -0.019718     3B1    -0.010112
       3B2    -0.010112     4B2     0.007832     4B1     0.007832
       9A1     0.015978     1A2     0.015978    10A1     0.160979
      11A1     0.409504     5B1     1.119670     5B2     1.119670
      12A1     1.474501

    Beta Occupied:

       1A1   -56.399390     2A1    -4.471680     1B1    -3.026843
       1B2    -3.026843     3A1    -3.019198     4A1    -0.625563

    Beta Virtual:

       5A1    -0.397147     2B2    -0.303951     2B1    -0.303951
       6A1    -0.146843     7A1    -0.053864     8A1     0.003154
       3B2     0.009147     3B1     0.009147     4B1     0.021649
       4B2     0.021649     9A1     0.029521     1A2     0.029521
      10A1     0.185561    11A1     0.459886     5B1     1.173384
       5B2     1.173384    12A1     1.520904

    Final Occupation by Irrep:
             A1    A2    B1    B2
    DOCC [     4,    0,    1,    1 ]
    SOCC [     1,    0,    0,    0 ]
    NA   [     5,    0,    1,    1 ]
    NB   [     4,    0,    1,    1 ]

  @DF-UKS Final Energy:  -242.69540125587028

   => Energetics <=

    Nuclear Repulsion Energy =              4.1977132524088088
    One-Electron Energy =                -341.3098325723440780
    Two-Electron Energy =                 109.5045197610236443
    DFT Exchange-Correlation Energy =     -15.0878016969586621
    Empirical Dispersion Energy =           0.0000000000000000
    VV10 Nonlocal Energy =                  0.0000000000000000
    Total Energy =                       -242.6954012558703084

  UHF NO Occupations:
  HONO-2 :    1 B2 1.9999995
  HONO-1 :    4 A1 1.9956539
  HONO-0 :    5 A1 1.0000000
  LUNO+0 :    6 A1 0.0043461
  LUNO+1 :    2 B2 0.0000005
  LUNO+2 :    2 B1 0.0000005
  LUNO+3 :    7 A1 0.0000003

Computation Completed

Properties will be evaluated at   0.000000,   0.000000,   0.000000 [a0]

Properties computed using the SCF density matrix

 Multipole Moments:

 ------------------------------------------------------------------------------------
     Multipole            Electronic (a.u.)      Nuclear  (a.u.)        Total (a.u.)
 ------------------------------------------------------------------------------------

 L = 1.  Multiply by 2.5417464519 to convert [e a0] to [Debye]
 Dipole X            :          0.0000000            0.0000000            0.0000000
 Dipole Y            :          0.0000000            0.0000000            0.0000000
 Dipole Z            :         -1.6524635            1.5357523           -0.1167112
 Magnitude           :                                                    0.1167112

 ------------------------------------------------------------------------------------

*** tstop() called on Joses-MacBook-Pro-2.local at Thu Jul 17 12:22:11 2025
Module time:
	user time   =       1.86 seconds =       0.03 minutes
	system time =       3.87 seconds =       0.06 minutes
	total time  =          1 seconds =       0.02 minutes
Total time:
	user time   =      30.05 seconds =       0.50 minutes
	system time =      39.55 seconds =       0.66 minutes
	total time  =          7 seconds =       0.12 minutes

*** tstart() called on Joses-MacBook-Pro-2.local
*** at Thu Jul 17 12:22:11 2025

         ------------------------------------------------------------
                                   SCF GRAD
                          Rob Parrish, Justin Turney,
                       Andy Simmonett, and Alex Sokolov
         ------------------------------------------------------------

  ==> Geometry <==

    Molecular point group: c2v
    Full point group: C_inf_v

    Geometry (in Angstrom), charge = 1, multiplicity = 2:

       Center              X                  Y                   Z               Mass
    ------------   -----------------  -----------------  -----------------  -----------------
         H            0.000000000000     0.000000000000     1.579811982454     1.007825032230
         AL           0.000000000000     0.000000000000    -0.059009758112    26.981538530000

  Nuclear repulsion =    4.197713252408809

  ==> Basis Set <==

  Basis Set: CC-PVDZ
    Blend: CC-PVDZ
    Number of shells: 11
    Number of basis functions: 23
    Number of Cartesian functions: 24
    Spherical Harmonics?: true
    Max angular momentum: 2

  ==> DFJKGrad: Density-Fitted SCF Gradients <==

    Gradient:                    1
    J tasked:                  Yes
    K tasked:                  Yes
    wK tasked:                  No
    OpenMP threads:              1
    Integrals threads:           1
    Memory [MiB]:              375
    Schwarz Cutoff:          1E-12
    Fitting Condition:       1E-10

   => Auxiliary Basis Set <=

  Basis Set: (CC-PVDZ AUX)
    Blend: CC-PVDZ-JKFIT
    Number of shells: 45
    Number of basis functions: 135
    Number of Cartesian functions: 155
    Spherical Harmonics?: true
    Max angular momentum: 3

  ==> DFT Potential <==

   => LibXC <=

    Version 6.2.2
    S. Lehtola, C. Steigemann, M. J.T. Oliveira, and M. A.L. Marques.,  SoftwareX 7, 1â€“5 (2018) (10.1016/j.softx.2017.11.002)

   => Composite Functional: B3LYP <=

    B3LYP Hyb-GGA Exchange-Correlation Functional

    P. J. Stephens, F. J. Devlin, C. F. Chabalowski, and M. J. Frisch.,  J. Phys. Chem. 98, 11623 (1994) (10.1021/j100096a001)

    Deriv               =              1
    GGA                 =           TRUE
    Meta                =          FALSE

    Exchange Hybrid     =           TRUE
    MP2 Hybrid          =          FALSE

   => Exchange Functionals <=

    0.0800   Slater exchange
    0.7200         Becke 88

   => Exact (HF) Exchange <=

    0.2000               HF

   => Correlation Functionals <=

    0.1900   Vosko, Wilk & Nusair (VWN5_RPA)
    0.8100   Lee, Yang & Parr

   => LibXC Density Thresholds  <==

    XC_HYB_GGA_XC_B3LYP:  1.00E-15

   => Molecular Quadrature <=

    Radial Scheme          =       TREUTLER
    Pruning Scheme         =           NONE
    Nuclear Scheme         =       TREUTLER

    Blocking Scheme        =         OCTREE
    BS radius alpha        =              1
    Pruning alpha          =              1
    Radial Points          =             75
    Spherical Points       =            302
    Total Points           =          43425
    Total Blocks           =            398
    Max Points             =            251
    Max Functions          =             23
    Weights Tolerance      =       1.00E-15

  -Total Gradient:
     Atom            X                  Y                   Z
    ------   -----------------  -----------------  -----------------
       1       -0.000000000000     0.000000000000    -0.000015148086
       2        0.000000000000    -0.000000000000     0.000016623617

*** tstop() called on Joses-MacBook-Pro-2.local at Thu Jul 17 12:22:11 2025
Module time:
	user time   =       0.56 seconds =       0.01 minutes
	system time =       1.20 seconds =       0.02 minutes
	total time  =          0 seconds =       0.00 minutes
Total time:
	user time   =      30.61 seconds =       0.51 minutes
	system time =      40.75 seconds =       0.68 minutes
	total time  =          7 seconds =       0.12 minutes

    			-----------------------------------------

    			 OPTKING 3.0: for geometry optimizations

    			     By R.A. King, Bethel University

    			        with contributions from

    			    A.V. Copan, J. Cayton, A. Heide

    			-----------------------------------------

	                            ===> Fragment 1 <==

	 Z (Atomic Numbers)          Masses                          Geom
	       1.000000             1.007825          0.00000000  0.00000000  2.98541198
	      13.000000            26.981539          0.00000000  0.00000000 -0.11151228

	 - Coordinate -           - BOHR/RAD -       - ANG/DEG -
	 R(1,2)           =         3.096924           1.638822

	        --- Internal Coordinate Step in ANG or DEG, aJ/ANG or AJ/DEG ---
	-------------------------------------------------------------------------------
	           Coordinate      Previous         Force          Change          New
	           ----------      --------        ------          ------        ------
	               R(1,2)       1.63882        0.00013        0.00009       1.63891
	-------------------------------------------------------------------------------

	                                 ==> Convergence Check <==

	Measures of convergence in internal coordinates in au.

	Criteria marked as inactive (o), active & met (*), and active & unmet ( ).

	----------------------------------------------------------------------------------------------
	   Step    Total Energy     Delta E     Max Force     RMS Force      Max Disp      RMS Disp
	----------------------------------------------------------------------------------------------
	  Convergence Criteria     1.00e-06 *    3.00e-04 *             o    1.20e-03 *             o
	----------------------------------------------------------------------------------------------
	     9    -242.69540126   -1.05e-07 *    1.59e-05 *    1.59e-05 o    1.68e-04 *    1.68e-04 o  ~
	----------------------------------------------------------------------------------------------

Next Geometry in Ang
	Fragment 1 (Ang)

	    H   0.0000000000   0.0000000000   1.5798563994
	   Al   0.0000000000   0.0000000000  -0.0590541751

    Final optimized geometry and variables:
    Molecular point group: c2v
    Full point group: C_inf_v

    Geometry (in Angstrom), charge = 1, multiplicity = 2:

    H            0.000000000000     0.000000000000     1.579811982454
    AL           0.000000000000     0.000000000000    -0.059009758112

    Psi4 stopped on: Thursday, 17 July 2025 12:22PM
    Psi4 wall time for execution: 0:00:07.56

*** Psi4 exiting successfully. Buy a developer a beer!
