                               Psi4 1.9.1 release

  ==> Input File <==

--------------------------------------------------------------------------
molecule {
1 2
He   0.00000        0.60000        0.00000
Si   0.00000       -0.60000        0.00000
}

set {
basis              cc-pvdz
reference          uks
maxiter            500
geom_maxiter       500
DAMPING_PERCENTAGE 1
guess              SAP
}

optimize('b3lyp')
--------------------------------------------------------------------------

    Molecular point group: c2v
  Charge       = 1
  Multiplicity = 2
  Basis Set: CC-PVDZ
    Blend: CC-PVDZ
  Basis Set: (CC-PVDZ AUX)
    Blend: CC-PVDZ-JKFIT + DEF2-UNIVERSAL-JKFIT
  @DF-UKS Final Energy:  -291.83721847944201
    Total Energy =                       -291.8372184794420150
 Dipole X            :          0.0000000            0.0000000            0.0000000
 Dipole Y            :          0.0000000            0.0000000            0.0000000
 Dipole Z            :          0.7882699           -0.0058566            0.7824133
 Magnitude           :                                                    0.7824133
    Molecular point group: c2v
  Basis Set: CC-PVDZ
    Blend: CC-PVDZ
  Basis Set: (CC-PVDZ AUX)
    Blend: CC-PVDZ-JKFIT + DEF2-UNIVERSAL-JKFIT
  Basis Set: CC-PVDZ
    Blend: CC-PVDZ
  Basis Set: (CC-PVDZ AUX)
    Blend: CC-PVDZ-JKFIT + DEF2-UNIVERSAL-JKFIT
  @DF-UKS Final Energy:  -291.94174279134381
    Total Energy =                       -291.9417427913438132
  Basis Set: CC-PVDZ
    Blend: CC-PVDZ
  Basis Set: (CC-PVDZ AUX)
    Blend: CC-PVDZ-JKFIT + DEF2-UNIVERSAL-JKFIT
  Basis Set: CC-PVDZ
    Blend: CC-PVDZ
  @DF-UKS Final Energy:  -291.96508763364318
    Total Energy =                       -291.9650876336432361
  @DF-UKS Final Energy:  -291.98328069859502
    Total Energy =                       -291.9832806985949674
  @DF-UKS Final Energy:  -291.99198247963972
    Total Energy =                       -291.9919824796397165
  @DF-UKS Final Energy:  -291.99636907343807
    Total Energy =                       -291.9963690734380179
  @DF-UKS Final Energy:  -291.99836595174520
    Total Energy =                       -291.9983659517451997
  @DF-UKS Final Energy:  -291.99919795928474
    Total Energy =                       -291.9991979592847429
  @DF-UKS Final Energy:  -291.99948690139291
    Total Energy =                       -291.9994869013929133
  @DF-UKS Final Energy:  -291.99954790279355
    Total Energy =                       -291.9995479027935517
  @DF-UKS Final Energy:  -291.99956584882187
    Total Energy =                       -291.9995658488218737
  Basis Set: (CC-PVDZ AUX)
    Blend: CC-PVDZ-JKFIT + DEF2-UNIVERSAL-JKFIT
  Basis Set: CC-PVDZ
    Blend: CC-PVDZ
  Basis Set: (CC-PVDZ AUX)
    Blend: CC-PVDZ-JKFIT + DEF2-UNIVERSAL-JKFIT
  @DF-UKS Final Energy:  -291.99956813069571
    Total Energy =                       -291.9995681306957067
  Basis Set: CC-PVDZ
    Blend: CC-PVDZ
  Basis Set: (CC-PVDZ AUX)
    Blend: CC-PVDZ-JKFIT + DEF2-UNIVERSAL-JKFIT
  Charge       = 1
  Multiplicity = 2
  Basis Set: CC-PVDZ
    Blend: CC-PVDZ
  Basis Set: (CC-PVDZ AUX)
    Blend: CC-PVDZ-JKFIT + DEF2-UNIVERSAL-JKFIT

    Orbital Energies [Eh]
    ---------------------

    Alpha Occupied:

       1A1   -66.541974     2A1    -5.673436     1B2    -4.033803
       3A1    -4.033792     1B1    -4.029211     4A1    -0.878889
       5A1    -0.744747     2B1    -0.476342

    Alpha Virtual:

       2B2    -0.401651     6A1    -0.394818     7A1    -0.000788
       3B1     0.051121     8A1     0.053070     4B1     0.053918
       1A2     0.054253     3B2     0.058573     9A1     0.062909
       4B2     0.069257    10A1     0.095894    11A1     1.024314
       5B2     1.969555     5B1     1.970007    12A1     2.008696

    Beta Occupied:

       1A1   -66.538195     2A1    -5.669249     1B2    -4.031692
       3A1    -4.031678     1B1    -4.015204     4A1    -0.878675
       5A1    -0.707502

    Beta Virtual:

       2B2    -0.391225     6A1    -0.383910     2B1    -0.353763
       7A1     0.010194     3B2     0.061353     8A1     0.062119
       4B2     0.072820     3B1     0.083439     9A1     0.094376
       4B1     0.102512     1A2     0.102764    10A1     0.116882
      11A1     1.024846     5B2     1.969501     5B1     1.970039
      12A1     2.008845

    Final Occupation by Irrep:
             A1    A2    B1    B2
    DOCC [     5,    0,    1,    1 ]
    SOCC [     0,    0,    1,    0 ]
    NA   [     5,    0,    2,    1 ]
    NB   [     5,    0,    1,    1 ]

  @DF-UKS Final Energy:  -291.99956839898664

   => Energetics <=

    Nuclear Repulsion Energy =              5.6588542669070838
    One-Electron Energy =                -410.5988089940474310
    Two-Electron Energy =                 130.3679202102572390
    DFT Exchange-Correlation Energy =     -17.4275338821035177
    Empirical Dispersion Energy =           0.0000000000000000
    VV10 Nonlocal Energy =                  0.0000000000000000
    Total Energy =                       -291.9995683989866393

  UHF NO Occupations:
  HONO-2 :    4 A1 1.9999993
  HONO-1 :    5 A1 1.9981674
  HONO-0 :    2 B1 1.0000000
  LUNO+0 :    6 A1 0.0018326
  LUNO+1 :    7 A1 0.0000007
  LUNO+2 :    2 B2 0.0000000
  LUNO+3 :    8 A1 0.0000000

Computation Completed

Properties will be evaluated at   0.000000,   0.000000,   0.000000 [a0]

Properties computed using the SCF density matrix

 Multipole Moments:

 ------------------------------------------------------------------------------------
     Multipole            Electronic (a.u.)      Nuclear  (a.u.)        Total (a.u.)
 ------------------------------------------------------------------------------------

 L = 1.  Multiply by 2.5417464519 to convert [e a0] to [Debye]
 Dipole X            :          0.0000000            0.0000000            0.0000000
 Dipole Y            :          0.0000000            0.0000000            0.0000000
 Dipole Z            :         -0.4895867           -0.0127790           -0.5023657
 Magnitude           :                                                    0.5023657

 ------------------------------------------------------------------------------------

*** tstop() called on Joses-MacBook-Pro-2.local at Thu Jul 17 12:37:24 2025
Module time:
	user time   =       1.84 seconds =       0.03 minutes
	system time =       2.89 seconds =       0.05 minutes
	total time  =          0 seconds =       0.00 minutes
Total time:
	user time   =      46.69 seconds =       0.78 minutes
	system time =      62.32 seconds =       1.04 minutes
	total time  =         10 seconds =       0.17 minutes

*** tstart() called on Joses-MacBook-Pro-2.local
*** at Thu Jul 17 12:37:24 2025

         ------------------------------------------------------------
                                   SCF GRAD
                          Rob Parrish, Justin Turney,
                       Andy Simmonett, and Alex Sokolov
         ------------------------------------------------------------

  ==> Geometry <==

    Molecular point group: c2v
    Full point group: C_inf_v

    Geometry (in Angstrom), charge = 1, multiplicity = 2:

       Center              X                  Y                   Z               Mass
    ------------   -----------------  -----------------  -----------------  -----------------
         HE           0.000000000000     0.000000000000     2.290649192356     4.002603254130
         SI           0.000000000000     0.000000000000    -0.327718625562    27.976926534650

  Nuclear repulsion =    5.658854266907084

  ==> Basis Set <==

  Basis Set: CC-PVDZ
    Blend: CC-PVDZ
    Number of shells: 11
    Number of basis functions: 23
    Number of Cartesian functions: 24
    Spherical Harmonics?: true
    Max angular momentum: 2

  ==> DFJKGrad: Density-Fitted SCF Gradients <==

    Gradient:                    1
    J tasked:                  Yes
    K tasked:                  Yes
    wK tasked:                  No
    OpenMP threads:              1
    Integrals threads:           1
    Memory [MiB]:              375
    Schwarz Cutoff:          1E-12
    Fitting Condition:       1E-10

   => Auxiliary Basis Set <=

  Basis Set: (CC-PVDZ AUX)
    Blend: CC-PVDZ-JKFIT + DEF2-UNIVERSAL-JKFIT
    Number of shells: 45
    Number of basis functions: 135
    Number of Cartesian functions: 155
    Spherical Harmonics?: true
    Max angular momentum: 3

  ==> DFT Potential <==

   => LibXC <=

    Version 6.2.2
    S. Lehtola, C. Steigemann, M. J.T. Oliveira, and M. A.L. Marques.,  SoftwareX 7, 1â€“5 (2018) (10.1016/j.softx.2017.11.002)

   => Composite Functional: B3LYP <=

    B3LYP Hyb-GGA Exchange-Correlation Functional

    P. J. Stephens, F. J. Devlin, C. F. Chabalowski, and M. J. Frisch.,  J. Phys. Chem. 98, 11623 (1994) (10.1021/j100096a001)

    Deriv               =              1
    GGA                 =           TRUE
    Meta                =          FALSE

    Exchange Hybrid     =           TRUE
    MP2 Hybrid          =          FALSE

   => Exchange Functionals <=

    0.0800   Slater exchange
    0.7200         Becke 88

   => Exact (HF) Exchange <=

    0.2000               HF

   => Correlation Functionals <=

    0.1900   Vosko, Wilk & Nusair (VWN5_RPA)
    0.8100   Lee, Yang & Parr

   => LibXC Density Thresholds  <==

    XC_HYB_GGA_XC_B3LYP:  1.00E-15

   => Molecular Quadrature <=

    Radial Scheme          =       TREUTLER
    Pruning Scheme         =           NONE
    Nuclear Scheme         =       TREUTLER

    Blocking Scheme        =         OCTREE
    BS radius alpha        =              1
    Pruning alpha          =              1
    Radial Points          =             75
    Spherical Points       =            302
    Total Points           =          43008
    Total Blocks           =            386
    Max Points             =            255
    Max Functions          =             23
    Weights Tolerance      =       1.00E-15

  -Total Gradient:
     Atom            X                  Y                   Z
    ------   -----------------  -----------------  -----------------
       1        0.000000000000    -0.000000000000    -0.000026887688
       2        0.000000000000     0.000000000000     0.000014626687

*** tstop() called on Joses-MacBook-Pro-2.local at Thu Jul 17 12:37:25 2025
Module time:
	user time   =       0.56 seconds =       0.01 minutes
	system time =       1.31 seconds =       0.02 minutes
	total time  =          1 seconds =       0.02 minutes
Total time:
	user time   =      47.26 seconds =       0.79 minutes
	system time =      63.63 seconds =       1.06 minutes
	total time  =         11 seconds =       0.18 minutes

    			-----------------------------------------

    			 OPTKING 3.0: for geometry optimizations

    			     By R.A. King, Bethel University

    			        with contributions from

    			    A.V. Copan, J. Cayton, A. Heide

    			-----------------------------------------

	                            ===> Fragment 1 <==

	 Z (Atomic Numbers)          Masses                          Geom
	       2.000000             4.002603          0.00000000  0.00000000  4.32869962
	      14.000000            27.976927          0.00000000  0.00000000 -0.61929845

	 - Coordinate -           - BOHR/RAD -       - ANG/DEG -
	 R(1,2)           =         4.947998           2.618368

	        --- Internal Coordinate Step in ANG or DEG, aJ/ANG or AJ/DEG ---
	-------------------------------------------------------------------------------
	           Coordinate      Previous         Force          Change          New
	           ----------      --------        ------          ------        ------
	               R(1,2)       2.61837        0.00017        0.00275       2.62112
	-------------------------------------------------------------------------------

	                                 ==> Convergence Check <==

	Measures of convergence in internal coordinates in au.

	Criteria marked as inactive (o), active & met (*), and active & unmet ( ).

	----------------------------------------------------------------------------------------------
	   Step    Total Energy     Delta E     Max Force     RMS Force      Max Disp      RMS Disp
	----------------------------------------------------------------------------------------------
	  Convergence Criteria     1.00e-06 *    3.00e-04 *             o    1.20e-03 *             o
	----------------------------------------------------------------------------------------------
	    13    -291.99956840   -2.68e-07 *    2.08e-05 *    2.08e-05 o    5.20e-03      5.20e-03 o  ~
	----------------------------------------------------------------------------------------------

Next Geometry in Ang
	Fragment 1 (Ang)

	   He   0.0000000000   0.0000000000   2.2920241212
	   Si   0.0000000000   0.0000000000  -0.3290935544

    Final optimized geometry and variables:
    Molecular point group: c2v
    Full point group: C_inf_v

    Geometry (in Angstrom), charge = 1, multiplicity = 2:

    HE           0.000000000000     0.000000000000     2.290649192356
    SI           0.000000000000     0.000000000000    -0.327718625562

    Psi4 stopped on: Thursday, 17 July 2025 12:37PM
    Psi4 wall time for execution: 0:00:11.06

*** Psi4 exiting successfully. Buy a developer a beer!
