                               Psi4 1.9.1 release

  ==> Input File <==

--------------------------------------------------------------------------
molecule {
1 2
B   0.00000        0.60000        0.00000
B   0.00000       -0.60000        0.00000
}

set {
basis              cc-pvdz
reference          uks
maxiter            500
geom_maxiter       500
DAMPING_PERCENTAGE 1
guess              SAP
}

optimize('b3lyp')
--------------------------------------------------------------------------

    Molecular point group: d2h
  Charge       = 1
  Multiplicity = 2
  Basis Set: CC-PVDZ
    Blend: CC-PVDZ
  Basis Set: (CC-PVDZ AUX)
    Blend: CC-PVDZ-JKFIT
  @DF-UKS Final Energy:   -48.87230483839917
    Total Energy =                        -48.8723048383991667
 Dipole X            :          0.0000000            0.0000000            0.0000000
 Dipole Y            :          0.0000000            0.0000000            0.0000000
 Dipole Z            :          0.0000000            0.0000000            0.0000000
 Magnitude           :                                                    0.0000000
    Molecular point group: d2h
  Basis Set: CC-PVDZ
    Blend: CC-PVDZ
  Basis Set: (CC-PVDZ AUX)
    Blend: CC-PVDZ-JKFIT
  Basis Set: CC-PVDZ
    Blend: CC-PVDZ
  Basis Set: (CC-PVDZ AUX)
    Blend: CC-PVDZ-JKFIT
  @DF-UKS Final Energy:   -48.92700022429815
    Total Energy =                        -48.9270002242981619
  Basis Set: CC-PVDZ
    Blend: CC-PVDZ
  Basis Set: (CC-PVDZ AUX)
    Blend: CC-PVDZ-JKFIT
  Basis Set: CC-PVDZ
    Blend: CC-PVDZ
  @DF-UKS Final Energy:   -49.00671832725213
    Total Energy =                        -49.0067183272521305
  @DF-UKS Final Energy:   -49.02269010592488
    Total Energy =                        -49.0226901059248874
  @DF-UKS Final Energy:   -49.02208031680659
    Total Energy =                        -49.0220803168065942
  @DF-UKS Final Energy:   -49.02325261425044
    Total Energy =                        -49.0232526142504383
  @DF-UKS Final Energy:   -49.02324327540498
    Total Energy =                        -49.0232432754049725
  @DF-UKS Final Energy:   -49.02344227745504
    Total Energy =                        -49.0234422774550396
  Basis Set: (CC-PVDZ AUX)
    Blend: CC-PVDZ-JKFIT
  Basis Set: CC-PVDZ
    Blend: CC-PVDZ
  Basis Set: (CC-PVDZ AUX)
    Blend: CC-PVDZ-JKFIT
  @DF-UKS Final Energy:   -49.02346533150431
    Total Energy =                        -49.0234653315043118
  Basis Set: CC-PVDZ
    Blend: CC-PVDZ
  Basis Set: (CC-PVDZ AUX)
    Blend: CC-PVDZ-JKFIT
  Charge       = 1
  Multiplicity = 2
  Basis Set: CC-PVDZ
    Blend: CC-PVDZ
  Basis Set: (CC-PVDZ AUX)
    Blend: CC-PVDZ-JKFIT

    Orbital Energies [Eh]
    ---------------------

    Alpha Occupied:

       1Ag    -7.199783     1B2u   -7.198994     2Ag    -0.833158
       2B2u   -0.609173     1B3u   -0.548153

    Alpha Virtual:

       3Ag    -0.481505     1B1u   -0.434165     1B1g   -0.312017
       1B3g   -0.262403     3B2u   -0.055907     2B3u    0.013941
       4Ag     0.018472     2B1u    0.035760     5Ag     0.072434
       2B1g    0.090261     2B3g    0.109301     4B2u    0.120984
       1B2g    0.315566     6Ag     0.319053     3B3u    0.371651
       3B1u    0.405558     5B2u    0.443500     1Au     0.550755
       6B2u    0.554648     7Ag     0.816650     3B1g    0.826462
       3B3g    0.852088     7B2u    1.015922

    Beta Occupied:

       1Ag    -7.188709     1B2u   -7.187840     2Ag    -0.827301
       1B1u   -0.530406

    Beta Virtual:

       2B2u   -0.477690     1B3u   -0.412401     3Ag    -0.405322
       1B3g   -0.278208     1B1g   -0.222572     3B2u   -0.041595
       2B1u    0.016556     4Ag     0.025559     2B3u    0.042807
       2B3g    0.097677     5Ag     0.102940     2B1g    0.125227
       4B2u    0.165104     1B2g    0.329183     6Ag     0.335231
       3B1u    0.399836     3B3u    0.443249     5B2u    0.457537
       1Au     0.573582     6B2u    0.581616     7Ag     0.856668
       3B3g    0.858394     3B1g    0.896340     7B2u    1.040886

    Final Occupation by Irrep:
             Ag   B1g   B2g   B3g    Au   B1u   B2u   B3u
Warning! Irrep has more beta than alpha electrons in symmetry 5 orbitals.
Warning! Irrep has more beta than alpha electrons in symmetry 5 orbitals.
    DOCC [     2,    0,    0,    0,    0,    0,    1,    0 ]
    SOCC [     0,    0,    0,    0,    0,    1,    1,    1 ]
    NA   [     2,    0,    0,    0,    0,    0,    2,    1 ]
    NB   [     2,    0,    0,    0,    0,    1,    1,    0 ]

  @DF-UKS Final Energy:   -49.02346550231179

   => Energetics <=

    Nuclear Repulsion Energy =              8.5715634433581620
    One-Electron Energy =                 -78.6091754263825635
    Two-Electron Energy =                  27.1773453730045311
    DFT Exchange-Correlation Energy =      -6.1631988922919199
    Empirical Dispersion Energy =           0.0000000000000000
    VV10 Nonlocal Energy =                  0.0000000000000000
    Total Energy =                        -49.0234655023117938

  UHF NO Occupations:
  HONO-2 :    2 Ag 1.9911991
  HONO-1 :    2B2u 1.0000000
  HONO-0 :    1B3u 1.0000000
  LUNO+0 :    1B1u 1.0000000
  LUNO+1 :    3 Ag 0.0088009
  LUNO+2 :    3B2u 0.0000004
  LUNO+3 :    4 Ag 0.0000002

Computation Completed

Properties will be evaluated at   0.000000,   0.000000,   0.000000 [a0]

Properties computed using the SCF density matrix

 Multipole Moments:

 ------------------------------------------------------------------------------------
     Multipole            Electronic (a.u.)      Nuclear  (a.u.)        Total (a.u.)
 ------------------------------------------------------------------------------------

 L = 1.  Multiply by 2.5417464519 to convert [e a0] to [Debye]
 Dipole X            :          0.0000000            0.0000000            0.0000000
 Dipole Y            :          0.0000000            0.0000000            0.0000000
 Dipole Z            :          0.0000000            0.0000000            0.0000000
 Magnitude           :                                                    0.0000000

 ------------------------------------------------------------------------------------
Warning! Irrep has more beta than alpha electrons in symmetry 5 orbitals.
Warning! Irrep has more beta than alpha electrons in symmetry 5 orbitals.

*** tstop() called on Joses-MacBook-Pro-2.local at Thu Jul 17 13:29:37 2025
Module time:
	user time   =       1.77 seconds =       0.03 minutes
	system time =       3.51 seconds =       0.06 minutes
	total time  =          0 seconds =       0.00 minutes
Total time:
	user time   =      25.59 seconds =       0.43 minutes
	system time =      56.87 seconds =       0.95 minutes
	total time  =          8 seconds =       0.13 minutes

*** tstart() called on Joses-MacBook-Pro-2.local
*** at Thu Jul 17 13:29:37 2025

         ------------------------------------------------------------
                                   SCF GRAD
                          Rob Parrish, Justin Turney,
                       Andy Simmonett, and Alex Sokolov
         ------------------------------------------------------------

  ==> Geometry <==

    Molecular point group: d2h
    Full point group: D_inf_h

    Geometry (in Angstrom), charge = 1, multiplicity = 2:

       Center              X                  Y                   Z               Mass
    ------------   -----------------  -----------------  -----------------  -----------------
         B           -0.000000000000     0.771704622743     0.000000000000    11.009305360000
         B            0.000000000000    -0.771704622743     0.000000000000    11.009305360000

  Nuclear repulsion =    8.571563443358162

  ==> Basis Set <==

  Basis Set: CC-PVDZ
    Blend: CC-PVDZ
    Number of shells: 12
    Number of basis functions: 28
    Number of Cartesian functions: 30
    Spherical Harmonics?: true
    Max angular momentum: 2

  ==> DFJKGrad: Density-Fitted SCF Gradients <==

    Gradient:                    1
    J tasked:                  Yes
    K tasked:                  Yes
    wK tasked:                  No
    OpenMP threads:              1
    Integrals threads:           1
    Memory [MiB]:              375
    Schwarz Cutoff:          1E-12
    Fitting Condition:       1E-10

   => Auxiliary Basis Set <=

  Basis Set: (CC-PVDZ AUX)
    Blend: CC-PVDZ-JKFIT
    Number of shells: 48
    Number of basis functions: 140
    Number of Cartesian functions: 162
    Spherical Harmonics?: true
    Max angular momentum: 3

  ==> DFT Potential <==

   => LibXC <=

    Version 6.2.2
    S. Lehtola, C. Steigemann, M. J.T. Oliveira, and M. A.L. Marques.,  SoftwareX 7, 1â€“5 (2018) (10.1016/j.softx.2017.11.002)

   => Composite Functional: B3LYP <=

    B3LYP Hyb-GGA Exchange-Correlation Functional

    P. J. Stephens, F. J. Devlin, C. F. Chabalowski, and M. J. Frisch.,  J. Phys. Chem. 98, 11623 (1994) (10.1021/j100096a001)

    Deriv               =              1
    GGA                 =           TRUE
    Meta                =          FALSE

    Exchange Hybrid     =           TRUE
    MP2 Hybrid          =          FALSE

   => Exchange Functionals <=

    0.0800   Slater exchange
    0.7200         Becke 88

   => Exact (HF) Exchange <=

    0.2000               HF

   => Correlation Functionals <=

    0.1900   Vosko, Wilk & Nusair (VWN5_RPA)
    0.8100   Lee, Yang & Parr

   => LibXC Density Thresholds  <==

    XC_HYB_GGA_XC_B3LYP:  1.00E-15

   => Molecular Quadrature <=

    Radial Scheme          =       TREUTLER
    Pruning Scheme         =           NONE
    Nuclear Scheme         =       TREUTLER

    Blocking Scheme        =         OCTREE
    BS radius alpha        =              1
    Pruning alpha          =              1
    Radial Points          =             75
    Spherical Points       =            302
    Total Points           =          42516
    Total Blocks           =            394
    Max Points             =            247
    Max Functions          =             28
    Weights Tolerance      =       1.00E-15

  -Total Gradient:
     Atom            X                  Y                   Z
    ------   -----------------  -----------------  -----------------
       1        0.000000000000    -0.000044301960     0.000000000000
       2       -0.000000000000     0.000044301960     0.000000000000

*** tstop() called on Joses-MacBook-Pro-2.local at Thu Jul 17 13:29:38 2025
Module time:
	user time   =       0.90 seconds =       0.02 minutes
	system time =       0.86 seconds =       0.01 minutes
	total time  =          1 seconds =       0.02 minutes
Total time:
	user time   =      26.50 seconds =       0.44 minutes
	system time =      57.73 seconds =       0.96 minutes
	total time  =          9 seconds =       0.15 minutes

    			-----------------------------------------

    			 OPTKING 3.0: for geometry optimizations

    			     By R.A. King, Bethel University

    			        with contributions from

    			    A.V. Copan, J. Cayton, A. Heide

    			-----------------------------------------

	                            ===> Fragment 1 <==

	 Z (Atomic Numbers)          Masses                          Geom
	       5.000000            11.009305         -0.00000000  1.45831039  0.00000000
	       5.000000            11.009305          0.00000000 -1.45831039  0.00000000

	 - Coordinate -           - BOHR/RAD -       - ANG/DEG -
	 R(1,2)           =         2.916621           1.543409

	        --- Internal Coordinate Step in ANG or DEG, aJ/ANG or AJ/DEG ---
	-------------------------------------------------------------------------------
	           Coordinate      Previous         Force          Change          New
	           ----------      --------        ------          ------        ------
	               R(1,2)       1.54341        0.00036        0.00007       1.54348
	-------------------------------------------------------------------------------

	                                 ==> Convergence Check <==

	Measures of convergence in internal coordinates in au.

	Criteria marked as inactive (o), active & met (*), and active & unmet ( ).

	----------------------------------------------------------------------------------------------
	   Step    Total Energy     Delta E     Max Force     RMS Force      Max Disp      RMS Disp
	----------------------------------------------------------------------------------------------
	  Convergence Criteria     1.00e-06 *    3.00e-04 *             o    1.20e-03 *             o
	----------------------------------------------------------------------------------------------
	    10     -49.02346550   -1.71e-07 *    4.43e-05 *    4.43e-05 o    1.34e-04 *    1.34e-04 o  ~
	----------------------------------------------------------------------------------------------

Next Geometry in Ang
	Fragment 1 (Ang)

	    B  -0.0000000000   0.7717401431   0.0000000000
	    B   0.0000000000  -0.7717401431   0.0000000000

    Final optimized geometry and variables:
    Molecular point group: d2h
    Full point group: D_inf_h

    Geometry (in Angstrom), charge = 1, multiplicity = 2:

    B           -0.000000000000     0.771704622743     0.000000000000
    B            0.000000000000    -0.771704622743     0.000000000000

    Psi4 stopped on: Thursday, 17 July 2025 01:29PM
    Psi4 wall time for execution: 0:00:08.84

*** Psi4 exiting successfully. Buy a developer a beer!
