                               Psi4 1.9.1 release

  ==> Input File <==

--------------------------------------------------------------------------
molecule {
1 2
Be   0.00000        0.60000        0.00000
Ne   0.00000       -0.60000        0.00000
}

set {
basis              cc-pvdz
reference          uks
maxiter            500
geom_maxiter       500
DAMPING_PERCENTAGE 1
guess              SAP
}

optimize('b3lyp')
--------------------------------------------------------------------------

    Molecular point group: c2v
  Charge       = 1
  Multiplicity = 2
  Basis Set: CC-PVDZ
    Blend: CC-PVDZ
  Basis Set: (CC-PVDZ AUX)
    Blend: CC-PVDZ-JKFIT + DEF2-UNIVERSAL-JKFIT
  @DF-UKS Final Energy:  -143.14502741643327
    Total Energy =                       -143.1450274164332654
 Dipole X            :          0.0000000            0.0000000            0.0000000
 Dipole Y            :          0.0000000            0.0000000            0.0000000
 Dipole Z            :          1.2192569           -0.7937203            0.4255366
 Magnitude           :                                                    0.4255366
    Molecular point group: c2v
  Basis Set: CC-PVDZ
    Blend: CC-PVDZ
  Basis Set: (CC-PVDZ AUX)
    Blend: CC-PVDZ-JKFIT + DEF2-UNIVERSAL-JKFIT
  Basis Set: CC-PVDZ
    Blend: CC-PVDZ
  Basis Set: (CC-PVDZ AUX)
    Blend: CC-PVDZ-JKFIT + DEF2-UNIVERSAL-JKFIT
  @DF-UKS Final Energy:  -143.21462951250942
    Total Energy =                       -143.2146295125094184
  Basis Set: CC-PVDZ
    Blend: CC-PVDZ
  Basis Set: (CC-PVDZ AUX)
    Blend: CC-PVDZ-JKFIT + DEF2-UNIVERSAL-JKFIT
  Basis Set: CC-PVDZ
    Blend: CC-PVDZ
  @DF-UKS Final Energy:  -143.23754446748185
    Total Energy =                       -143.2375444674818254
  @DF-UKS Final Energy:  -143.25022602687272
    Total Energy =                       -143.2502260268727241
  @DF-UKS Final Energy:  -143.25457262772511
    Total Energy =                       -143.2545726277251674
  @DF-UKS Final Energy:  -143.25705724716775
    Total Energy =                       -143.2570572471677508
  @DF-UKS Final Energy:  -143.25831641561851
    Total Energy =                       -143.2583164156185092
  @DF-UKS Final Energy:  -143.25869534079257
    Total Energy =                       -143.2586953407925705
  @DF-UKS Final Energy:  -143.25885463243634
    Total Energy =                       -143.2588546324363392
  @DF-UKS Final Energy:  -143.25889772512650
    Total Energy =                       -143.2588977251265021
  @DF-UKS Final Energy:  -143.25891283131102
    Total Energy =                       -143.2589128313110223
  Basis Set: (CC-PVDZ AUX)
    Blend: CC-PVDZ-JKFIT + DEF2-UNIVERSAL-JKFIT
  Basis Set: CC-PVDZ
    Blend: CC-PVDZ
  Basis Set: (CC-PVDZ AUX)
    Blend: CC-PVDZ-JKFIT + DEF2-UNIVERSAL-JKFIT
  @DF-UKS Final Energy:  -143.25891629589893
    Total Energy =                       -143.2589162958989277
  Basis Set: CC-PVDZ
    Blend: CC-PVDZ
  Basis Set: (CC-PVDZ AUX)
    Blend: CC-PVDZ-JKFIT + DEF2-UNIVERSAL-JKFIT
  Charge       = 1
  Multiplicity = 2
  Basis Set: CC-PVDZ
    Blend: CC-PVDZ
  Basis Set: (CC-PVDZ AUX)
    Blend: CC-PVDZ-JKFIT + DEF2-UNIVERSAL-JKFIT

    Orbital Energies [Eh]
    ---------------------

    Alpha Occupied:

       1A1   -31.323603     2A1    -4.493510     3A1    -1.781317
       4A1    -0.908094     1B1    -0.880021     1B2    -0.880021
       5A1    -0.525691

    Alpha Virtual:

       2B2    -0.336510     2B1    -0.336510     6A1    -0.287780
       7A1    -0.048908     3B2    -0.041324     3B1    -0.041324
       8A1    -0.032809     1A2     0.181920     9A1     0.181923
       4B1     0.187758     4B2     0.187758    10A1     0.274235
       5B2     1.146115     5B1     1.146115    11A1     1.231241
      12A1     1.990737    13A1     4.385347     2A2     4.385569
       6B1     4.390091     6B2     4.390091    14A1     4.408598

    Beta Occupied:

       1A1   -31.322277     2A1    -4.478119     3A1    -1.778613
       4A1    -0.901921     1B2    -0.878962     1B1    -0.878962

    Beta Virtual:

       5A1    -0.394640     2B2    -0.277520     2B1    -0.277520
       6A1    -0.237111     7A1    -0.042372     3B2    -0.026312
       3B1    -0.026312     8A1    -0.000385     4B1     0.244785
       4B2     0.244785     9A1     0.245905     1A2     0.245910
      10A1     0.331268     5B2     1.150061     5B1     1.150061
      11A1     1.234537    12A1     1.997077    13A1     4.386011
       2A2     4.386232     6B1     4.392768     6B2     4.392768
      14A1     4.411898

    Final Occupation by Irrep:
             A1    A2    B1    B2
    DOCC [     4,    0,    1,    1 ]
    SOCC [     1,    0,    0,    0 ]
    NA   [     5,    0,    1,    1 ]
    NB   [     4,    0,    1,    1 ]

  @DF-UKS Final Energy:  -143.25891677434242

   => Energetics <=

    Nuclear Repulsion Energy =             10.9305997847255121
    One-Electron Energy =                -218.6351914075735863
    Two-Electron Energy =                  76.5924488186420831
    DFT Exchange-Correlation Energy =     -12.1467739701364117
    Empirical Dispersion Energy =           0.0000000000000000
    VV10 Nonlocal Energy =                  0.0000000000000000
    Total Energy =                       -143.2589167743424241

  UHF NO Occupations:
  HONO-2 :    1 B1 1.9999914
  HONO-1 :    4 A1 1.9999873
  HONO-0 :    5 A1 1.0000000
  LUNO+0 :    6 A1 0.0000127
  LUNO+1 :    2 B2 0.0000086
  LUNO+2 :    2 B1 0.0000086
  LUNO+3 :    7 A1 0.0000005

Computation Completed

Properties will be evaluated at   0.000000,   0.000000,   0.000000 [a0]

Properties computed using the SCF density matrix

 Multipole Moments:

 ------------------------------------------------------------------------------------
     Multipole            Electronic (a.u.)      Nuclear  (a.u.)        Total (a.u.)
 ------------------------------------------------------------------------------------

 L = 1.  Multiply by 2.5417464519 to convert [e a0] to [Debye]
 Dipole X            :          0.0000000            0.0000000            0.0000000
 Dipole Y            :          0.0000000            0.0000000            0.0000000
 Dipole Z            :          3.0664108           -1.2808650            1.7855458
 Magnitude           :                                                    1.7855458

 ------------------------------------------------------------------------------------

*** tstop() called on Joses-MacBook-Pro-2.local at Thu Jul 17 13:20:07 2025
Module time:
	user time   =       1.94 seconds =       0.03 minutes
	system time =       3.73 seconds =       0.06 minutes
	total time  =          1 seconds =       0.02 minutes
Total time:
	user time   =      36.87 seconds =       0.61 minutes
	system time =      72.37 seconds =       1.21 minutes
	total time  =         11 seconds =       0.18 minutes

*** tstart() called on Joses-MacBook-Pro-2.local
*** at Thu Jul 17 13:20:07 2025

         ------------------------------------------------------------
                                   SCF GRAD
                          Rob Parrish, Justin Turney,
                       Andy Simmonett, and Alex Sokolov
         ------------------------------------------------------------

  ==> Geometry <==

    Molecular point group: c2v
    Full point group: C_inf_v

    Geometry (in Angstrom), charge = 1, multiplicity = 2:

       Center              X                  Y                   Z               Mass
    ------------   -----------------  -----------------  -----------------  -----------------
         BE           0.000000000000     0.000000000000     1.334798492421     9.012183065000
         NE           0.000000000000     0.000000000000    -0.601699855674    19.992440176200

  Nuclear repulsion =   10.930599784725512

  ==> Basis Set <==

  Basis Set: CC-PVDZ
    Blend: CC-PVDZ
    Number of shells: 12
    Number of basis functions: 28
    Number of Cartesian functions: 30
    Spherical Harmonics?: true
    Max angular momentum: 2

  ==> DFJKGrad: Density-Fitted SCF Gradients <==

    Gradient:                    1
    J tasked:                  Yes
    K tasked:                  Yes
    wK tasked:                  No
    OpenMP threads:              1
    Integrals threads:           1
    Memory [MiB]:              375
    Schwarz Cutoff:          1E-12
    Fitting Condition:       1E-10

   => Auxiliary Basis Set <=

  Basis Set: (CC-PVDZ AUX)
    Blend: CC-PVDZ-JKFIT + DEF2-UNIVERSAL-JKFIT
    Number of shells: 41
    Number of basis functions: 121
    Number of Cartesian functions: 141
    Spherical Harmonics?: true
    Max angular momentum: 3

  ==> DFT Potential <==

   => LibXC <=

    Version 6.2.2
    S. Lehtola, C. Steigemann, M. J.T. Oliveira, and M. A.L. Marques.,  SoftwareX 7, 1â€“5 (2018) (10.1016/j.softx.2017.11.002)

   => Composite Functional: B3LYP <=

    B3LYP Hyb-GGA Exchange-Correlation Functional

    P. J. Stephens, F. J. Devlin, C. F. Chabalowski, and M. J. Frisch.,  J. Phys. Chem. 98, 11623 (1994) (10.1021/j100096a001)

    Deriv               =              1
    GGA                 =           TRUE
    Meta                =          FALSE

    Exchange Hybrid     =           TRUE
    MP2 Hybrid          =          FALSE

   => Exchange Functionals <=

    0.0800   Slater exchange
    0.7200         Becke 88

   => Exact (HF) Exchange <=

    0.2000               HF

   => Correlation Functionals <=

    0.1900   Vosko, Wilk & Nusair (VWN5_RPA)
    0.8100   Lee, Yang & Parr

   => LibXC Density Thresholds  <==

    XC_HYB_GGA_XC_B3LYP:  1.00E-15

   => Molecular Quadrature <=

    Radial Scheme          =       TREUTLER
    Pruning Scheme         =           NONE
    Nuclear Scheme         =       TREUTLER

    Blocking Scheme        =         OCTREE
    BS radius alpha        =              1
    Pruning alpha          =              1
    Radial Points          =             75
    Spherical Points       =            302
    Total Points           =          43596
    Total Blocks           =            401
    Max Points             =            254
    Max Functions          =             28
    Weights Tolerance      =       1.00E-15

  -Total Gradient:
     Atom            X                  Y                   Z
    ------   -----------------  -----------------  -----------------
       1        0.000000000000     0.000000000000    -0.000056711915
       2        0.000000000000    -0.000000000000    -0.000024768309

*** tstop() called on Joses-MacBook-Pro-2.local at Thu Jul 17 13:20:07 2025
Module time:
	user time   =       0.35 seconds =       0.01 minutes
	system time =       1.30 seconds =       0.02 minutes
	total time  =          0 seconds =       0.00 minutes
Total time:
	user time   =      37.22 seconds =       0.62 minutes
	system time =      73.68 seconds =       1.23 minutes
	total time  =         11 seconds =       0.18 minutes

    			-----------------------------------------

    			 OPTKING 3.0: for geometry optimizations

    			     By R.A. King, Bethel University

    			        with contributions from

    			    A.V. Copan, J. Cayton, A. Heide

    			-----------------------------------------

	                            ===> Fragment 1 <==

	 Z (Atomic Numbers)          Masses                          Geom
	       4.000000             9.012183          0.00000000  0.00000000  2.52240358
	      10.000000            19.992440          0.00000000  0.00000000 -1.13704794

	 - Coordinate -           - BOHR/RAD -       - ANG/DEG -
	 R(1,2)           =         3.659452           1.936498

	        --- Internal Coordinate Step in ANG or DEG, aJ/ANG or AJ/DEG ---
	-------------------------------------------------------------------------------
	           Coordinate      Previous         Force          Change          New
	           ----------      --------        ------          ------        ------
	               R(1,2)       1.93650        0.00013        0.00039       1.93688
	-------------------------------------------------------------------------------

	                                 ==> Convergence Check <==

	Measures of convergence in internal coordinates in au.

	Criteria marked as inactive (o), active & met (*), and active & unmet ( ).

	----------------------------------------------------------------------------------------------
	   Step    Total Energy     Delta E     Max Force     RMS Force      Max Disp      RMS Disp
	----------------------------------------------------------------------------------------------
	  Convergence Criteria     1.00e-06 *    3.00e-04 *             o    1.20e-03 *             o
	----------------------------------------------------------------------------------------------
	    13    -143.25891677   -4.78e-07 *    1.60e-05 *    1.60e-05 o    7.28e-04 *    7.28e-04 o  ~
	----------------------------------------------------------------------------------------------

Next Geometry in Ang
	Fragment 1 (Ang)

	   Be   0.0000000000   0.0000000000   1.3349911779
	   Ne   0.0000000000   0.0000000000  -0.6018925411

    Final optimized geometry and variables:
    Molecular point group: c2v
    Full point group: C_inf_v

    Geometry (in Angstrom), charge = 1, multiplicity = 2:

    BE           0.000000000000     0.000000000000     1.334798492421
    NE           0.000000000000     0.000000000000    -0.601699855674

    Psi4 stopped on: Thursday, 17 July 2025 01:20PM
    Psi4 wall time for execution: 0:00:12.06

*** Psi4 exiting successfully. Buy a developer a beer!
