                               Psi4 1.9.1 release

  ==> Input File <==

--------------------------------------------------------------------------
molecule {
1 2
P   0.00000        0.60000        0.00000
P   0.00000       -0.60000        0.00000
}

set {
basis              cc-pvdz
reference          uks
maxiter            500
geom_maxiter       500
DAMPING_PERCENTAGE 1
guess              SAP
}

optimize('b3lyp')
--------------------------------------------------------------------------

    Molecular point group: d2h
  Charge       = 1
  Multiplicity = 2
  Basis Set: CC-PVDZ
    Blend: CC-PVDZ
  Basis Set: (CC-PVDZ AUX)
    Blend: CC-PVDZ-JKFIT
  @DF-UKS Final Energy:  -681.24500881724259
    Total Energy =                       -681.2450088172425922
 Dipole X            :          0.0000000            0.0000000            0.0000000
 Dipole Y            :          0.0000000            0.0000000            0.0000000
 Dipole Z            :          0.0000000            0.0000000            0.0000000
 Magnitude           :                                                    0.0000000
    Molecular point group: d2h
  Basis Set: CC-PVDZ
    Blend: CC-PVDZ
  Basis Set: (CC-PVDZ AUX)
    Blend: CC-PVDZ-JKFIT
  Basis Set: CC-PVDZ
    Blend: CC-PVDZ
  Basis Set: (CC-PVDZ AUX)
    Blend: CC-PVDZ-JKFIT
  @DF-UKS Final Energy:  -681.27730169111226
    Total Energy =                       -681.2773016911122568
  Basis Set: CC-PVDZ
    Blend: CC-PVDZ
  Basis Set: (CC-PVDZ AUX)
    Blend: CC-PVDZ-JKFIT
  Basis Set: CC-PVDZ
    Blend: CC-PVDZ
  @DF-UKS Final Energy:  -681.33813231516615
    Total Energy =                       -681.3381323151661491
  @DF-UKS Final Energy:  -681.54374334323359
    Total Energy =                       -681.5437433432335865
  @DF-UKS Final Energy:  -682.07148354185051
    Total Energy =                       -682.0714835418506254
  @DF-UKS Final Energy:  -682.22465649369110
    Total Energy =                       -682.2246564936911000
  @DF-UKS Final Energy:  -682.30216743525909
    Total Energy =                       -682.3021674352590935
  @DF-UKS Final Energy:  -682.32227925163045
    Total Energy =                       -682.3222792516304480
  @DF-UKS Final Energy:  -682.33006935292974
    Total Energy =                       -682.3300693529297405
  @DF-UKS Final Energy:  -682.33190670805709
    Total Energy =                       -682.3319067080570903
  @DF-UKS Final Energy:  -682.33249971199632
    Total Energy =                       -682.3324997119964337
  @DF-UKS Final Energy:  -682.33257738122916
    Total Energy =                       -682.3325773812291573
  Basis Set: (CC-PVDZ AUX)
    Blend: CC-PVDZ-JKFIT
  Basis Set: CC-PVDZ
    Blend: CC-PVDZ
  Basis Set: (CC-PVDZ AUX)
    Blend: CC-PVDZ-JKFIT
  @DF-UKS Final Energy:  -682.33258910986933
    Total Energy =                       -682.3325891098693319
  Basis Set: CC-PVDZ
    Blend: CC-PVDZ
  Basis Set: (CC-PVDZ AUX)
    Blend: CC-PVDZ-JKFIT
  Charge       = 1
  Multiplicity = 2
  Basis Set: CC-PVDZ
    Blend: CC-PVDZ
  Basis Set: (CC-PVDZ AUX)
    Blend: CC-PVDZ-JKFIT

    Orbital Energies [Eh]
    ---------------------

    Alpha Occupied:

       1Ag   -77.428863     1B2u  -77.428862     2Ag    -6.895207
       2B2u   -6.894894     3Ag    -5.062133     3B2u   -5.060123
       1B1u   -5.053765     1B3u   -5.053765     1B3g   -5.053584
       1B1g   -5.053584     4Ag    -0.985769     4B2u   -0.765564
       5Ag    -0.604880     2B3u   -0.555237     2B1u   -0.555237

    Alpha Virtual:

       2B3g   -0.366841     2B1g   -0.366841     5B2u   -0.190591
       6Ag    -0.027788     3B3u    0.046139     3B1u    0.046139
       7Ag     0.110757     6B2u    0.131472     8Ag     0.134724
       1B2g    0.134725     4B3u    0.175093     4B1u    0.175093
       3B1g    0.217384     3B3g    0.217384     7B2u    0.268739
       1Au     0.268739     8B2u    0.358173     9Ag     0.465339
       4B1g    0.493404     4B3g    0.493404     9B2u    0.852688

    Beta Occupied:

       1Ag   -77.425897     1B2u  -77.425897     2Ag    -6.891949
       2B2u   -6.891689     3Ag    -5.052207     1B1u   -5.051890
       1B3u   -5.051890     1B3g   -5.051719     1B1g   -5.051719
       3B2u   -5.050257     4Ag    -0.958835     4B2u   -0.723025
       2B3u   -0.548892     2B1u   -0.548892

    Beta Virtual:

       5Ag    -0.496090     2B3g   -0.353991     2B1g   -0.353991
       5B2u   -0.163502     6Ag    -0.005805     3B3u    0.072162
       3B1u    0.072162     7Ag     0.129672     8Ag     0.139567
       1B2g    0.139568     6B2u    0.161013     4B3u    0.185443
       4B1u    0.185443     3B1g    0.220206     3B3g    0.220206
       7B2u    0.273796     1Au     0.273797     8B2u    0.362918
       9Ag     0.489281     4B1g    0.518016     4B3g    0.518016
       9B2u    0.878673

    Final Occupation by Irrep:
             Ag   B1g   B2g   B3g    Au   B1u   B2u   B3u
    DOCC [     4,    1,    0,    1,    0,    2,    4,    2 ]
    SOCC [     1,    0,    0,    0,    0,    0,    0,    0 ]
    NA   [     5,    1,    0,    1,    0,    2,    4,    2 ]
    NB   [     4,    1,    0,    1,    0,    2,    4,    2 ]

  @DF-UKS Final Energy:  -682.33258989855665

   => Energetics <=

    Nuclear Repulsion Energy =             62.3842235994954279
    One-Electron Energy =               -1058.8040590174518911
    Two-Electron Energy =                 351.2474361269947849
    DFT Exchange-Correlation Energy =     -37.1601906075949344
    Empirical Dispersion Energy =           0.0000000000000000
    VV10 Nonlocal Energy =                  0.0000000000000000
    Total Energy =                       -682.3325898985566482

  UHF NO Occupations:
  HONO-2 :    4 Ag 1.9995589
  HONO-1 :    4B2u 1.9975917
  HONO-0 :    5 Ag 1.0000000
  LUNO+0 :    5B2u 0.0024083
  LUNO+1 :    6 Ag 0.0004411
  LUNO+2 :    3B3u 0.0000877
  LUNO+3 :    3B1u 0.0000877

Computation Completed

Properties will be evaluated at   0.000000,   0.000000,   0.000000 [a0]

Properties computed using the SCF density matrix

 Multipole Moments:

 ------------------------------------------------------------------------------------
     Multipole            Electronic (a.u.)      Nuclear  (a.u.)        Total (a.u.)
 ------------------------------------------------------------------------------------

 L = 1.  Multiply by 2.5417464519 to convert [e a0] to [Debye]
 Dipole X            :          0.0000000            0.0000000            0.0000000
 Dipole Y            :          0.0000000            0.0000000            0.0000000
 Dipole Z            :          0.0000000            0.0000000            0.0000000
 Magnitude           :                                                    0.0000000

 ------------------------------------------------------------------------------------

*** tstop() called on Joses-MacBook-Pro-2.local at Thu Jul 17 15:44:48 2025
Module time:
	user time   =       6.83 seconds =       0.11 minutes
	system time =       1.89 seconds =       0.03 minutes
	total time  =          0 seconds =       0.00 minutes
Total time:
	user time   =     147.70 seconds =       2.46 minutes
	system time =      45.27 seconds =       0.75 minutes
	total time  =         18 seconds =       0.30 minutes

*** tstart() called on Joses-MacBook-Pro-2.local
*** at Thu Jul 17 15:44:48 2025

         ------------------------------------------------------------
                                   SCF GRAD
                          Rob Parrish, Justin Turney,
                       Andy Simmonett, and Alex Sokolov
         ------------------------------------------------------------

  ==> Geometry <==

    Molecular point group: d2h
    Full point group: D_inf_h

    Geometry (in Angstrom), charge = 1, multiplicity = 2:

       Center              X                  Y                   Z               Mass
    ------------   -----------------  -----------------  -----------------  -----------------
         P           -0.000000000000     0.954286721312     0.000000000000    30.973761998420
         P            0.000000000000    -0.954286721312     0.000000000000    30.973761998420

  Nuclear repulsion =   62.384223599495435

  ==> Basis Set <==

  Basis Set: CC-PVDZ
    Blend: CC-PVDZ
    Number of shells: 16
    Number of basis functions: 36
    Number of Cartesian functions: 38
    Spherical Harmonics?: true
    Max angular momentum: 2

  ==> DFJKGrad: Density-Fitted SCF Gradients <==

    Gradient:                    1
    J tasked:                  Yes
    K tasked:                  Yes
    wK tasked:                  No
    OpenMP threads:              1
    Integrals threads:           1
    Memory [MiB]:              375
    Schwarz Cutoff:          1E-12
    Fitting Condition:       1E-10

   => Auxiliary Basis Set <=

  Basis Set: (CC-PVDZ AUX)
    Blend: CC-PVDZ-JKFIT
    Number of shells: 72
    Number of basis functions: 224
    Number of Cartesian functions: 260
    Spherical Harmonics?: true
    Max angular momentum: 3

  ==> DFT Potential <==

   => LibXC <=

    Version 6.2.2
    S. Lehtola, C. Steigemann, M. J.T. Oliveira, and M. A.L. Marques.,  SoftwareX 7, 1â€“5 (2018) (10.1016/j.softx.2017.11.002)

   => Composite Functional: B3LYP <=

    B3LYP Hyb-GGA Exchange-Correlation Functional

    P. J. Stephens, F. J. Devlin, C. F. Chabalowski, and M. J. Frisch.,  J. Phys. Chem. 98, 11623 (1994) (10.1021/j100096a001)

    Deriv               =              1
    GGA                 =           TRUE
    Meta                =          FALSE

    Exchange Hybrid     =           TRUE
    MP2 Hybrid          =          FALSE

   => Exchange Functionals <=

    0.0800   Slater exchange
    0.7200         Becke 88

   => Exact (HF) Exchange <=

    0.2000               HF

   => Correlation Functionals <=

    0.1900   Vosko, Wilk & Nusair (VWN5_RPA)
    0.8100   Lee, Yang & Parr

   => LibXC Density Thresholds  <==

    XC_HYB_GGA_XC_B3LYP:  1.00E-15

   => Molecular Quadrature <=

    Radial Scheme          =       TREUTLER
    Pruning Scheme         =           NONE
    Nuclear Scheme         =       TREUTLER

    Blocking Scheme        =         OCTREE
    BS radius alpha        =              1
    Pruning alpha          =              1
    Radial Points          =             75
    Spherical Points       =            302
    Total Points           =          40800
    Total Blocks           =            372
    Max Points             =            250
    Max Functions          =             36
    Weights Tolerance      =       1.00E-15

  -Total Gradient:
     Atom            X                  Y                   Z
    ------   -----------------  -----------------  -----------------
       1        0.000000000000    -0.000103465930     0.000000000000
       2       -0.000000000000     0.000103465930     0.000000000000

*** tstop() called on Joses-MacBook-Pro-2.local at Thu Jul 17 15:44:49 2025
Module time:
	user time   =       2.44 seconds =       0.04 minutes
	system time =       1.35 seconds =       0.02 minutes
	total time  =          1 seconds =       0.02 minutes
Total time:
	user time   =     150.14 seconds =       2.50 minutes
	system time =      46.62 seconds =       0.78 minutes
	total time  =         19 seconds =       0.32 minutes

    			-----------------------------------------

    			 OPTKING 3.0: for geometry optimizations

    			     By R.A. King, Bethel University

    			        with contributions from

    			    A.V. Copan, J. Cayton, A. Heide

    			-----------------------------------------

	                            ===> Fragment 1 <==

	 Z (Atomic Numbers)          Masses                          Geom
	      15.000000            30.973762         -0.00000000  1.80334055  0.00000000
	      15.000000            30.973762          0.00000000 -1.80334055  0.00000000

	 - Coordinate -           - BOHR/RAD -       - ANG/DEG -
	 R(1,2)           =         3.606681           1.908573

	        --- Internal Coordinate Step in ANG or DEG, aJ/ANG or AJ/DEG ---
	-------------------------------------------------------------------------------
	           Coordinate      Previous         Force          Change          New
	           ----------      --------        ------          ------        ------
	               R(1,2)       1.90857        0.00085        0.00015       1.90872
	-------------------------------------------------------------------------------

	                                 ==> Convergence Check <==

	Measures of convergence in internal coordinates in au.

	Criteria marked as inactive (o), active & met (*), and active & unmet ( ).

	----------------------------------------------------------------------------------------------
	   Step    Total Energy     Delta E     Max Force     RMS Force      Max Disp      RMS Disp
	----------------------------------------------------------------------------------------------
	  Convergence Criteria     1.00e-06 *    3.00e-04 *             o    1.20e-03 *             o
	----------------------------------------------------------------------------------------------
	    14    -682.33258990   -7.89e-07 *    1.03e-04 *    1.03e-04 o    2.79e-04 *    2.79e-04 o  ~
	----------------------------------------------------------------------------------------------

Next Geometry in Ang
	Fragment 1 (Ang)

	    P  -0.0000000000   0.9543605009   0.0000000000
	    P   0.0000000000  -0.9543605009   0.0000000000

    Final optimized geometry and variables:
    Molecular point group: d2h
    Full point group: D_inf_h

    Geometry (in Angstrom), charge = 1, multiplicity = 2:

    P           -0.000000000000     0.954286721312     0.000000000000
    P            0.000000000000    -0.954286721312     0.000000000000

    Psi4 stopped on: Thursday, 17 July 2025 03:44PM
    Psi4 wall time for execution: 0:00:19.21

*** Psi4 exiting successfully. Buy a developer a beer!
