                               Psi4 1.9.1 release

  ==> Input File <==

--------------------------------------------------------------------------
molecule {
1 2
Be   0.00000        0.60000        0.00000
Mg   0.00000       -0.60000        0.00000
}

set {
basis              cc-pvdz
reference          uks
maxiter            500
geom_maxiter       500
DAMPING_PERCENTAGE 1
guess              SAP
}

optimize('b3lyp')
--------------------------------------------------------------------------

    Molecular point group: c2v
  Charge       = 1
  Multiplicity = 2
  Basis Set: CC-PVDZ
    Blend: CC-PVDZ
  Basis Set: (CC-PVDZ AUX)
    Blend: DEF2-UNIVERSAL-JKFIT
  @DF-UKS Final Energy:  -214.01788281005938
    Total Energy =                       -214.0178828100593762
 Dipole X            :          0.0000000            0.0000000            0.0000000
 Dipole Y            :          0.0000000            0.0000000            0.0000000
 Dipole Z            :          0.4296561           -0.8388361           -0.4091801
 Magnitude           :                                                    0.4091801
    Molecular point group: c2v
  Basis Set: CC-PVDZ
    Blend: CC-PVDZ
  Basis Set: (CC-PVDZ AUX)
    Blend: DEF2-UNIVERSAL-JKFIT
  Basis Set: CC-PVDZ
    Blend: CC-PVDZ
  Basis Set: (CC-PVDZ AUX)
    Blend: DEF2-UNIVERSAL-JKFIT
  @DF-UKS Final Energy:  -214.11619837565769
    Total Energy =                       -214.1161983756576603
  Basis Set: CC-PVDZ
    Blend: CC-PVDZ
  Basis Set: (CC-PVDZ AUX)
    Blend: DEF2-UNIVERSAL-JKFIT
  Basis Set: CC-PVDZ
    Blend: CC-PVDZ
  @DF-UKS Final Energy:  -214.23399457839866
    Total Energy =                       -214.2339945783986650
  @DF-UKS Final Energy:  -214.37007690316722
    Total Energy =                       -214.3700769031672166
  @DF-UKS Final Energy:  -214.42807535794236
    Total Energy =                       -214.4280753579423333
  @DF-UKS Final Energy:  -214.44860587109235
    Total Energy =                       -214.4486058710923544
  @DF-UKS Final Energy:  -214.45492450400224
    Total Energy =                       -214.4549245040022356
  @DF-UKS Final Energy:  -214.45617225608549
    Total Energy =                       -214.4561722560854662
  @DF-UKS Final Energy:  -214.50892623806462
    Total Energy =                       -214.5089262380646176
  @DF-UKS Final Energy:  -214.51982518878995
    Total Energy =                       -214.5198251887899517
  @DF-UKS Final Energy:  -214.51988187512609
    Total Energy =                       -214.5198818751260603
  @DF-UKS Final Energy:  -214.52014084732306
    Total Energy =                       -214.5201408473230344
  Basis Set: (CC-PVDZ AUX)
    Blend: DEF2-UNIVERSAL-JKFIT
  Basis Set: CC-PVDZ
    Blend: CC-PVDZ
  Basis Set: (CC-PVDZ AUX)
    Blend: DEF2-UNIVERSAL-JKFIT
  @DF-UKS Final Energy:  -214.52014629674389
    Total Energy =                       -214.5201462967438886
  Basis Set: CC-PVDZ
    Blend: CC-PVDZ
  Basis Set: (CC-PVDZ AUX)
    Blend: DEF2-UNIVERSAL-JKFIT
  Charge       = 1
  Multiplicity = 2
  Basis Set: CC-PVDZ
    Blend: CC-PVDZ
  Basis Set: (CC-PVDZ AUX)
    Blend: DEF2-UNIVERSAL-JKFIT

    Orbital Energies [Eh]
    ---------------------

    Alpha Occupied:

       1A1   -47.086965     2A1    -4.320319     3A1    -3.362583
       1B2    -2.106250     1B1    -2.106250     4A1    -2.104413
       5A1    -0.481119     6A1    -0.389326

    Alpha Virtual:

       7A1    -0.271519     2B2    -0.263328     2B1    -0.263328
       3B2    -0.193531     3B1    -0.193531     8A1    -0.117704
       9A1    -0.060873     4B2    -0.011997     4B1    -0.011997
      10A1     0.000034    11A1     0.012678     5B1     0.037971
       5B2     0.037971    12A1     0.096834     1A2     0.096834
       6B2     0.096994     6B1     0.096994    13A1     0.153512
      14A1     0.253222     2A2     0.285569    15A1     0.285569
       7B2     0.387683     7B1     0.387683    16A1     0.562992

    Beta Occupied:

       1A1   -47.085186     2A1    -4.313404     3A1    -3.359243
       1B2    -2.103983     1B1    -2.103983     4A1    -2.102361
       5A1    -0.472579

    Beta Virtual:

       6A1    -0.309768     2B2    -0.250589     2B1    -0.250589
       7A1    -0.234238     3B2    -0.170281     3B1    -0.170281
       8A1    -0.110114     9A1    -0.052480     4B2    -0.006549
       4B1    -0.006549    10A1     0.009406    11A1     0.036078
       5B1     0.046154     5B2     0.046154     6B2     0.115727
       6B1     0.115727     1A2     0.117031    12A1     0.117031
      13A1     0.158814    14A1     0.268527     2A2     0.305308
      15A1     0.305309     7B2     0.413256     7B1     0.413256
      16A1     0.587271

    Final Occupation by Irrep:
             A1    A2    B1    B2
    DOCC [     5,    0,    1,    1 ]
    SOCC [     1,    0,    0,    0 ]
    NA   [     6,    0,    1,    1 ]
    NB   [     5,    0,    1,    1 ]

  @DF-UKS Final Energy:  -214.52014643353738

   => Energetics <=

    Nuclear Repulsion Energy =              9.6540075215497492
    One-Electron Energy =                -313.8492479010270699
    Two-Electron Energy =                 105.0494482876794535
    DFT Exchange-Correlation Energy =     -15.3743543417395507
    Empirical Dispersion Energy =           0.0000000000000000
    VV10 Nonlocal Energy =                  0.0000000000000000
    Total Energy =                       -214.5201464335373771

  UHF NO Occupations:
  HONO-2 :    1 B2 1.9999993
  HONO-1 :    5 A1 1.9843034
  HONO-0 :    6 A1 1.0000000
  LUNO+0 :    7 A1 0.0156966
  LUNO+1 :    2 B1 0.0000007
  LUNO+2 :    2 B2 0.0000007
  LUNO+3 :    8 A1 0.0000005

Computation Completed

Properties will be evaluated at   0.000000,   0.000000,   0.000000 [a0]

Properties computed using the SCF density matrix

 Multipole Moments:

 ------------------------------------------------------------------------------------
     Multipole            Electronic (a.u.)      Nuclear  (a.u.)        Total (a.u.)
 ------------------------------------------------------------------------------------

 L = 1.  Multiply by 2.5417464519 to convert [e a0] to [Debye]
 Dipole X            :          0.0000000            0.0000000            0.0000000
 Dipole Y            :          0.0000000            0.0000000            0.0000000
 Dipole Z            :          2.0604449           -1.8392070            0.2212379
 Magnitude           :                                                    0.2212379

 ------------------------------------------------------------------------------------

*** tstop() called on Joses-MacBook-Pro-2.local at Thu Jul 17 13:21:32 2025
Module time:
	user time   =       4.10 seconds =       0.07 minutes
	system time =       3.23 seconds =       0.05 minutes
	total time  =          1 seconds =       0.02 minutes
Total time:
	user time   =      69.58 seconds =       1.16 minutes
	system time =      91.83 seconds =       1.53 minutes
	total time  =         17 seconds =       0.28 minutes

*** tstart() called on Joses-MacBook-Pro-2.local
*** at Thu Jul 17 13:21:32 2025

         ------------------------------------------------------------
                                   SCF GRAD
                          Rob Parrish, Justin Turney,
                       Andy Simmonett, and Alex Sokolov
         ------------------------------------------------------------

  ==> Geometry <==

    Molecular point group: c2v
    Full point group: C_inf_v

    Geometry (in Angstrom), charge = 1, multiplicity = 2:

       Center              X                  Y                   Z               Mass
    ------------   -----------------  -----------------  -----------------  -----------------
         BE           0.000000000000     0.000000000000     1.912483954265     9.012183065000
         MG           0.000000000000     0.000000000000    -0.718600189337    23.985041697000

  Nuclear repulsion =    9.654007521549749

  ==> Basis Set <==

  Basis Set: CC-PVDZ
    Blend: CC-PVDZ
    Number of shells: 14
    Number of basis functions: 32
    Number of Cartesian functions: 34
    Spherical Harmonics?: true
    Max angular momentum: 2

  ==> DFJKGrad: Density-Fitted SCF Gradients <==

    Gradient:                    1
    J tasked:                  Yes
    K tasked:                  Yes
    wK tasked:                  No
    OpenMP threads:              1
    Integrals threads:           1
    Memory [MiB]:              375
    Schwarz Cutoff:          1E-12
    Fitting Condition:       1E-10

   => Auxiliary Basis Set <=

  Basis Set: (CC-PVDZ AUX)
    Blend: DEF2-UNIVERSAL-JKFIT
    Number of shells: 51
    Number of basis functions: 163
    Number of Cartesian functions: 197
    Spherical Harmonics?: true
    Max angular momentum: 4

  ==> DFT Potential <==

   => LibXC <=

    Version 6.2.2
    S. Lehtola, C. Steigemann, M. J.T. Oliveira, and M. A.L. Marques.,  SoftwareX 7, 1â€“5 (2018) (10.1016/j.softx.2017.11.002)

   => Composite Functional: B3LYP <=

    B3LYP Hyb-GGA Exchange-Correlation Functional

    P. J. Stephens, F. J. Devlin, C. F. Chabalowski, and M. J. Frisch.,  J. Phys. Chem. 98, 11623 (1994) (10.1021/j100096a001)

    Deriv               =              1
    GGA                 =           TRUE
    Meta                =          FALSE

    Exchange Hybrid     =           TRUE
    MP2 Hybrid          =          FALSE

   => Exchange Functionals <=

    0.0800   Slater exchange
    0.7200         Becke 88

   => Exact (HF) Exchange <=

    0.2000               HF

   => Correlation Functionals <=

    0.1900   Vosko, Wilk & Nusair (VWN5_RPA)
    0.8100   Lee, Yang & Parr

   => LibXC Density Thresholds  <==

    XC_HYB_GGA_XC_B3LYP:  1.00E-15

   => Molecular Quadrature <=

    Radial Scheme          =       TREUTLER
    Pruning Scheme         =           NONE
    Nuclear Scheme         =       TREUTLER

    Blocking Scheme        =         OCTREE
    BS radius alpha        =              1
    Pruning alpha          =              1
    Radial Points          =             75
    Spherical Points       =            302
    Total Points           =          42982
    Total Blocks           =            419
    Max Points             =            253
    Max Functions          =             32
    Weights Tolerance      =       1.00E-15

  -Total Gradient:
     Atom            X                  Y                   Z
    ------   -----------------  -----------------  -----------------
       1       -0.000000000000    -0.000000000000    -0.000016406762
       2       -0.000000000000     0.000000000000     0.000010652210

*** tstop() called on Joses-MacBook-Pro-2.local at Thu Jul 17 13:21:32 2025
Module time:
	user time   =       1.30 seconds =       0.02 minutes
	system time =       1.73 seconds =       0.03 minutes
	total time  =          0 seconds =       0.00 minutes
Total time:
	user time   =      70.88 seconds =       1.18 minutes
	system time =      93.56 seconds =       1.56 minutes
	total time  =         17 seconds =       0.28 minutes

    			-----------------------------------------

    			 OPTKING 3.0: for geometry optimizations

    			     By R.A. King, Bethel University

    			        with contributions from

    			    A.V. Copan, J. Cayton, A. Heide

    			-----------------------------------------

	                            ===> Fragment 1 <==

	 Z (Atomic Numbers)          Masses                          Geom
	       4.000000             9.012183          0.00000000  0.00000000  3.61407089
	      12.000000            23.985042          0.00000000  0.00000000 -1.35795755

	 - Coordinate -           - BOHR/RAD -       - ANG/DEG -
	 R(1,2)           =         4.972028           2.631084

	        --- Internal Coordinate Step in ANG or DEG, aJ/ANG or AJ/DEG ---
	-------------------------------------------------------------------------------
	           Coordinate      Previous         Force          Change          New
	           ----------      --------        ------          ------        ------
	               R(1,2)       2.63108        0.00011        0.00031       2.63139
	-------------------------------------------------------------------------------

	                                 ==> Convergence Check <==

	Measures of convergence in internal coordinates in au.

	Criteria marked as inactive (o), active & met (*), and active & unmet ( ).

	----------------------------------------------------------------------------------------------
	   Step    Total Energy     Delta E     Max Force     RMS Force      Max Disp      RMS Disp
	----------------------------------------------------------------------------------------------
	  Convergence Criteria     1.00e-06 *    3.00e-04 *             o    1.20e-03 *             o
	----------------------------------------------------------------------------------------------
	    14    -214.52014643   -1.37e-07 *    1.35e-05 *    1.35e-05 o    5.81e-04 *    5.81e-04 o  ~
	----------------------------------------------------------------------------------------------

Next Geometry in Ang
	Fragment 1 (Ang)

	   Be   0.0000000000   0.0000000000   1.9126377980
	   Mg   0.0000000000   0.0000000000  -0.7187540331

    Final optimized geometry and variables:
    Molecular point group: c2v
    Full point group: C_inf_v

    Geometry (in Angstrom), charge = 1, multiplicity = 2:

    BE           0.000000000000     0.000000000000     1.912483954265
    MG           0.000000000000     0.000000000000    -0.718600189337

    Psi4 stopped on: Thursday, 17 July 2025 01:21PM
    Psi4 wall time for execution: 0:00:18.09

*** Psi4 exiting successfully. Buy a developer a beer!
