                               Psi4 1.9.1 release

  ==> Input File <==

--------------------------------------------------------------------------
molecule {
1 2
P   0.00000        0.60000        0.00000
Cl   0.00000       -0.60000        0.00000
}

set {
basis              cc-pvdz
reference          uks
maxiter            500
geom_maxiter       500
DAMPING_PERCENTAGE 1
guess              SAP
}

optimize('b3lyp')
--------------------------------------------------------------------------

    Molecular point group: c2v
  Charge       = 1
  Multiplicity = 2
  Basis Set: CC-PVDZ
    Blend: CC-PVDZ
  Basis Set: (CC-PVDZ AUX)
    Blend: CC-PVDZ-JKFIT
  @DF-UKS Final Energy:  -800.04876716896570
    Total Energy =                       -800.0487671689655826
 Dipole X            :          0.0000000            0.0000000            0.0000000
 Dipole Y            :          0.0000000            0.0000000            0.0000000
 Dipole Z            :         -0.4407023           -0.0695049           -0.5102072
 Magnitude           :                                                    0.5102072
    Molecular point group: c2v
  Basis Set: CC-PVDZ
    Blend: CC-PVDZ
  Basis Set: (CC-PVDZ AUX)
    Blend: CC-PVDZ-JKFIT
  Basis Set: CC-PVDZ
    Blend: CC-PVDZ
  Basis Set: (CC-PVDZ AUX)
    Blend: CC-PVDZ-JKFIT
  @DF-UKS Final Energy:  -800.09026524810542
    Total Energy =                       -800.0902652481054247
  Basis Set: CC-PVDZ
    Blend: CC-PVDZ
  Basis Set: (CC-PVDZ AUX)
    Blend: CC-PVDZ-JKFIT
  Basis Set: CC-PVDZ
    Blend: CC-PVDZ
  @DF-UKS Final Energy:  -800.16698502765769
    Total Energy =                       -800.1669850276575744
  @DF-UKS Final Energy:  -800.41424534445059
    Total Energy =                       -800.4142453444507055
  @DF-UKS Final Energy:  -800.90728047669620
    Total Energy =                       -800.9072804766962008
  @DF-UKS Final Energy:  -801.06574793148218
    Total Energy =                       -801.0657479314821785
  @DF-UKS Final Energy:  -801.15862003155053
    Total Energy =                       -801.1586200315505266
  @DF-UKS Final Energy:  -801.19066060170496
    Total Energy =                       -801.1906606017049626
  @DF-UKS Final Energy:  -801.20473044118842
    Total Energy =                       -801.2047304411884170
  @DF-UKS Final Energy:  -801.20983821497782
    Total Energy =                       -801.2098382149778217
  @DF-UKS Final Energy:  -801.21081878615178
    Total Energy =                       -801.2108187861517763
  @DF-UKS Final Energy:  -801.21102961380973
    Total Energy =                       -801.2110296138097283
  @DF-UKS Final Energy:  -801.21108436178383
    Total Energy =                       -801.2110843617837190
  Basis Set: (CC-PVDZ AUX)
    Blend: CC-PVDZ-JKFIT
  Basis Set: CC-PVDZ
    Blend: CC-PVDZ
  Basis Set: (CC-PVDZ AUX)
    Blend: CC-PVDZ-JKFIT
  @DF-UKS Final Energy:  -801.21109185315913
    Total Energy =                       -801.2110918531590187
  Basis Set: CC-PVDZ
    Blend: CC-PVDZ
  Basis Set: (CC-PVDZ AUX)
    Blend: CC-PVDZ-JKFIT
  Charge       = 1
  Multiplicity = 2
  Basis Set: CC-PVDZ
    Blend: CC-PVDZ
  Basis Set: (CC-PVDZ AUX)
    Blend: CC-PVDZ-JKFIT

    Orbital Energies [Eh]
    ---------------------

    Alpha Occupied:

       1A1  -101.869361     2A1   -77.487786     3A1    -9.787650
       4A1    -7.546932     1B2    -7.543425     1B1    -7.540956
       5A1    -6.948417     2B2    -5.113091     2B1    -5.109237
       6A1    -5.107597     7A1    -1.170870     8A1    -0.884667
       9A1    -0.676824     3B1    -0.663155     3B2    -0.656311
       4B1    -0.512728

    Alpha Virtual:

       4B2    -0.442712    10A1    -0.280072    11A1     0.005838
       5B1     0.085457     5B2     0.089533    12A1     0.116165
       1A2     0.131987    13A1     0.135862     6B1     0.152148
       6B2     0.156235    14A1     0.204985     7B2     0.301418
       7B1     0.304412     2A2     0.430877    15A1     0.431218
      16A1     0.477526    17A1     0.498862     8B2     0.595708
       8B1     0.595948    18A1     1.007312

    Beta Occupied:

       1A1  -101.868394     2A1   -77.483258     3A1    -9.786718
       4A1    -7.546593     1B2    -7.543353     1B1    -7.537161
       5A1    -6.943616     2B2    -5.110188     6A1    -5.104936
       2B1    -5.093708     7A1    -1.163883     8A1    -0.855904
       9A1    -0.662124     3B2    -0.654495     3B1    -0.637862

    Beta Virtual:

       4B2    -0.430551     4B1    -0.394639    10A1    -0.268307
      11A1     0.013704     5B2     0.094329     5B1     0.119330
      12A1     0.125242     6B2     0.161110    13A1     0.178307
       1A2     0.179233     6B1     0.185948    14A1     0.211676
       7B2     0.301365     7B1     0.311657    15A1     0.439996
       2A2     0.440189    16A1     0.486909    17A1     0.505099
       8B2     0.597490     8B1     0.615577    18A1     1.013441

    Final Occupation by Irrep:
             A1    A2    B1    B2
    DOCC [     9,    0,    3,    3 ]
    SOCC [     0,    0,    1,    0 ]
    NA   [     9,    0,    4,    3 ]
    NB   [     9,    0,    3,    3 ]

  @DF-UKS Final Energy:  -801.21109226360159

   => Energetics <=

    Nuclear Repulsion Energy =             69.3144759834324589
    One-Electron Energy =               -1235.1356989879707271
    Two-Electron Energy =                 405.8165322947908180
    DFT Exchange-Correlation Energy =     -41.2064015538540502
    Empirical Dispersion Energy =           0.0000000000000000
    VV10 Nonlocal Energy =                  0.0000000000000000
    Total Energy =                       -801.2110922636015857

  UHF NO Occupations:
  HONO-2 :    3 B2 1.9995064
  HONO-1 :    9 A1 1.9987194
  HONO-0 :    4 B1 1.0000000
  LUNO+0 :   10 A1 0.0012806
  LUNO+1 :    4 B2 0.0004936
  LUNO+2 :    5 B1 0.0002096
  LUNO+3 :   11 A1 0.0000593

Computation Completed

Properties will be evaluated at   0.000000,   0.000000,   0.000000 [a0]

Properties computed using the SCF density matrix

 Multipole Moments:

 ------------------------------------------------------------------------------------
     Multipole            Electronic (a.u.)      Nuclear  (a.u.)        Total (a.u.)
 ------------------------------------------------------------------------------------

 L = 1.  Multiply by 2.5417464519 to convert [e a0] to [Debye]
 Dipole X            :          0.0000000            0.0000000            0.0000000
 Dipole Y            :          0.0000000            0.0000000            0.0000000
 Dipole Z            :          1.0075425           -0.1127591            0.8947834
 Magnitude           :                                                    0.8947834

 ------------------------------------------------------------------------------------

*** tstop() called on Joses-MacBook-Pro-2.local at Thu Jul 17 15:47:08 2025
Module time:
	user time   =       8.08 seconds =       0.13 minutes
	system time =       1.69 seconds =       0.03 minutes
	total time  =          1 seconds =       0.02 minutes
Total time:
	user time   =     187.65 seconds =       3.13 minutes
	system time =      44.11 seconds =       0.74 minutes
	total time  =         22 seconds =       0.37 minutes

*** tstart() called on Joses-MacBook-Pro-2.local
*** at Thu Jul 17 15:47:08 2025

         ------------------------------------------------------------
                                   SCF GRAD
                          Rob Parrish, Justin Turney,
                       Andy Simmonett, and Alex Sokolov
         ------------------------------------------------------------

  ==> Geometry <==

    Molecular point group: c2v
    Full point group: C_inf_v

    Geometry (in Angstrom), charge = 1, multiplicity = 2:

       Center              X                  Y                   Z               Mass
    ------------   -----------------  -----------------  -----------------  -----------------
         P            0.000000000000     0.000000000000     1.032363375727    30.973761998420
         CL           0.000000000000     0.000000000000    -0.914418833996    34.968852682000

  Nuclear repulsion =   69.314475983432459

  ==> Basis Set <==

  Basis Set: CC-PVDZ
    Blend: CC-PVDZ
    Number of shells: 16
    Number of basis functions: 36
    Number of Cartesian functions: 38
    Spherical Harmonics?: true
    Max angular momentum: 2

  ==> DFJKGrad: Density-Fitted SCF Gradients <==

    Gradient:                    1
    J tasked:                  Yes
    K tasked:                  Yes
    wK tasked:                  No
    OpenMP threads:              1
    Integrals threads:           1
    Memory [MiB]:              375
    Schwarz Cutoff:          1E-12
    Fitting Condition:       1E-10

   => Auxiliary Basis Set <=

  Basis Set: (CC-PVDZ AUX)
    Blend: CC-PVDZ-JKFIT
    Number of shells: 72
    Number of basis functions: 224
    Number of Cartesian functions: 260
    Spherical Harmonics?: true
    Max angular momentum: 3

  ==> DFT Potential <==

   => LibXC <=

    Version 6.2.2
    S. Lehtola, C. Steigemann, M. J.T. Oliveira, and M. A.L. Marques.,  SoftwareX 7, 1â€“5 (2018) (10.1016/j.softx.2017.11.002)

   => Composite Functional: B3LYP <=

    B3LYP Hyb-GGA Exchange-Correlation Functional

    P. J. Stephens, F. J. Devlin, C. F. Chabalowski, and M. J. Frisch.,  J. Phys. Chem. 98, 11623 (1994) (10.1021/j100096a001)

    Deriv               =              1
    GGA                 =           TRUE
    Meta                =          FALSE

    Exchange Hybrid     =           TRUE
    MP2 Hybrid          =          FALSE

   => Exchange Functionals <=

    0.0800   Slater exchange
    0.7200         Becke 88

   => Exact (HF) Exchange <=

    0.2000               HF

   => Correlation Functionals <=

    0.1900   Vosko, Wilk & Nusair (VWN5_RPA)
    0.8100   Lee, Yang & Parr

   => LibXC Density Thresholds  <==

    XC_HYB_GGA_XC_B3LYP:  1.00E-15

   => Molecular Quadrature <=

    Radial Scheme          =       TREUTLER
    Pruning Scheme         =           NONE
    Nuclear Scheme         =       TREUTLER

    Blocking Scheme        =         OCTREE
    BS radius alpha        =              1
    Pruning alpha          =              1
    Radial Points          =             75
    Spherical Points       =            302
    Total Points           =          40800
    Total Blocks           =            366
    Max Points             =            256
    Max Functions          =             36
    Weights Tolerance      =       1.00E-15

  -Total Gradient:
     Atom            X                  Y                   Z
    ------   -----------------  -----------------  -----------------
       1        0.000000000000    -0.000000000000    -0.000044011598
       2        0.000000000000    -0.000000000000     0.000063043705

*** tstop() called on Joses-MacBook-Pro-2.local at Thu Jul 17 15:47:08 2025
Module time:
	user time   =       3.16 seconds =       0.05 minutes
	system time =       0.80 seconds =       0.01 minutes
	total time  =          0 seconds =       0.00 minutes
Total time:
	user time   =     190.81 seconds =       3.18 minutes
	system time =      44.91 seconds =       0.75 minutes
	total time  =         22 seconds =       0.37 minutes

    			-----------------------------------------

    			 OPTKING 3.0: for geometry optimizations

    			     By R.A. King, Bethel University

    			        with contributions from

    			    A.V. Copan, J. Cayton, A. Heide

    			-----------------------------------------

	                            ===> Fragment 1 <==

	 Z (Atomic Numbers)          Masses                          Geom
	      15.000000            30.973762          0.00000000  0.00000000  1.95088404
	      17.000000            34.968853          0.00000000  0.00000000 -1.72800116

	 - Coordinate -           - BOHR/RAD -       - ANG/DEG -
	 R(1,2)           =         3.678885           1.946782

	        --- Internal Coordinate Step in ANG or DEG, aJ/ANG or AJ/DEG ---
	-------------------------------------------------------------------------------
	           Coordinate      Previous         Force          Change          New
	           ----------      --------        ------          ------        ------
	               R(1,2)       1.94678        0.00044        0.00010       1.94688
	-------------------------------------------------------------------------------

	                                 ==> Convergence Check <==

	Measures of convergence in internal coordinates in au.

	Criteria marked as inactive (o), active & met (*), and active & unmet ( ).

	----------------------------------------------------------------------------------------------
	   Step    Total Energy     Delta E     Max Force     RMS Force      Max Disp      RMS Disp
	----------------------------------------------------------------------------------------------
	  Convergence Criteria     1.00e-06 *    3.00e-04 *             o    1.20e-03 *             o
	----------------------------------------------------------------------------------------------
	    15    -801.21109226   -4.10e-07 *    5.35e-05 *    5.35e-05 o    1.86e-04 *    1.86e-04 o  ~
	----------------------------------------------------------------------------------------------

Next Geometry in Ang
	Fragment 1 (Ang)

	    P   0.0000000000   0.0000000000   1.0324126578
	   Cl   0.0000000000   0.0000000000  -0.9144681161

    Final optimized geometry and variables:
    Molecular point group: c2v
    Full point group: C_inf_v

    Geometry (in Angstrom), charge = 1, multiplicity = 2:

    P            0.000000000000     0.000000000000     1.032363375727
    CL           0.000000000000     0.000000000000    -0.914418833996

    Psi4 stopped on: Thursday, 17 July 2025 03:47PM
    Psi4 wall time for execution: 0:00:22.93

*** Psi4 exiting successfully. Buy a developer a beer!
