                               Psi4 1.9.1 release

  ==> Input File <==

--------------------------------------------------------------------------
molecule {
1 2
Cl   0.00000        0.60000        0.00000
Cl   0.00000       -0.60000        0.00000
}

set {
basis              cc-pvdz
reference          uks
maxiter            500
geom_maxiter       500
DAMPING_PERCENTAGE 1
guess              SAP
}

optimize('b3lyp')
--------------------------------------------------------------------------

    Molecular point group: d2h
  Charge       = 1
  Multiplicity = 2
  Basis Set: CC-PVDZ
    Blend: CC-PVDZ
  Basis Set: (CC-PVDZ AUX)
    Blend: CC-PVDZ-JKFIT
  @DF-UKS Final Energy:  -918.80412136905863
    Total Energy =                       -918.8041213690586346
 Dipole X            :          0.0000000            0.0000000            0.0000000
 Dipole Y            :          0.0000000            0.0000000            0.0000000
 Dipole Z            :          0.0000000            0.0000000            0.0000000
 Magnitude           :                                                    0.0000000
    Molecular point group: d2h
  Basis Set: CC-PVDZ
    Blend: CC-PVDZ
  Basis Set: (CC-PVDZ AUX)
    Blend: CC-PVDZ-JKFIT
  Basis Set: CC-PVDZ
    Blend: CC-PVDZ
  Basis Set: (CC-PVDZ AUX)
    Blend: CC-PVDZ-JKFIT
  @DF-UKS Final Energy:  -918.85069198482302
    Total Energy =                       -918.8506919848230154
  Basis Set: CC-PVDZ
    Blend: CC-PVDZ
  Basis Set: (CC-PVDZ AUX)
    Blend: CC-PVDZ-JKFIT
  Basis Set: CC-PVDZ
    Blend: CC-PVDZ
  @DF-UKS Final Energy:  -918.93577691575422
    Total Energy =                       -918.9357769157542180
  @DF-UKS Final Energy:  -919.20218396209862
    Total Energy =                       -919.2021839620986157
  @DF-UKS Final Energy:  -919.66564042791049
    Total Energy =                       -919.6656404279104891
  @DF-UKS Final Energy:  -919.81994016351166
    Total Energy =                       -919.8199401635116601
  @DF-UKS Final Energy:  -919.89791705068944
    Total Energy =                       -919.8979170506894434
  @DF-UKS Final Energy:  -919.94486098010282
    Total Energy =                       -919.9448609801028169
  @DF-UKS Final Energy:  -919.96517944881180
    Total Energy =                       -919.9651794488117957
  @DF-UKS Final Energy:  -919.97255030459223
    Total Energy =                       -919.9725503045922324
  @DF-UKS Final Energy:  -919.97438807433957
    Total Energy =                       -919.9743880743396858
  @DF-UKS Final Energy:  -919.97500437497251
    Total Energy =                       -919.9750043749725137
  @DF-UKS Final Energy:  -919.97511090987905
    Total Energy =                       -919.9751109098791630
  Basis Set: (CC-PVDZ AUX)
    Blend: CC-PVDZ-JKFIT
  Basis Set: CC-PVDZ
    Blend: CC-PVDZ
  Basis Set: (CC-PVDZ AUX)
    Blend: CC-PVDZ-JKFIT
  @DF-UKS Final Energy:  -919.97513281534975
    Total Energy =                       -919.9751328153497525
  Basis Set: CC-PVDZ
    Blend: CC-PVDZ
  Basis Set: (CC-PVDZ AUX)
    Blend: CC-PVDZ-JKFIT
  Charge       = 1
  Multiplicity = 2
  Basis Set: CC-PVDZ
    Blend: CC-PVDZ
  Basis Set: (CC-PVDZ AUX)
    Blend: CC-PVDZ-JKFIT

    Orbital Energies [Eh]
    ---------------------

    Alpha Occupied:

       1Ag  -101.949447     1B2u -101.949447     2B2u   -9.863193
       2Ag    -9.863138     3Ag    -7.626923     3B2u   -7.626717
       1B3u   -7.624085     1B1g   -7.624073     1B1u   -7.609948
       1B3g   -7.609935     4Ag    -1.289367     4B2u   -1.100801
       5Ag    -0.799434     2B3u   -0.755681     2B1u   -0.725234
       2B1g   -0.647148     2B3g   -0.614103

    Alpha Virtual:

       5B2u   -0.417794     6Ag     0.094789     3B3u    0.175749
       3B1u    0.201044     6B2u    0.204702     4B3u    0.229602
       4B1u    0.248745     3B1g    0.260508     7Ag     0.271956
       3B3g    0.279685     1B2g    0.330730     8Ag     0.331217
       7B2u    0.393994     1Au     0.395013     8B2u    0.444671
       9Ag     0.520323     4B1g    0.584475     4B3g    0.609760
       9B2u    1.059193

    Beta Occupied:

       1Ag  -101.945409     1B2u -101.945409     2B2u   -9.859264
       2Ag    -9.859223     3Ag    -7.624694     3B2u   -7.624484
       1B3u   -7.610979     1B1g   -7.610963     1B1u   -7.607596
       1B3g   -7.607582     4Ag    -1.269745     4B2u   -1.069445
       5Ag    -0.787015     2B1u   -0.717326     2B3u   -0.699124
       2B3g   -0.604480

    Beta Virtual:

       2B1g   -0.533941     5B2u   -0.406582     6Ag     0.103636
       3B1u    0.205207     3B3u    0.208773     6B2u    0.209471
       4B3u    0.249734     4B1u    0.252067     7Ag     0.280892
       3B3g    0.283657     3B1g    0.285355     1B2g    0.360336
       8Ag     0.361642     1Au     0.426942     7B2u    0.428286
       8B2u    0.455072     9Ag     0.528999     4B3g    0.614221
       4B1g    0.615475     9B2u    1.071891

    Final Occupation by Irrep:
             Ag   B1g   B2g   B3g    Au   B1u   B2u   B3u
    DOCC [     5,    1,    0,    2,    0,    2,    4,    2 ]
    SOCC [     0,    1,    0,    0,    0,    0,    0,    0 ]
    NA   [     5,    2,    0,    2,    0,    2,    4,    2 ]
    NB   [     5,    1,    0,    2,    0,    2,    4,    2 ]

  @DF-UKS Final Energy:  -919.97513478409655

   => Energetics <=

    Nuclear Repulsion Energy =             78.6322750041950940
    One-Electron Energy =               -1415.3694982990809876
    Two-Electron Energy =                 461.9714837783693042
    DFT Exchange-Correlation Energy =     -45.2093952675797652
    Empirical Dispersion Energy =           0.0000000000000000
    VV10 Nonlocal Energy =                  0.0000000000000000
    Total Energy =                       -919.9751347840965536

  UHF NO Occupations:
  HONO-2 :    4B2u 1.9997057
  HONO-1 :    2B3u 1.9994264
  HONO-0 :    2B1g 1.0000000
  LUNO+0 :    3B3u 0.0005736
  LUNO+1 :    5B2u 0.0002943
  LUNO+2 :    6 Ag 0.0002426
  LUNO+3 :    3B1u 0.0000108

Computation Completed

Properties will be evaluated at   0.000000,   0.000000,   0.000000 [a0]

Properties computed using the SCF density matrix

 Multipole Moments:

 ------------------------------------------------------------------------------------
     Multipole            Electronic (a.u.)      Nuclear  (a.u.)        Total (a.u.)
 ------------------------------------------------------------------------------------

 L = 1.  Multiply by 2.5417464519 to convert [e a0] to [Debye]
 Dipole X            :          0.0000000            0.0000000            0.0000000
 Dipole Y            :          0.0000000            0.0000000            0.0000000
 Dipole Z            :          0.0000000            0.0000000            0.0000000
 Magnitude           :                                                    0.0000000

 ------------------------------------------------------------------------------------

*** tstop() called on Joses-MacBook-Pro-2.local at Thu Jul 17 16:00:02 2025
Module time:
	user time   =       6.11 seconds =       0.10 minutes
	system time =       2.11 seconds =       0.04 minutes
	total time  =          1 seconds =       0.02 minutes
Total time:
	user time   =     154.25 seconds =       2.57 minutes
	system time =      48.95 seconds =       0.82 minutes
	total time  =         20 seconds =       0.33 minutes

*** tstart() called on Joses-MacBook-Pro-2.local
*** at Thu Jul 17 16:00:02 2025

         ------------------------------------------------------------
                                   SCF GRAD
                          Rob Parrish, Justin Turney,
                       Andy Simmonett, and Alex Sokolov
         ------------------------------------------------------------

  ==> Geometry <==

    Molecular point group: d2h
    Full point group: D_inf_h

    Geometry (in Angstrom), charge = 1, multiplicity = 2:

       Center              X                  Y                   Z               Mass
    ------------   -----------------  -----------------  -----------------  -----------------
         CL          -0.000000000000     0.972451921781     0.000000000000    34.968852682000
         CL           0.000000000000    -0.972451921781     0.000000000000    34.968852682000

  Nuclear repulsion =   78.632275004195094

  ==> Basis Set <==

  Basis Set: CC-PVDZ
    Blend: CC-PVDZ
    Number of shells: 16
    Number of basis functions: 36
    Number of Cartesian functions: 38
    Spherical Harmonics?: true
    Max angular momentum: 2

  ==> DFJKGrad: Density-Fitted SCF Gradients <==

    Gradient:                    1
    J tasked:                  Yes
    K tasked:                  Yes
    wK tasked:                  No
    OpenMP threads:              1
    Integrals threads:           1
    Memory [MiB]:              375
    Schwarz Cutoff:          1E-12
    Fitting Condition:       1E-10

   => Auxiliary Basis Set <=

  Basis Set: (CC-PVDZ AUX)
    Blend: CC-PVDZ-JKFIT
    Number of shells: 72
    Number of basis functions: 224
    Number of Cartesian functions: 260
    Spherical Harmonics?: true
    Max angular momentum: 3

  ==> DFT Potential <==

   => LibXC <=

    Version 6.2.2
    S. Lehtola, C. Steigemann, M. J.T. Oliveira, and M. A.L. Marques.,  SoftwareX 7, 1â€“5 (2018) (10.1016/j.softx.2017.11.002)

   => Composite Functional: B3LYP <=

    B3LYP Hyb-GGA Exchange-Correlation Functional

    P. J. Stephens, F. J. Devlin, C. F. Chabalowski, and M. J. Frisch.,  J. Phys. Chem. 98, 11623 (1994) (10.1021/j100096a001)

    Deriv               =              1
    GGA                 =           TRUE
    Meta                =          FALSE

    Exchange Hybrid     =           TRUE
    MP2 Hybrid          =          FALSE

   => Exchange Functionals <=

    0.0800   Slater exchange
    0.7200         Becke 88

   => Exact (HF) Exchange <=

    0.2000               HF

   => Correlation Functionals <=

    0.1900   Vosko, Wilk & Nusair (VWN5_RPA)
    0.8100   Lee, Yang & Parr

   => LibXC Density Thresholds  <==

    XC_HYB_GGA_XC_B3LYP:  1.00E-15

   => Molecular Quadrature <=

    Radial Scheme          =       TREUTLER
    Pruning Scheme         =           NONE
    Nuclear Scheme         =       TREUTLER

    Blocking Scheme        =         OCTREE
    BS radius alpha        =              1
    Pruning alpha          =              1
    Radial Points          =             75
    Spherical Points       =            302
    Total Points           =          39644
    Total Blocks           =            368
    Max Points             =            251
    Max Functions          =             36
    Weights Tolerance      =       1.00E-15

  -Total Gradient:
     Atom            X                  Y                   Z
    ------   -----------------  -----------------  -----------------
       1        0.000000000000    -0.000170935040     0.000000000000
       2       -0.000000000000     0.000170935040     0.000000000000

*** tstop() called on Joses-MacBook-Pro-2.local at Thu Jul 17 16:00:02 2025
Module time:
	user time   =       2.11 seconds =       0.04 minutes
	system time =       1.56 seconds =       0.03 minutes
	total time  =          0 seconds =       0.00 minutes
Total time:
	user time   =     156.39 seconds =       2.61 minutes
	system time =      50.51 seconds =       0.84 minutes
	total time  =         20 seconds =       0.33 minutes

    			-----------------------------------------

    			 OPTKING 3.0: for geometry optimizations

    			     By R.A. King, Bethel University

    			        with contributions from

    			    A.V. Copan, J. Cayton, A. Heide

    			-----------------------------------------

	                            ===> Fragment 1 <==

	 Z (Atomic Numbers)          Masses                          Geom
	      17.000000            34.968853         -0.00000000  1.83766780  0.00000000
	      17.000000            34.968853          0.00000000 -1.83766780  0.00000000

	 - Coordinate -           - BOHR/RAD -       - ANG/DEG -
	 R(1,2)           =         3.675336           1.944904

	        --- Internal Coordinate Step in ANG or DEG, aJ/ANG or AJ/DEG ---
	-------------------------------------------------------------------------------
	           Coordinate      Previous         Force          Change          New
	           ----------      --------        ------          ------        ------
	               R(1,2)       1.94490        0.00141        0.00033       1.94523
	-------------------------------------------------------------------------------

	                                 ==> Convergence Check <==

	Measures of convergence in internal coordinates in au.

	Criteria marked as inactive (o), active & met (*), and active & unmet ( ).

	----------------------------------------------------------------------------------------------
	   Step    Total Energy     Delta E     Max Force     RMS Force      Max Disp      RMS Disp
	----------------------------------------------------------------------------------------------
	  Convergence Criteria     1.00e-06 *    3.00e-04 *             o    1.20e-03 *             o
	----------------------------------------------------------------------------------------------
	    15    -919.97513478   -1.97e-06      1.71e-04 *    1.71e-04 o    6.21e-04 *    6.21e-04 o  ~
	----------------------------------------------------------------------------------------------

Next Geometry in Ang
	Fragment 1 (Ang)

	   Cl  -0.0000000000   0.9726161601   0.0000000000
	   Cl   0.0000000000  -0.9726161601   0.0000000000

    Final optimized geometry and variables:
    Molecular point group: d2h
    Full point group: D_inf_h

    Geometry (in Angstrom), charge = 1, multiplicity = 2:

    CL          -0.000000000000     0.972451921781     0.000000000000
    CL           0.000000000000    -0.972451921781     0.000000000000

    Psi4 stopped on: Thursday, 17 July 2025 04:00PM
    Psi4 wall time for execution: 0:00:20.40

*** Psi4 exiting successfully. Buy a developer a beer!
