                               Psi4 1.9.1 release

  ==> Input File <==

--------------------------------------------------------------------------
molecule {
1 2
Ar   0.00000        0.60000        0.00000
Ar   0.00000       -0.60000        0.00000
}

set {
basis              cc-pvdz
reference          uks
maxiter            500
geom_maxiter       500
DAMPING_PERCENTAGE 1
guess              SAP
}

optimize('b3lyp')
--------------------------------------------------------------------------

    Molecular point group: d2h
  Charge       = 1
  Multiplicity = 2
  Basis Set: CC-PVDZ
    Blend: CC-PVDZ
  Basis Set: (CC-PVDZ AUX)
    Blend: CC-PVDZ-JKFIT
  @DF-UKS Final Energy: -1052.86394485147480
    Total Energy =                      -1052.8639448514747983
 Dipole X            :          0.0000000            0.0000000            0.0000000
 Dipole Y            :          0.0000000            0.0000000            0.0000000
 Dipole Z            :          0.0000000            0.0000000            0.0000000
 Magnitude           :                                                    0.0000000
    Molecular point group: d2h
  Basis Set: CC-PVDZ
    Blend: CC-PVDZ
  Basis Set: (CC-PVDZ AUX)
    Blend: CC-PVDZ-JKFIT
  Basis Set: CC-PVDZ
    Blend: CC-PVDZ
  Basis Set: (CC-PVDZ AUX)
    Blend: CC-PVDZ-JKFIT
  @DF-UKS Final Energy: -1052.92158818501821
    Total Energy =                      -1052.9215881850182086
  Basis Set: CC-PVDZ
    Blend: CC-PVDZ
  Basis Set: (CC-PVDZ AUX)
    Blend: CC-PVDZ-JKFIT
  Basis Set: CC-PVDZ
    Blend: CC-PVDZ
  @DF-UKS Final Energy: -1053.02683175644938
    Total Energy =                      -1053.0268317564493827
  @DF-UKS Final Energy: -1053.35675734123379
    Total Energy =                      -1053.3567573412337879
  @DF-UKS Final Energy: -1053.95736726147311
    Total Energy =                      -1053.9573672614731095
  @DF-UKS Final Energy: -1054.20690941033422
    Total Energy =                      -1054.2069094103342195
  @DF-UKS Final Energy: -1054.38233223181442
    Total Energy =                      -1054.3823322318144164
  @DF-UKS Final Energy: -1054.48614043386215
    Total Energy =                      -1054.4861404338621469
  @DF-UKS Final Energy: -1054.53619735157895
    Total Energy =                      -1054.5361973515789487
  @DF-UKS Final Energy: -1054.55889966448740
    Total Energy =                      -1054.5588996644873987
  @DF-UKS Final Energy: -1054.56834614407626
    Total Energy =                      -1054.5683461440762585
  @DF-UKS Final Energy: -1054.57170264827027
    Total Energy =                      -1054.5717026482702749
  @DF-UKS Final Energy: -1054.57246123161144
    Total Energy =                      -1054.5724612316114417
  @DF-UKS Final Energy: -1054.57271144039601
    Total Energy =                      -1054.5727114403957785
  @DF-UKS Final Energy: -1054.57275143610741
    Total Energy =                      -1054.5727514361071826
  @DF-UKS Final Energy: -1054.57275838587839
    Total Energy =                      -1054.5727583858783873
  Basis Set: (CC-PVDZ AUX)
    Blend: CC-PVDZ-JKFIT
  Basis Set: CC-PVDZ
    Blend: CC-PVDZ
  Basis Set: (CC-PVDZ AUX)
    Blend: CC-PVDZ-JKFIT
  @DF-UKS Final Energy: -1054.57275974083655
    Total Energy =                      -1054.5727597408365455
  Basis Set: CC-PVDZ
    Blend: CC-PVDZ
  Basis Set: (CC-PVDZ AUX)
    Blend: CC-PVDZ-JKFIT
  Charge       = 1
  Multiplicity = 2
  Basis Set: CC-PVDZ
    Blend: CC-PVDZ
  Basis Set: (CC-PVDZ AUX)
    Blend: CC-PVDZ-JKFIT

    Orbital Energies [Eh]
    ---------------------

    Alpha Occupied:

       1B2u -115.460502     1Ag  -115.460502     2B2u  -11.492693
       2Ag   -11.492619     3B2u   -9.054728     3Ag    -9.054727
       1B3g   -9.038477     1B1g   -9.038477     1B1u   -9.038476
       1B3u   -9.038476     4Ag    -1.321817     4B2u   -1.295587
       5Ag    -0.821597     2B3u   -0.748869     2B1u   -0.748869
       5B2u   -0.731226     2B3g   -0.729346     2B1g   -0.729346

    Alpha Virtual:

       6Ag     0.248805     3B3u    0.254916     3B1u    0.254916
       6B2u    0.287447     3B1g    0.351315     3B3g    0.351315
       7Ag     0.407301     7B2u    0.448038     8Ag     0.476802
       4B3u    0.485931     4B1u    0.485931     4B1g    0.515036
       4B3g    0.515036     1B2g    0.516496     9Ag     0.516508
       1Au     0.517836     8B2u    0.517849     9B2u    0.853369

    Beta Occupied:

       1Ag  -115.455616     1B2u -115.455616     2B2u  -11.488075
       2Ag   -11.488011     3Ag    -9.039482     3B2u   -9.039481
       1B3g   -9.035660     1B1g   -9.035660     1B1u   -9.035660
       1B3u   -9.035660     4Ag    -1.291476     4B2u   -1.263447
       5Ag    -0.753714     2B3u   -0.738851     2B1u   -0.738851
       2B3g   -0.719003     2B1g   -0.719003

    Beta Virtual:

       5B2u   -0.611923     3B3u    0.259152     3B1u    0.259152
       6Ag     0.271020     6B2u    0.311132     3B1g    0.358894
       3B3g    0.358894     7Ag     0.421880     7B2u    0.482709
       4B3u    0.519154     4B1u    0.519154     8Ag     0.519515
       1B2g    0.522099     9Ag     0.522112     1Au     0.523457
       8B2u    0.523470     4B1g    0.546066     4B3g    0.546066
       9B2u    0.872216

    Final Occupation by Irrep:
             Ag   B1g   B2g   B3g    Au   B1u   B2u   B3u
    DOCC [     5,    2,    0,    2,    0,    2,    4,    2 ]
    SOCC [     0,    0,    0,    0,    0,    0,    1,    0 ]
    NA   [     5,    2,    0,    2,    0,    2,    5,    2 ]
    NB   [     5,    2,    0,    2,    0,    2,    4,    2 ]

  @DF-UKS Final Energy: -1054.57275978710004

   => Energetics <=

    Nuclear Repulsion Energy =             65.6102657497490469
    One-Electron Energy =               -1575.6182133505249112
    Two-Electron Energy =                 504.8964007318567155
    DFT Exchange-Correlation Energy =     -49.4612129181808129
    Empirical Dispersion Energy =           0.0000000000000000
    VV10 Nonlocal Energy =                  0.0000000000000000
    Total Energy =                      -1054.5727597871000398

  UHF NO Occupations:
  HONO-2 :    4B2u 1.9997915
  HONO-1 :    5 Ag 1.9994117
  HONO-0 :    5B2u 1.0000000
  LUNO+0 :    6 Ag 0.0005883
  LUNO+1 :    6B2u 0.0002085
  LUNO+2 :    7 Ag 0.0001771
  LUNO+3 :    3B3u 0.0000113

Computation Completed

Properties will be evaluated at   0.000000,   0.000000,   0.000000 [a0]

Properties computed using the SCF density matrix

 Multipole Moments:

 ------------------------------------------------------------------------------------
     Multipole            Electronic (a.u.)      Nuclear  (a.u.)        Total (a.u.)
 ------------------------------------------------------------------------------------

 L = 1.  Multiply by 2.5417464519 to convert [e a0] to [Debye]
 Dipole X            :          0.0000000            0.0000000            0.0000000
 Dipole Y            :          0.0000000            0.0000000            0.0000000
 Dipole Z            :          0.0000000            0.0000000            0.0000000
 Magnitude           :                                                    0.0000000

 ------------------------------------------------------------------------------------

*** tstop() called on Joses-MacBook-Pro-2.local at Thu Jul 17 16:02:26 2025
Module time:
	user time   =       6.63 seconds =       0.11 minutes
	system time =       2.03 seconds =       0.03 minutes
	total time  =          1 seconds =       0.02 minutes
Total time:
	user time   =     186.66 seconds =       3.11 minutes
	system time =      57.80 seconds =       0.96 minutes
	total time  =         23 seconds =       0.38 minutes

*** tstart() called on Joses-MacBook-Pro-2.local
*** at Thu Jul 17 16:02:26 2025

         ------------------------------------------------------------
                                   SCF GRAD
                          Rob Parrish, Justin Turney,
                       Andy Simmonett, and Alex Sokolov
         ------------------------------------------------------------

  ==> Geometry <==

    Molecular point group: d2h
    Full point group: D_inf_h

    Geometry (in Angstrom), charge = 1, multiplicity = 2:

       Center              X                  Y                   Z               Mass
    ------------   -----------------  -----------------  -----------------  -----------------
         AR          -0.000000000000     1.306605104383     0.000000000000    39.962383123700
         AR           0.000000000000    -1.306605104383     0.000000000000    39.962383123700

  Nuclear repulsion =   65.610265749749047

  ==> Basis Set <==

  Basis Set: CC-PVDZ
    Blend: CC-PVDZ
    Number of shells: 16
    Number of basis functions: 36
    Number of Cartesian functions: 38
    Spherical Harmonics?: true
    Max angular momentum: 2

  ==> DFJKGrad: Density-Fitted SCF Gradients <==

    Gradient:                    1
    J tasked:                  Yes
    K tasked:                  Yes
    wK tasked:                  No
    OpenMP threads:              1
    Integrals threads:           1
    Memory [MiB]:              375
    Schwarz Cutoff:          1E-12
    Fitting Condition:       1E-10

   => Auxiliary Basis Set <=

  Basis Set: (CC-PVDZ AUX)
    Blend: CC-PVDZ-JKFIT
    Number of shells: 72
    Number of basis functions: 224
    Number of Cartesian functions: 260
    Spherical Harmonics?: true
    Max angular momentum: 3

  ==> DFT Potential <==

   => LibXC <=

    Version 6.2.2
    S. Lehtola, C. Steigemann, M. J.T. Oliveira, and M. A.L. Marques.,  SoftwareX 7, 1â€“5 (2018) (10.1016/j.softx.2017.11.002)

   => Composite Functional: B3LYP <=

    B3LYP Hyb-GGA Exchange-Correlation Functional

    P. J. Stephens, F. J. Devlin, C. F. Chabalowski, and M. J. Frisch.,  J. Phys. Chem. 98, 11623 (1994) (10.1021/j100096a001)

    Deriv               =              1
    GGA                 =           TRUE
    Meta                =          FALSE

    Exchange Hybrid     =           TRUE
    MP2 Hybrid          =          FALSE

   => Exchange Functionals <=

    0.0800   Slater exchange
    0.7200         Becke 88

   => Exact (HF) Exchange <=

    0.2000               HF

   => Correlation Functionals <=

    0.1900   Vosko, Wilk & Nusair (VWN5_RPA)
    0.8100   Lee, Yang & Parr

   => LibXC Density Thresholds  <==

    XC_HYB_GGA_XC_B3LYP:  1.00E-15

   => Molecular Quadrature <=

    Radial Scheme          =       TREUTLER
    Pruning Scheme         =           NONE
    Nuclear Scheme         =       TREUTLER

    Blocking Scheme        =         OCTREE
    BS radius alpha        =              1
    Pruning alpha          =              1
    Radial Points          =             75
    Spherical Points       =            302
    Total Points           =          39178
    Total Blocks           =            366
    Max Points             =            256
    Max Functions          =             36
    Weights Tolerance      =       1.00E-15

  -Total Gradient:
     Atom            X                  Y                   Z
    ------   -----------------  -----------------  -----------------
       1        0.000000000000    -0.000014132324     0.000000000000
       2       -0.000000000000     0.000014132324    -0.000000000000

*** tstop() called on Joses-MacBook-Pro-2.local at Thu Jul 17 16:02:27 2025
Module time:
	user time   =       2.20 seconds =       0.04 minutes
	system time =       1.02 seconds =       0.02 minutes
	total time  =          1 seconds =       0.02 minutes
Total time:
	user time   =     188.87 seconds =       3.15 minutes
	system time =      58.82 seconds =       0.98 minutes
	total time  =         24 seconds =       0.40 minutes

    			-----------------------------------------

    			 OPTKING 3.0: for geometry optimizations

    			     By R.A. King, Bethel University

    			        with contributions from

    			    A.V. Copan, J. Cayton, A. Heide

    			-----------------------------------------

	                            ===> Fragment 1 <==

	 Z (Atomic Numbers)          Masses                          Geom
	      18.000000            39.962383         -0.00000000  2.46912580  0.00000000
	      18.000000            39.962383          0.00000000 -2.46912580  0.00000000

	 - Coordinate -           - BOHR/RAD -       - ANG/DEG -
	 R(1,2)           =         4.938252           2.613210

	        --- Internal Coordinate Step in ANG or DEG, aJ/ANG or AJ/DEG ---
	-------------------------------------------------------------------------------
	           Coordinate      Previous         Force          Change          New
	           ----------      --------        ------          ------        ------
	               R(1,2)       2.61321        0.00012        0.00022       2.61343
	-------------------------------------------------------------------------------

	                                 ==> Convergence Check <==

	Measures of convergence in internal coordinates in au.

	Criteria marked as inactive (o), active & met (*), and active & unmet ( ).

	----------------------------------------------------------------------------------------------
	   Step    Total Energy     Delta E     Max Force     RMS Force      Max Disp      RMS Disp
	----------------------------------------------------------------------------------------------
	  Convergence Criteria     1.00e-06 *    3.00e-04 *             o    1.20e-03 *             o
	----------------------------------------------------------------------------------------------
	    18   -1054.57275979   -4.63e-08 *    1.41e-05 *    1.41e-05 o    4.23e-04 *    4.23e-04 o  ~
	----------------------------------------------------------------------------------------------

Next Geometry in Ang
	Fragment 1 (Ang)

	   Ar  -0.0000000000   1.3067170762   0.0000000000
	   Ar   0.0000000000  -1.3067170762   0.0000000000

    Final optimized geometry and variables:
    Molecular point group: d2h
    Full point group: D_inf_h

    Geometry (in Angstrom), charge = 1, multiplicity = 2:

    AR          -0.000000000000     1.306605104383     0.000000000000
    AR           0.000000000000    -1.306605104383     0.000000000000

    Psi4 stopped on: Thursday, 17 July 2025 04:02PM
    Psi4 wall time for execution: 0:00:24.04

*** Psi4 exiting successfully. Buy a developer a beer!
