                               Psi4 1.9.1 release

  ==> Input File <==

--------------------------------------------------------------------------
molecule {
1 2
He   0.00000        0.60000        0.00000
S   0.00000       -0.60000        0.00000
}

set {
basis              cc-pvdz
reference          uks
maxiter            500
geom_maxiter       500
DAMPING_PERCENTAGE 1
guess              SAP
}

optimize('b3lyp')
--------------------------------------------------------------------------

    Molecular point group: c2v
  Charge       = 1
  Multiplicity = 2
  Basis Set: CC-PVDZ
    Blend: CC-PVDZ
  Basis Set: (CC-PVDZ AUX)
    Blend: CC-PVDZ-JKFIT + DEF2-UNIVERSAL-JKFIT
  @DF-UKS Final Energy:  -400.50273111709015
    Total Energy =                       -400.5027311170901498
 Dipole X            :          0.0000000            0.0000000            0.0000000
 Dipole Y            :          0.0000000            0.0000000            0.0000000
 Dipole Z            :          0.6681976           -0.0061465            0.6620510
 Magnitude           :                                                    0.6620510
    Molecular point group: c2v
  Basis Set: CC-PVDZ
    Blend: CC-PVDZ
  Basis Set: (CC-PVDZ AUX)
    Blend: CC-PVDZ-JKFIT + DEF2-UNIVERSAL-JKFIT
  Basis Set: CC-PVDZ
    Blend: CC-PVDZ
  Basis Set: (CC-PVDZ AUX)
    Blend: CC-PVDZ-JKFIT + DEF2-UNIVERSAL-JKFIT
  @DF-UKS Final Energy:  -400.56438543841443
    Total Energy =                       -400.5643854384144333
  Basis Set: CC-PVDZ
    Blend: CC-PVDZ
  Basis Set: (CC-PVDZ AUX)
    Blend: CC-PVDZ-JKFIT + DEF2-UNIVERSAL-JKFIT
  Basis Set: CC-PVDZ
    Blend: CC-PVDZ
  @DF-UKS Final Energy:  -400.57123700694081
    Total Energy =                       -400.5712370069407484
  @DF-UKS Final Energy:  -400.57638576690027
    Total Energy =                       -400.5763857669002732
  @DF-UKS Final Energy:  -400.57760260069176
    Total Energy =                       -400.5776026006917618
  @DF-UKS Final Energy:  -400.57796141422619
    Total Energy =                       -400.5779614142261948
  @DF-UKS Final Energy:  -400.57810453214341
    Total Energy =                       -400.5781045321434135
  @DF-UKS Final Energy:  -400.57814139683580
    Total Energy =                       -400.5781413968357469
  @DF-UKS Final Energy:  -400.57815401257062
    Total Energy =                       -400.5781540125706215
  Basis Set: (CC-PVDZ AUX)
    Blend: CC-PVDZ-JKFIT + DEF2-UNIVERSAL-JKFIT
  Basis Set: CC-PVDZ
    Blend: CC-PVDZ
  Basis Set: (CC-PVDZ AUX)
    Blend: CC-PVDZ-JKFIT + DEF2-UNIVERSAL-JKFIT
  @DF-UKS Final Energy:  -400.57815575359047
    Total Energy =                       -400.5781557535904653
  Basis Set: CC-PVDZ
    Blend: CC-PVDZ
  Basis Set: (CC-PVDZ AUX)
    Blend: CC-PVDZ-JKFIT + DEF2-UNIVERSAL-JKFIT
  Charge       = 1
  Multiplicity = 2
  Basis Set: CC-PVDZ
    Blend: CC-PVDZ
  Basis Set: (CC-PVDZ AUX)
    Blend: CC-PVDZ-JKFIT + DEF2-UNIVERSAL-JKFIT

    Orbital Energies [Eh]
    ---------------------

    Alpha Occupied:

       1A1   -89.364238     2A1    -8.412203     3A1    -6.385245
       1B2    -6.379873     1B1    -6.357343     4A1    -1.142522
       5A1    -1.001596     2B2    -0.678210     2B1    -0.625555

    Alpha Virtual:

       6A1    -0.543916     7A1     0.130340     8A1     0.147937
       3B2     0.149537     4B2     0.165578     3B1     0.178879
       4B1     0.205543     1A2     0.207388     9A1     0.209305
      10A1     0.309471    11A1     0.921469     5B2     1.816488
       5B1     1.818892    12A1     2.078248

    Beta Occupied:

       1A1   -89.358039     2A1    -8.405898     3A1    -6.381744
       1B2    -6.358890     1B1    -6.353637     4A1    -1.124100
       5A1    -0.969204     2B1    -0.610656

    Beta Virtual:

       6A1    -0.527206     2B2    -0.521285     7A1     0.147110
       8A1     0.163276     3B1     0.184554     3B2     0.190184
       4B1     0.212950     4B2     0.227628     1A2     0.261317
       9A1     0.267186    10A1     0.324166    11A1     0.920915
       5B2     1.816822     5B1     1.818242    12A1     2.079978

    Final Occupation by Irrep:
             A1    A2    B1    B2
    DOCC [     5,    0,    2,    1 ]
    SOCC [     0,    0,    0,    1 ]
    NA   [     5,    0,    2,    2 ]
    NB   [     5,    0,    2,    1 ]

  @DF-UKS Final Energy:  -400.57815586582620

   => Energetics <=

    Nuclear Repulsion Energy =              9.5014460069207356
    One-Electron Energy =                -565.1304940934337537
    Two-Electron Energy =                 176.2883564971323835
    DFT Exchange-Correlation Energy =     -21.2374642764456141
    Empirical Dispersion Energy =           0.0000000000000000
    VV10 Nonlocal Energy =                  0.0000000000000000
    Total Energy =                       -400.5781558658262043

  UHF NO Occupations:
  HONO-2 :    4 A1 1.9999679
  HONO-1 :    5 A1 1.9987804
  HONO-0 :    2 B2 1.0000000
  LUNO+0 :    6 A1 0.0012196
  LUNO+1 :    7 A1 0.0000321
  LUNO+2 :    3 B1 0.0000287
  LUNO+3 :    8 A1 0.0000000

Computation Completed

Properties will be evaluated at   0.000000,   0.000000,   0.000000 [a0]

Properties computed using the SCF density matrix

 Multipole Moments:

 ------------------------------------------------------------------------------------
     Multipole            Electronic (a.u.)      Nuclear  (a.u.)        Total (a.u.)
 ------------------------------------------------------------------------------------

 L = 1.  Multiply by 2.5417464519 to convert [e a0] to [Debye]
 Dipole X            :          0.0000000            0.0000000            0.0000000
 Dipole Y            :          0.0000000            0.0000000            0.0000000
 Dipole Z            :          0.1146028           -0.0091287            0.1054741
 Magnitude           :                                                    0.1054741

 ------------------------------------------------------------------------------------

*** tstop() called on Joses-MacBook-Pro-2.local at Thu Jul 17 12:41:12 2025
Module time:
	user time   =       2.24 seconds =       0.04 minutes
	system time =       4.06 seconds =       0.07 minutes
	total time  =          0 seconds =       0.00 minutes
Total time:
	user time   =      45.12 seconds =       0.75 minutes
	system time =      49.36 seconds =       0.82 minutes
	total time  =          9 seconds =       0.15 minutes

*** tstart() called on Joses-MacBook-Pro-2.local
*** at Thu Jul 17 12:41:12 2025

         ------------------------------------------------------------
                                   SCF GRAD
                          Rob Parrish, Justin Turney,
                       Andy Simmonett, and Alex Sokolov
         ------------------------------------------------------------

  ==> Geometry <==

    Molecular point group: c2v
    Full point group: C_inf_v

    Geometry (in Angstrom), charge = 1, multiplicity = 2:

       Center              X                  Y                   Z               Mass
    ------------   -----------------  -----------------  -----------------  -----------------
         HE           0.000000000000     0.000000000000     1.583927522311     4.002603254130
         S            0.000000000000     0.000000000000    -0.198292860682    31.972071174400

  Nuclear repulsion =    9.501446006920736

  ==> Basis Set <==

  Basis Set: CC-PVDZ
    Blend: CC-PVDZ
    Number of shells: 11
    Number of basis functions: 23
    Number of Cartesian functions: 24
    Spherical Harmonics?: true
    Max angular momentum: 2

  ==> DFJKGrad: Density-Fitted SCF Gradients <==

    Gradient:                    1
    J tasked:                  Yes
    K tasked:                  Yes
    wK tasked:                  No
    OpenMP threads:              1
    Integrals threads:           1
    Memory [MiB]:              375
    Schwarz Cutoff:          1E-12
    Fitting Condition:       1E-10

   => Auxiliary Basis Set <=

  Basis Set: (CC-PVDZ AUX)
    Blend: CC-PVDZ-JKFIT + DEF2-UNIVERSAL-JKFIT
    Number of shells: 45
    Number of basis functions: 135
    Number of Cartesian functions: 155
    Spherical Harmonics?: true
    Max angular momentum: 3

  ==> DFT Potential <==

   => LibXC <=

    Version 6.2.2
    S. Lehtola, C. Steigemann, M. J.T. Oliveira, and M. A.L. Marques.,  SoftwareX 7, 1â€“5 (2018) (10.1016/j.softx.2017.11.002)

   => Composite Functional: B3LYP <=

    B3LYP Hyb-GGA Exchange-Correlation Functional

    P. J. Stephens, F. J. Devlin, C. F. Chabalowski, and M. J. Frisch.,  J. Phys. Chem. 98, 11623 (1994) (10.1021/j100096a001)

    Deriv               =              1
    GGA                 =           TRUE
    Meta                =          FALSE

    Exchange Hybrid     =           TRUE
    MP2 Hybrid          =          FALSE

   => Exchange Functionals <=

    0.0800   Slater exchange
    0.7200         Becke 88

   => Exact (HF) Exchange <=

    0.2000               HF

   => Correlation Functionals <=

    0.1900   Vosko, Wilk & Nusair (VWN5_RPA)
    0.8100   Lee, Yang & Parr

   => LibXC Density Thresholds  <==

    XC_HYB_GGA_XC_B3LYP:  1.00E-15

   => Molecular Quadrature <=

    Radial Scheme          =       TREUTLER
    Pruning Scheme         =           NONE
    Nuclear Scheme         =       TREUTLER

    Blocking Scheme        =         OCTREE
    BS radius alpha        =              1
    Pruning alpha          =              1
    Radial Points          =             75
    Spherical Points       =            302
    Total Points           =          42396
    Total Blocks           =            375
    Max Points             =            254
    Max Functions          =             23
    Weights Tolerance      =       1.00E-15

  -Total Gradient:
     Atom            X                  Y                   Z
    ------   -----------------  -----------------  -----------------
       1        0.000000000000     0.000000000000    -0.000008733505
       2       -0.000000000000    -0.000000000000     0.000014895961

*** tstop() called on Joses-MacBook-Pro-2.local at Thu Jul 17 12:41:12 2025
Module time:
	user time   =       0.56 seconds =       0.01 minutes
	system time =       1.39 seconds =       0.02 minutes
	total time  =          0 seconds =       0.00 minutes
Total time:
	user time   =      45.68 seconds =       0.76 minutes
	system time =      50.75 seconds =       0.85 minutes
	total time  =          9 seconds =       0.15 minutes

    			-----------------------------------------

    			 OPTKING 3.0: for geometry optimizations

    			     By R.A. King, Bethel University

    			        with contributions from

    			    A.V. Copan, J. Cayton, A. Heide

    			-----------------------------------------

	                            ===> Fragment 1 <==

	 Z (Atomic Numbers)          Masses                          Geom
	       2.000000             4.002603          0.00000000  0.00000000  2.99318922
	      16.000000            31.972071          0.00000000  0.00000000 -0.37471920

	 - Coordinate -           - BOHR/RAD -       - ANG/DEG -
	 R(1,2)           =         3.367908           1.782220

	        --- Internal Coordinate Step in ANG or DEG, aJ/ANG or AJ/DEG ---
	-------------------------------------------------------------------------------
	           Coordinate      Previous         Force          Change          New
	           ----------      --------        ------          ------        ------
	               R(1,2)       1.78222        0.00010        0.00017       1.78239
	-------------------------------------------------------------------------------

	                                 ==> Convergence Check <==

	Measures of convergence in internal coordinates in au.

	Criteria marked as inactive (o), active & met (*), and active & unmet ( ).

	----------------------------------------------------------------------------------------------
	   Step    Total Energy     Delta E     Max Force     RMS Force      Max Disp      RMS Disp
	----------------------------------------------------------------------------------------------
	  Convergence Criteria     1.00e-06 *    3.00e-04 *             o    1.20e-03 *             o
	----------------------------------------------------------------------------------------------
	    11    -400.57815587   -1.12e-07 *    1.18e-05 *    1.18e-05 o    3.26e-04 *    3.26e-04 o  ~
	----------------------------------------------------------------------------------------------

Next Geometry in Ang
	Fragment 1 (Ang)

	   He   0.0000000000   0.0000000000   1.5840138409
	    S   0.0000000000   0.0000000000  -0.1983791793

    Final optimized geometry and variables:
    Molecular point group: c2v
    Full point group: C_inf_v

    Geometry (in Angstrom), charge = 1, multiplicity = 2:

    HE           0.000000000000     0.000000000000     1.583927522311
    S            0.000000000000     0.000000000000    -0.198292860682

    Psi4 stopped on: Thursday, 17 July 2025 12:41PM
    Psi4 wall time for execution: 0:00:09.79

*** Psi4 exiting successfully. Buy a developer a beer!
