                               Psi4 1.9.1 release

  ==> Input File <==

--------------------------------------------------------------------------
molecule {
1 2
Be   0.00000        0.60000        0.00000
S   0.00000       -0.60000        0.00000
}

set {
basis              cc-pvdz
reference          uks
maxiter            500
geom_maxiter       500
DAMPING_PERCENTAGE 1
guess              SAP
}

optimize('b3lyp')
--------------------------------------------------------------------------

    Molecular point group: c2v
  Charge       = 1
  Multiplicity = 2
  Basis Set: CC-PVDZ
    Blend: CC-PVDZ
  Basis Set: (CC-PVDZ AUX)
    Blend: CC-PVDZ-JKFIT + DEF2-UNIVERSAL-JKFIT
  @DF-UKS Final Energy:  -412.15635689226036
    Total Energy =                       -412.1563568922603622
 Dipole X            :          0.0000000            0.0000000            0.0000000
 Dipole Y            :          0.0000000            0.0000000            0.0000000
 Dipole Z            :          2.0403693           -0.9022516            1.1381177
 Magnitude           :                                                    1.1381177
    Molecular point group: c2v
  Basis Set: CC-PVDZ
    Blend: CC-PVDZ
  Basis Set: (CC-PVDZ AUX)
    Blend: CC-PVDZ-JKFIT + DEF2-UNIVERSAL-JKFIT
  Basis Set: CC-PVDZ
    Blend: CC-PVDZ
  Basis Set: (CC-PVDZ AUX)
    Blend: CC-PVDZ-JKFIT + DEF2-UNIVERSAL-JKFIT
  @DF-UKS Final Energy:  -412.33147295989750
    Total Energy =                       -412.3314729598974964
  Basis Set: CC-PVDZ
    Blend: CC-PVDZ
  Basis Set: (CC-PVDZ AUX)
    Blend: CC-PVDZ-JKFIT + DEF2-UNIVERSAL-JKFIT
  Basis Set: CC-PVDZ
    Blend: CC-PVDZ
  @DF-UKS Final Energy:  -412.44238958634861
    Total Energy =                       -412.4423895863486678
  @DF-UKS Final Energy:  -412.48410477967099
    Total Energy =                       -412.4841047796709859
  @DF-UKS Final Energy:  -412.50184745430653
    Total Energy =                       -412.5018474543065281
  @DF-UKS Final Energy:  -412.50863402249405
    Total Energy =                       -412.5086340224940500
  @DF-UKS Final Energy:  -412.51010142752000
    Total Energy =                       -412.5101014275199987
  @DF-UKS Final Energy:  -412.51051535703675
    Total Energy =                       -412.5105153570367520
  @DF-UKS Final Energy:  -412.51057498390571
    Total Energy =                       -412.5105749839057125
  Basis Set: (CC-PVDZ AUX)
    Blend: CC-PVDZ-JKFIT + DEF2-UNIVERSAL-JKFIT
  Basis Set: CC-PVDZ
    Blend: CC-PVDZ
  Basis Set: (CC-PVDZ AUX)
    Blend: CC-PVDZ-JKFIT + DEF2-UNIVERSAL-JKFIT
  @DF-UKS Final Energy:  -412.51058491666595
    Total Energy =                       -412.5105849166659482
  Basis Set: CC-PVDZ
    Blend: CC-PVDZ
  Basis Set: (CC-PVDZ AUX)
    Blend: CC-PVDZ-JKFIT + DEF2-UNIVERSAL-JKFIT
  Charge       = 1
  Multiplicity = 2
  Basis Set: CC-PVDZ
    Blend: CC-PVDZ
  Basis Set: (CC-PVDZ AUX)
    Blend: CC-PVDZ-JKFIT + DEF2-UNIVERSAL-JKFIT

    Orbital Energies [Eh]
    ---------------------

    Alpha Occupied:

       1A1   -89.160364     2A1    -8.221797     3A1    -6.194712
       1B2    -6.176489     1B1    -6.176489     4A1    -4.488681
       5A1    -0.971114     6A1    -0.649737     2B1    -0.533159
       2B2    -0.533159

    Alpha Virtual:

       7A1    -0.398000     3B2    -0.280589     3B1    -0.280589
       8A1    -0.120754     4B2    -0.045217     4B1    -0.045217
       9A1    -0.033195    10A1    -0.021938    11A1     0.165856
       5B1     0.166982     5B2     0.166982    12A1     0.169350
       1A2     0.169350     6B1     0.323045     6B2     0.323045
       2A2     0.410537    13A1     0.410538    14A1     0.421714
      15A1     0.617488     7B1     0.630955     7B2     0.630955
      16A1     0.941966

    Beta Occupied:

       1A1   -89.155347     2A1    -8.216324     3A1    -6.179494
       1B1    -6.173129     1B2    -6.173129     4A1    -4.482825
       5A1    -0.925997     2B1    -0.518759     2B2    -0.518759

    Beta Virtual:

       6A1    -0.512561     7A1    -0.388705     3B2    -0.266693
       3B1    -0.266693     8A1    -0.116787     4B2    -0.040395
       4B1    -0.040395     9A1    -0.032638    10A1     0.017829
       1A2     0.178113    11A1     0.178113     5B1     0.188710
       5B2     0.188710    12A1     0.190373     6B1     0.329527
       6B2     0.329527     2A2     0.419815    13A1     0.419816
      14A1     0.454901    15A1     0.631787     7B1     0.660325
       7B2     0.660325    16A1     0.974720

    Final Occupation by Irrep:
             A1    A2    B1    B2
    DOCC [     5,    0,    2,    2 ]
    SOCC [     1,    0,    0,    0 ]
    NA   [     6,    0,    2,    2 ]
    NB   [     5,    0,    2,    2 ]

  @DF-UKS Final Energy:  -412.51058563977114

   => Energetics <=

    Nuclear Repulsion Energy =             19.0875213404283848
    One-Electron Energy =                -601.5243682911698215
    Two-Electron Energy =                 192.6989803678839905
    DFT Exchange-Correlation Energy =     -22.7727190569136617
    Empirical Dispersion Energy =           0.0000000000000000
    VV10 Nonlocal Energy =                  0.0000000000000000
    Total Energy =                       -412.5105856397711364

  UHF NO Occupations:
  HONO-2 :    2 B2 1.9997947
  HONO-1 :    5 A1 1.9988637
  HONO-0 :    6 A1 1.0000000
  LUNO+0 :    7 A1 0.0011363
  LUNO+1 :    3 B2 0.0002053
  LUNO+2 :    3 B1 0.0002053
  LUNO+3 :    8 A1 0.0000001

Computation Completed

Properties will be evaluated at   0.000000,   0.000000,   0.000000 [a0]

Properties computed using the SCF density matrix

 Multipole Moments:

 ------------------------------------------------------------------------------------
     Multipole            Electronic (a.u.)      Nuclear  (a.u.)        Total (a.u.)
 ------------------------------------------------------------------------------------

 L = 1.  Multiply by 2.5417464519 to convert [e a0] to [Debye]
 Dipole X            :          0.0000000            0.0000000            0.0000000
 Dipole Y            :          0.0000000            0.0000000            0.0000000
 Dipole Z            :          3.8950156           -1.3340681            2.5609475
 Magnitude           :                                                    2.5609475

 ------------------------------------------------------------------------------------

*** tstop() called on Joses-MacBook-Pro-2.local at Thu Jul 17 13:24:23 2025
Module time:
	user time   =       2.31 seconds =       0.04 minutes
	system time =       4.35 seconds =       0.07 minutes
	total time  =          1 seconds =       0.02 minutes
Total time:
	user time   =      40.99 seconds =       0.68 minutes
	system time =      76.56 seconds =       1.28 minutes
	total time  =         12 seconds =       0.20 minutes

*** tstart() called on Joses-MacBook-Pro-2.local
*** at Thu Jul 17 13:24:23 2025

         ------------------------------------------------------------
                                   SCF GRAD
                          Rob Parrish, Justin Turney,
                       Andy Simmonett, and Alex Sokolov
         ------------------------------------------------------------

  ==> Geometry <==

    Molecular point group: c2v
    Full point group: C_inf_v

    Geometry (in Angstrom), charge = 1, multiplicity = 2:

       Center              X                  Y                   Z               Mass
    ------------   -----------------  -----------------  -----------------  -----------------
         BE           0.000000000000     0.000000000000     1.384156846662     9.012183065000
         S            0.000000000000     0.000000000000    -0.390161614015    31.972071174400

  Nuclear repulsion =   19.087521340428385

  ==> Basis Set <==

  Basis Set: CC-PVDZ
    Blend: CC-PVDZ
    Number of shells: 14
    Number of basis functions: 32
    Number of Cartesian functions: 34
    Spherical Harmonics?: true
    Max angular momentum: 2

  ==> DFJKGrad: Density-Fitted SCF Gradients <==

    Gradient:                    1
    J tasked:                  Yes
    K tasked:                  Yes
    wK tasked:                  No
    OpenMP threads:              1
    Integrals threads:           1
    Memory [MiB]:              375
    Schwarz Cutoff:          1E-12
    Fitting Condition:       1E-10

   => Auxiliary Basis Set <=

  Basis Set: (CC-PVDZ AUX)
    Blend: CC-PVDZ-JKFIT + DEF2-UNIVERSAL-JKFIT
    Number of shells: 53
    Number of basis functions: 163
    Number of Cartesian functions: 190
    Spherical Harmonics?: true
    Max angular momentum: 3

  ==> DFT Potential <==

   => LibXC <=

    Version 6.2.2
    S. Lehtola, C. Steigemann, M. J.T. Oliveira, and M. A.L. Marques.,  SoftwareX 7, 1â€“5 (2018) (10.1016/j.softx.2017.11.002)

   => Composite Functional: B3LYP <=

    B3LYP Hyb-GGA Exchange-Correlation Functional

    P. J. Stephens, F. J. Devlin, C. F. Chabalowski, and M. J. Frisch.,  J. Phys. Chem. 98, 11623 (1994) (10.1021/j100096a001)

    Deriv               =              1
    GGA                 =           TRUE
    Meta                =          FALSE

    Exchange Hybrid     =           TRUE
    MP2 Hybrid          =          FALSE

   => Exchange Functionals <=

    0.0800   Slater exchange
    0.7200         Becke 88

   => Exact (HF) Exchange <=

    0.2000               HF

   => Correlation Functionals <=

    0.1900   Vosko, Wilk & Nusair (VWN5_RPA)
    0.8100   Lee, Yang & Parr

   => LibXC Density Thresholds  <==

    XC_HYB_GGA_XC_B3LYP:  1.00E-15

   => Molecular Quadrature <=

    Radial Scheme          =       TREUTLER
    Pruning Scheme         =           NONE
    Nuclear Scheme         =       TREUTLER

    Blocking Scheme        =         OCTREE
    BS radius alpha        =              1
    Pruning alpha          =              1
    Radial Points          =             75
    Spherical Points       =            302
    Total Points           =          42748
    Total Blocks           =            398
    Max Points             =            256
    Max Functions          =             32
    Weights Tolerance      =       1.00E-15

  -Total Gradient:
     Atom            X                  Y                   Z
    ------   -----------------  -----------------  -----------------
       1        0.000000000000    -0.000000000000    -0.000086333256
       2        0.000000000000     0.000000000000     0.000074503583

*** tstop() called on Joses-MacBook-Pro-2.local at Thu Jul 17 13:24:23 2025
Module time:
	user time   =       0.67 seconds =       0.01 minutes
	system time =       1.62 seconds =       0.03 minutes
	total time  =          0 seconds =       0.00 minutes
Total time:
	user time   =      41.68 seconds =       0.69 minutes
	system time =      78.18 seconds =       1.30 minutes
	total time  =         12 seconds =       0.20 minutes

    			-----------------------------------------

    			 OPTKING 3.0: for geometry optimizations

    			     By R.A. King, Bethel University

    			        with contributions from

    			    A.V. Copan, J. Cayton, A. Heide

    			-----------------------------------------

	                            ===> Fragment 1 <==

	 Z (Atomic Numbers)          Masses                          Geom
	       4.000000             9.012183          0.00000000  0.00000000  2.61567735
	      16.000000            31.972071          0.00000000  0.00000000 -0.73729860

	 - Coordinate -           - BOHR/RAD -       - ANG/DEG -
	 R(1,2)           =         3.352976           1.774318

	        --- Internal Coordinate Step in ANG or DEG, aJ/ANG or AJ/DEG ---
	-------------------------------------------------------------------------------
	           Coordinate      Previous         Force          Change          New
	           ----------      --------        ------          ------        ------
	               R(1,2)       1.77432        0.00066        0.00017       1.77449
	-------------------------------------------------------------------------------

	                                 ==> Convergence Check <==

	Measures of convergence in internal coordinates in au.

	Criteria marked as inactive (o), active & met (*), and active & unmet ( ).

	----------------------------------------------------------------------------------------------
	   Step    Total Energy     Delta E     Max Force     RMS Force      Max Disp      RMS Disp
	----------------------------------------------------------------------------------------------
	  Convergence Criteria     1.00e-06 *    3.00e-04 *             o    1.20e-03 *             o
	----------------------------------------------------------------------------------------------
	    11    -412.51058564   -7.23e-07 *    8.04e-05 *    8.04e-05 o    3.26e-04 *    3.26e-04 o  ~
	----------------------------------------------------------------------------------------------

Next Geometry in Ang
	Fragment 1 (Ang)

	   Be   0.0000000000   0.0000000000   1.3842431392
	    S   0.0000000000   0.0000000000  -0.3902479065

    Final optimized geometry and variables:
    Molecular point group: c2v
    Full point group: C_inf_v

    Geometry (in Angstrom), charge = 1, multiplicity = 2:

    BE           0.000000000000     0.000000000000     1.384156846662
    S            0.000000000000     0.000000000000    -0.390161614015

    Psi4 stopped on: Thursday, 17 July 2025 01:24PM
    Psi4 wall time for execution: 0:00:12.12

*** Psi4 exiting successfully. Buy a developer a beer!
