                               Psi4 1.9.1 release

  ==> Input File <==

--------------------------------------------------------------------------
molecule {
1 2
Si   0.00000        0.60000        0.00000
Si   0.00000       -0.60000        0.00000
}

set {
basis              cc-pvdz
reference          uks
maxiter            500
geom_maxiter       500
DAMPING_PERCENTAGE 1
guess              SAP
}

optimize('b3lyp')
--------------------------------------------------------------------------

    Molecular point group: d2h
  Charge       = 1
  Multiplicity = 2
  Basis Set: CC-PVDZ
    Blend: CC-PVDZ
  Basis Set: (CC-PVDZ AUX)
    Blend: CC-PVDZ-JKFIT
  @DF-UKS Final Energy:  -577.43618286608421
    Total Energy =                       -577.4361828660842093
 Dipole X            :          0.0000000            0.0000000            0.0000000
 Dipole Y            :          0.0000000            0.0000000            0.0000000
 Dipole Z            :          0.0000000            0.0000000            0.0000000
 Magnitude           :                                                    0.0000000
    Molecular point group: d2h
  Basis Set: CC-PVDZ
    Blend: CC-PVDZ
  Basis Set: (CC-PVDZ AUX)
    Blend: CC-PVDZ-JKFIT
  Basis Set: CC-PVDZ
    Blend: CC-PVDZ
  Basis Set: (CC-PVDZ AUX)
    Blend: CC-PVDZ-JKFIT
  @DF-UKS Final Energy:  -577.45532756162208
    Total Energy =                       -577.4553275616220844
  Basis Set: CC-PVDZ
    Blend: CC-PVDZ
  Basis Set: (CC-PVDZ AUX)
    Blend: CC-PVDZ-JKFIT
  Basis Set: CC-PVDZ
    Blend: CC-PVDZ
  @DF-UKS Final Energy:  -577.49207097003955
    Total Energy =                       -577.4920709700396628
  @DF-UKS Final Energy:  -577.62302609566245
    Total Energy =                       -577.6230260956624534
  @DF-UKS Final Energy:  -578.12585771823285
    Total Energy =                       -578.1258577182328509
  @DF-UKS Final Energy:  -578.37736170709729
    Total Energy =                       -578.3773617070971795
  @DF-UKS Final Energy:  -578.49712299174325
    Total Energy =                       -578.4971229917431401
  @DF-UKS Final Energy:  -578.53372511773637
    Total Energy =                       -578.5337251177363669
  @DF-UKS Final Energy:  -578.54734225582240
    Total Energy =                       -578.5473422558224001
  @DF-UKS Final Energy:  -578.55020032344783
    Total Energy =                       -578.5502003234478252
  @DF-UKS Final Energy:  -578.55105306857422
    Total Energy =                       -578.5510530685741060
  @DF-UKS Final Energy:  -578.55117598275672
    Total Energy =                       -578.5511759827568312
  @DF-UKS Final Energy:  -578.55119532868810
    Total Energy =                       -578.5511953286879816
  Basis Set: (CC-PVDZ AUX)
    Blend: CC-PVDZ-JKFIT
  Basis Set: CC-PVDZ
    Blend: CC-PVDZ
  Basis Set: (CC-PVDZ AUX)
    Blend: CC-PVDZ-JKFIT
  @DF-UKS Final Energy:  -578.55119891348147
    Total Energy =                       -578.5511989134813575
  Basis Set: CC-PVDZ
    Blend: CC-PVDZ
  Basis Set: (CC-PVDZ AUX)
    Blend: CC-PVDZ-JKFIT
  Charge       = 1
  Multiplicity = 2
  Basis Set: CC-PVDZ
    Blend: CC-PVDZ
  Basis Set: (CC-PVDZ AUX)
    Blend: CC-PVDZ-JKFIT

    Orbital Energies [Eh]
    ---------------------

    Alpha Occupied:

       1B2u  -66.453972     1Ag   -66.453972     2Ag    -5.592243
       2B2u   -5.592157     3Ag    -3.954204     3B2u   -3.952866
       1B3u   -3.952636     1B1g   -3.952520     1B1u   -3.945237
       1B3g   -3.945121     4Ag    -0.791896     4B2u   -0.615852
       2B3u   -0.470696     2B1u   -0.446468

    Alpha Virtual:

       5Ag    -0.424901     2B1g   -0.314066     2B3g   -0.294477
       5B2u   -0.164819     6Ag    -0.045442     3B3u    0.005552
       3B1u    0.022698     7Ag     0.048243     1B2g    0.067937
       8Ag     0.068773     6B2u    0.071880     4B3u    0.094654
       4B1u    0.109639     3B1g    0.123326     3B3g    0.136142
       1Au     0.176030     7B2u    0.176584     8B2u    0.237194
       9Ag     0.332863     4B1g    0.349761     4B3g    0.367818
       9B2u    0.635328

    Beta Occupied:

       1B2u  -66.452331     1Ag   -66.452331     2Ag    -5.590353
       2B2u   -5.590283     3Ag    -3.953286     3B2u   -3.951961
       1B3u   -3.946398     1B1g   -3.946286     1B1u   -3.944262
       1B3g   -3.944146     4Ag    -0.766917     4B2u   -0.601592
       2B1u   -0.439935

    Beta Virtual:

       5Ag    -0.419489     2B3u   -0.380293     2B3g   -0.290795
       2B1g   -0.277082     5B2u   -0.155775     6Ag    -0.034420
       3B1u    0.025006     3B3u    0.033882     7Ag     0.050808
       6B2u    0.073931     1B2g    0.091958     8Ag     0.094090
       4B1u    0.111113     4B3u    0.113068     3B3g    0.137956
       3B1g    0.140408     1Au     0.196818     7B2u    0.198694
       8B2u    0.244773     9Ag     0.342253     4B3g    0.369943
       4B1g    0.373855     9B2u    0.642311

    Final Occupation by Irrep:
             Ag   B1g   B2g   B3g    Au   B1u   B2u   B3u
    DOCC [     4,    1,    0,    1,    0,    2,    4,    1 ]
    SOCC [     0,    0,    0,    0,    0,    0,    0,    1 ]
    NA   [     4,    1,    0,    1,    0,    2,    4,    2 ]
    NB   [     4,    1,    0,    1,    0,    2,    4,    1 ]

  @DF-UKS Final Energy:  -578.55119911805002

   => Energetics <=

    Nuclear Repulsion Energy =             47.6830052814507610
    One-Electron Energy =                -888.9885689601123886
    Two-Electron Energy =                 296.1219491072785104
    DFT Exchange-Correlation Energy =     -33.3675845466668903
    Empirical Dispersion Energy =           0.0000000000000000
    VV10 Nonlocal Energy =                  0.0000000000000000
    Total Energy =                       -578.5511991180500218

  UHF NO Occupations:
  HONO-2 :    4 Ag 1.9994029
  HONO-1 :    4B2u 1.9992596
  HONO-0 :    2B3u 1.0000000
  LUNO+0 :    5B2u 0.0007404
  LUNO+1 :    5 Ag 0.0005971
  LUNO+2 :    3B1u 0.0000280
  LUNO+3 :    2B1g 0.0000001

Computation Completed

Properties will be evaluated at   0.000000,   0.000000,   0.000000 [a0]

Properties computed using the SCF density matrix

 Multipole Moments:

 ------------------------------------------------------------------------------------
     Multipole            Electronic (a.u.)      Nuclear  (a.u.)        Total (a.u.)
 ------------------------------------------------------------------------------------

 L = 1.  Multiply by 2.5417464519 to convert [e a0] to [Debye]
 Dipole X            :          0.0000000            0.0000000            0.0000000
 Dipole Y            :          0.0000000            0.0000000            0.0000000
 Dipole Z            :          0.0000000            0.0000000            0.0000000
 Magnitude           :                                                    0.0000000

 ------------------------------------------------------------------------------------

*** tstop() called on Joses-MacBook-Pro-2.local at Thu Jul 17 15:38:21 2025
Module time:
	user time   =      22.25 seconds =       0.37 minutes
	system time =       2.81 seconds =       0.05 minutes
	total time  =          2 seconds =       0.03 minutes
Total time:
	user time   =     308.53 seconds =       5.14 minutes
	system time =      59.96 seconds =       1.00 minutes
	total time  =         36 seconds =       0.60 minutes

*** tstart() called on Joses-MacBook-Pro-2.local
*** at Thu Jul 17 15:38:21 2025

         ------------------------------------------------------------
                                   SCF GRAD
                          Rob Parrish, Justin Turney,
                       Andy Simmonett, and Alex Sokolov
         ------------------------------------------------------------

  ==> Geometry <==

    Molecular point group: d2h
    Full point group: D_inf_h

    Geometry (in Angstrom), charge = 1, multiplicity = 2:

       Center              X                  Y                   Z               Mass
    ------------   -----------------  -----------------  -----------------  -----------------
         SI          -0.000000000000     1.087585951002     0.000000000000    27.976926534650
         SI           0.000000000000    -1.087585951002     0.000000000000    27.976926534650

  Nuclear repulsion =   47.683005281450761

  ==> Basis Set <==

  Basis Set: CC-PVDZ
    Blend: CC-PVDZ
    Number of shells: 16
    Number of basis functions: 36
    Number of Cartesian functions: 38
    Spherical Harmonics?: true
    Max angular momentum: 2

  ==> DFJKGrad: Density-Fitted SCF Gradients <==

    Gradient:                    1
    J tasked:                  Yes
    K tasked:                  Yes
    wK tasked:                  No
    OpenMP threads:              1
    Integrals threads:           1
    Memory [MiB]:              375
    Schwarz Cutoff:          1E-12
    Fitting Condition:       1E-10

   => Auxiliary Basis Set <=

  Basis Set: (CC-PVDZ AUX)
    Blend: CC-PVDZ-JKFIT
    Number of shells: 72
    Number of basis functions: 224
    Number of Cartesian functions: 260
    Spherical Harmonics?: true
    Max angular momentum: 3

  ==> DFT Potential <==

   => LibXC <=

    Version 6.2.2
    S. Lehtola, C. Steigemann, M. J.T. Oliveira, and M. A.L. Marques.,  SoftwareX 7, 1â€“5 (2018) (10.1016/j.softx.2017.11.002)

   => Composite Functional: B3LYP <=

    B3LYP Hyb-GGA Exchange-Correlation Functional

    P. J. Stephens, F. J. Devlin, C. F. Chabalowski, and M. J. Frisch.,  J. Phys. Chem. 98, 11623 (1994) (10.1021/j100096a001)

    Deriv               =              1
    GGA                 =           TRUE
    Meta                =          FALSE

    Exchange Hybrid     =           TRUE
    MP2 Hybrid          =          FALSE

   => Exchange Functionals <=

    0.0800   Slater exchange
    0.7200         Becke 88

   => Exact (HF) Exchange <=

    0.2000               HF

   => Correlation Functionals <=

    0.1900   Vosko, Wilk & Nusair (VWN5_RPA)
    0.8100   Lee, Yang & Parr

   => LibXC Density Thresholds  <==

    XC_HYB_GGA_XC_B3LYP:  1.00E-15

   => Molecular Quadrature <=

    Radial Scheme          =       TREUTLER
    Pruning Scheme         =           NONE
    Nuclear Scheme         =       TREUTLER

    Blocking Scheme        =         OCTREE
    BS radius alpha        =              1
    Pruning alpha          =              1
    Radial Points          =             75
    Spherical Points       =            302
    Total Points           =          41306
    Total Blocks           =            384
    Max Points             =            251
    Max Functions          =             36
    Weights Tolerance      =       1.00E-15

  -Total Gradient:
     Atom            X                  Y                   Z
    ------   -----------------  -----------------  -----------------
       1        0.000000000000    -0.000031840590     0.000000000000
       2       -0.000000000000     0.000031840590     0.000000000000

*** tstop() called on Joses-MacBook-Pro-2.local at Thu Jul 17 15:38:22 2025
Module time:
	user time   =       4.49 seconds =       0.07 minutes
	system time =       2.11 seconds =       0.04 minutes
	total time  =          1 seconds =       0.02 minutes
Total time:
	user time   =     313.02 seconds =       5.22 minutes
	system time =      62.08 seconds =       1.03 minutes
	total time  =         37 seconds =       0.62 minutes

    			-----------------------------------------

    			 OPTKING 3.0: for geometry optimizations

    			     By R.A. King, Bethel University

    			        with contributions from

    			    A.V. Copan, J. Cayton, A. Heide

    			-----------------------------------------

	                            ===> Fragment 1 <==

	 Z (Atomic Numbers)          Masses                          Geom
	      14.000000            27.976927         -0.00000000  2.05523959  0.00000000
	      14.000000            27.976927          0.00000000 -2.05523959  0.00000000

	 - Coordinate -           - BOHR/RAD -       - ANG/DEG -
	 R(1,2)           =         4.110479           2.175172

	        --- Internal Coordinate Step in ANG or DEG, aJ/ANG or AJ/DEG ---
	-------------------------------------------------------------------------------
	           Coordinate      Previous         Force          Change          New
	           ----------      --------        ------          ------        ------
	               R(1,2)       2.17517        0.00026        0.00012       2.17529
	-------------------------------------------------------------------------------

	                                 ==> Convergence Check <==

	Measures of convergence in internal coordinates in au.

	Criteria marked as inactive (o), active & met (*), and active & unmet ( ).

	----------------------------------------------------------------------------------------------
	   Step    Total Energy     Delta E     Max Force     RMS Force      Max Disp      RMS Disp
	----------------------------------------------------------------------------------------------
	  Convergence Criteria     1.00e-06 *    3.00e-04 *             o    1.20e-03 *             o
	----------------------------------------------------------------------------------------------
	    15    -578.55119912   -2.05e-07 *    3.18e-05 *    3.18e-05 o    2.23e-04 *    2.23e-04 o  ~
	----------------------------------------------------------------------------------------------

Next Geometry in Ang
	Fragment 1 (Ang)

	   Si  -0.0000000000   1.0876448688   0.0000000000
	   Si   0.0000000000  -1.0876448688   0.0000000000

    Final optimized geometry and variables:
    Molecular point group: d2h
    Full point group: D_inf_h

    Geometry (in Angstrom), charge = 1, multiplicity = 2:

    SI          -0.000000000000     1.087585951002     0.000000000000
    SI           0.000000000000    -1.087585951002     0.000000000000

    Psi4 stopped on: Thursday, 17 July 2025 03:38PM
    Psi4 wall time for execution: 0:00:37.74

*** Psi4 exiting successfully. Buy a developer a beer!
