                               Psi4 1.9.1 release

  ==> Input File <==

--------------------------------------------------------------------------
molecule {
1 2
Mg   0.00000        0.60000        0.00000
Si   0.00000       -0.60000        0.00000
}

set {
basis              cc-pvdz
reference          uks
maxiter            500
geom_maxiter       500
DAMPING_PERCENTAGE 1
guess              SAP
}

optimize('b3lyp')
--------------------------------------------------------------------------

    Molecular point group: c2v
  Charge       = 1
  Multiplicity = 2
  Basis Set: CC-PVDZ
    Blend: CC-PVDZ
  Basis Set: (CC-PVDZ AUX)
    Blend: CC-PVDZ-JKFIT + DEF2-UNIVERSAL-JKFIT
  @DF-UKS Final Energy:  -488.24338968331170
    Total Energy =                       -488.2433896833117046
 Dipole X            :          0.0000000            0.0000000            0.0000000
 Dipole Y            :          0.0000000            0.0000000            0.0000000
 Dipole Z            :          1.2126126           -0.0029443            1.2096683
 Magnitude           :                                                    1.2096683
    Molecular point group: c2v
  Basis Set: CC-PVDZ
    Blend: CC-PVDZ
  Basis Set: (CC-PVDZ AUX)
    Blend: CC-PVDZ-JKFIT + DEF2-UNIVERSAL-JKFIT
  Basis Set: CC-PVDZ
    Blend: CC-PVDZ
  Basis Set: (CC-PVDZ AUX)
    Blend: CC-PVDZ-JKFIT + DEF2-UNIVERSAL-JKFIT
  @DF-UKS Final Energy:  -488.25434510062632
    Total Energy =                       -488.2543451006263240
  Basis Set: CC-PVDZ
    Blend: CC-PVDZ
  Basis Set: (CC-PVDZ AUX)
    Blend: CC-PVDZ-JKFIT + DEF2-UNIVERSAL-JKFIT
  Basis Set: CC-PVDZ
    Blend: CC-PVDZ
  @DF-UKS Final Energy:  -488.27554309933129
    Total Energy =                       -488.2755430993312871
  @DF-UKS Final Energy:  -488.35294184421758
    Total Energy =                       -488.3529418442175825
  @DF-UKS Final Energy:  -488.70808382244115
    Total Energy =                       -488.7080838224411536
  @DF-UKS Final Energy:  -488.91228622357113
    Total Energy =                       -488.9122862235711295
  @DF-UKS Final Energy:  -489.09234894706839
    Total Energy =                       -489.0923489470683876
  @DF-UKS Final Energy:  -489.22521524361281
    Total Energy =                       -489.2252152436128654
  @DF-UKS Final Energy:  -489.23631712502697
    Total Energy =                       -489.2363171250269716
  @DF-UKS Final Energy:  -489.25629897305726
    Total Energy =                       -489.2562989730572554
  @DF-UKS Final Energy:  -489.26185805816863
    Total Energy =                       -489.2618580581686274
  @DF-UKS Final Energy:  -489.26353648321339
    Total Energy =                       -489.2635364832133860
  @DF-UKS Final Energy:  -489.26376562344876
    Total Energy =                       -489.2637656234487622
  @DF-UKS Final Energy:  -489.26380318368797
    Total Energy =                       -489.2638031836879691
  Basis Set: (CC-PVDZ AUX)
    Blend: CC-PVDZ-JKFIT + DEF2-UNIVERSAL-JKFIT
  Basis Set: CC-PVDZ
    Blend: CC-PVDZ
  Basis Set: (CC-PVDZ AUX)
    Blend: CC-PVDZ-JKFIT + DEF2-UNIVERSAL-JKFIT
  @DF-UKS Final Energy:  -489.26380526269583
    Total Energy =                       -489.2638052626958824
  Basis Set: CC-PVDZ
    Blend: CC-PVDZ
  Basis Set: (CC-PVDZ AUX)
    Blend: CC-PVDZ-JKFIT + DEF2-UNIVERSAL-JKFIT
  Charge       = 1
  Multiplicity = 2
  Basis Set: CC-PVDZ
    Blend: CC-PVDZ
  Basis Set: (CC-PVDZ AUX)
    Blend: CC-PVDZ-JKFIT + DEF2-UNIVERSAL-JKFIT

    Orbital Energies [Eh]
    ---------------------

    Alpha Occupied:

       1A1   -66.389163     2A1   -47.082537     3A1    -5.527543
       1B2    -3.889393     1B1    -3.885411     4A1    -3.883346
       5A1    -3.358549     2B2    -2.102673     2B1    -2.102345
       6A1    -2.101276     7A1    -0.654020     8A1    -0.427453
       3B1    -0.385029

    Alpha Virtual:

       3B2    -0.319257     9A1    -0.299331     4B1    -0.202624
       4B2    -0.200835    10A1    -0.141622    11A1    -0.073665
      12A1    -0.019784     5B2    -0.012096     5B1    -0.011685
       6B1     0.060830     6B2     0.064384    13A1     0.081848
       1A2     0.098641    14A1     0.099717     7B1     0.141521
       7B2     0.148775     2A2     0.166705    15A1     0.170878
      16A1     0.189103    17A1     0.248748     8B1     0.288814
       8B2     0.292604    18A1     0.507767

    Beta Occupied:

       1A1   -66.385785     2A1   -47.082783     3A1    -5.523759
       1B2    -3.887492     4A1    -3.880366     1B1    -3.873845
       5A1    -3.359072     2B2    -2.103072     2B1    -2.102445
       6A1    -2.101530     7A1    -0.618638     8A1    -0.419306

    Beta Virtual:

       3B2    -0.309870     9A1    -0.295948     3B1    -0.280624
       4B2    -0.203105     4B1    -0.194588    10A1    -0.139185
      11A1    -0.070139    12A1    -0.016746     5B2    -0.013221
       5B1    -0.009475     6B2     0.064843     6B1     0.076588
      13A1     0.086422     1A2     0.102197    14A1     0.102504
       7B2     0.152796     7B1     0.175152    15A1     0.194246
       2A2     0.204579    16A1     0.211755    17A1     0.255538
       8B2     0.296077     8B1     0.315942    18A1     0.519605

    Final Occupation by Irrep:
             A1    A2    B1    B2
    DOCC [     8,    0,    2,    2 ]
    SOCC [     0,    0,    1,    0 ]
    NA   [     8,    0,    3,    2 ]
    NB   [     8,    0,    2,    2 ]

  @DF-UKS Final Energy:  -489.26380535855884

   => Energetics <=

    Nuclear Repulsion Energy =             32.4938397099307679
    One-Electron Energy =                -739.0655996213409935
    Two-Electron Energy =                 247.1980777745442595
    DFT Exchange-Correlation Energy =     -29.8901232216928676
    Empirical Dispersion Energy =           0.0000000000000000
    VV10 Nonlocal Energy =                  0.0000000000000000
    Total Energy =                       -489.2638053585588978

  UHF NO Occupations:
  HONO-2 :    7 A1 1.9986567
  HONO-1 :    8 A1 1.9928570
  HONO-0 :    3 B1 1.0000000
  LUNO+0 :    9 A1 0.0071430
  LUNO+1 :   10 A1 0.0013433
  LUNO+2 :    3 B2 0.0000000
  LUNO+3 :    4 B1 0.0000000

Computation Completed

Properties will be evaluated at   0.000000,   0.000000,   0.000000 [a0]

Properties computed using the SCF density matrix

 Multipole Moments:

 ------------------------------------------------------------------------------------
     Multipole            Electronic (a.u.)      Nuclear  (a.u.)        Total (a.u.)
 ------------------------------------------------------------------------------------

 L = 1.  Multiply by 2.5417464519 to convert [e a0] to [Debye]
 Dipole X            :          0.0000000            0.0000000            0.0000000
 Dipole Y            :          0.0000000            0.0000000            0.0000000
 Dipole Z            :          1.5408761           -0.0067128            1.5341633
 Magnitude           :                                                    1.5341633

 ------------------------------------------------------------------------------------

*** tstop() called on Joses-MacBook-Pro-2.local at Thu Jul 17 15:05:51 2025
Module time:
	user time   =       7.35 seconds =       0.12 minutes
	system time =       2.04 seconds =       0.03 minutes
	total time  =          1 seconds =       0.02 minutes
Total time:
	user time   =     188.48 seconds =       3.14 minutes
	system time =      53.81 seconds =       0.90 minutes
	total time  =         23 seconds =       0.38 minutes

*** tstart() called on Joses-MacBook-Pro-2.local
*** at Thu Jul 17 15:05:51 2025

         ------------------------------------------------------------
                                   SCF GRAD
                          Rob Parrish, Justin Turney,
                       Andy Simmonett, and Alex Sokolov
         ------------------------------------------------------------

  ==> Geometry <==

    Molecular point group: c2v
    Full point group: C_inf_v

    Geometry (in Angstrom), charge = 1, multiplicity = 2:

       Center              X                  Y                   Z               Mass
    ------------   -----------------  -----------------  -----------------  -----------------
         MG           0.000000000000     0.000000000000     1.473071374214    23.985041697000
         SI           0.000000000000     0.000000000000    -1.262886339192    27.976926534650

  Nuclear repulsion =   32.493839709930768

  ==> Basis Set <==

  Basis Set: CC-PVDZ
    Blend: CC-PVDZ
    Number of shells: 16
    Number of basis functions: 36
    Number of Cartesian functions: 38
    Spherical Harmonics?: true
    Max angular momentum: 2

  ==> DFJKGrad: Density-Fitted SCF Gradients <==

    Gradient:                    1
    J tasked:                  Yes
    K tasked:                  Yes
    wK tasked:                  No
    OpenMP threads:              1
    Integrals threads:           1
    Memory [MiB]:              375
    Schwarz Cutoff:          1E-12
    Fitting Condition:       1E-10

   => Auxiliary Basis Set <=

  Basis Set: (CC-PVDZ AUX)
    Blend: CC-PVDZ-JKFIT + DEF2-UNIVERSAL-JKFIT
    Number of shells: 70
    Number of basis functions: 224
    Number of Cartesian functions: 267
    Spherical Harmonics?: true
    Max angular momentum: 4

  ==> DFT Potential <==

   => LibXC <=

    Version 6.2.2
    S. Lehtola, C. Steigemann, M. J.T. Oliveira, and M. A.L. Marques.,  SoftwareX 7, 1â€“5 (2018) (10.1016/j.softx.2017.11.002)

   => Composite Functional: B3LYP <=

    B3LYP Hyb-GGA Exchange-Correlation Functional

    P. J. Stephens, F. J. Devlin, C. F. Chabalowski, and M. J. Frisch.,  J. Phys. Chem. 98, 11623 (1994) (10.1021/j100096a001)

    Deriv               =              1
    GGA                 =           TRUE
    Meta                =          FALSE

    Exchange Hybrid     =           TRUE
    MP2 Hybrid          =          FALSE

   => Exchange Functionals <=

    0.0800   Slater exchange
    0.7200         Becke 88

   => Exact (HF) Exchange <=

    0.2000               HF

   => Correlation Functionals <=

    0.1900   Vosko, Wilk & Nusair (VWN5_RPA)
    0.8100   Lee, Yang & Parr

   => LibXC Density Thresholds  <==

    XC_HYB_GGA_XC_B3LYP:  1.00E-15

   => Molecular Quadrature <=

    Radial Scheme          =       TREUTLER
    Pruning Scheme         =           NONE
    Nuclear Scheme         =       TREUTLER

    Blocking Scheme        =         OCTREE
    BS radius alpha        =              1
    Pruning alpha          =              1
    Radial Points          =             75
    Spherical Points       =            302
    Total Points           =          42954
    Total Blocks           =            420
    Max Points             =            255
    Max Functions          =             36
    Weights Tolerance      =       1.00E-15

  -Total Gradient:
     Atom            X                  Y                   Z
    ------   -----------------  -----------------  -----------------
       1       -0.000000000000     0.000000000000    -0.000014930371
       2        0.000000000000    -0.000000000000     0.000034216968

*** tstop() called on Joses-MacBook-Pro-2.local at Thu Jul 17 15:05:52 2025
Module time:
	user time   =       2.98 seconds =       0.05 minutes
	system time =       1.01 seconds =       0.02 minutes
	total time  =          1 seconds =       0.02 minutes
Total time:
	user time   =     191.46 seconds =       3.19 minutes
	system time =      54.83 seconds =       0.91 minutes
	total time  =         24 seconds =       0.40 minutes

    			-----------------------------------------

    			 OPTKING 3.0: for geometry optimizations

    			     By R.A. King, Bethel University

    			        with contributions from

    			    A.V. Copan, J. Cayton, A. Heide

    			-----------------------------------------

	                            ===> Fragment 1 <==

	 Z (Atomic Numbers)          Masses                          Geom
	      12.000000            23.985042          0.00000000  0.00000000  2.78370146
	      14.000000            27.976927          0.00000000  0.00000000 -2.38650931

	 - Coordinate -           - BOHR/RAD -       - ANG/DEG -
	 R(1,2)           =         5.170211           2.735958

	        --- Internal Coordinate Step in ANG or DEG, aJ/ANG or AJ/DEG ---
	-------------------------------------------------------------------------------
	           Coordinate      Previous         Force          Change          New
	           ----------      --------        ------          ------        ------
	               R(1,2)       2.73596        0.00020        0.00034       2.73630
	-------------------------------------------------------------------------------

	                                 ==> Convergence Check <==

	Measures of convergence in internal coordinates in au.

	Criteria marked as inactive (o), active & met (*), and active & unmet ( ).

	----------------------------------------------------------------------------------------------
	   Step    Total Energy     Delta E     Max Force     RMS Force      Max Disp      RMS Disp
	----------------------------------------------------------------------------------------------
	  Convergence Criteria     1.00e-06 *    3.00e-04 *             o    1.20e-03 *             o
	----------------------------------------------------------------------------------------------
	    16    -489.26380536   -9.59e-08 *    2.46e-05 *    2.46e-05 o    6.40e-04 *    6.40e-04 o  ~
	----------------------------------------------------------------------------------------------

Next Geometry in Ang
	Fragment 1 (Ang)

	   Mg   0.0000000000   0.0000000000   1.4732406022
	   Si   0.0000000000   0.0000000000  -1.2630555672

    Final optimized geometry and variables:
    Molecular point group: c2v
    Full point group: C_inf_v

    Geometry (in Angstrom), charge = 1, multiplicity = 2:

    MG           0.000000000000     0.000000000000     1.473071374214
    SI           0.000000000000     0.000000000000    -1.262886339192

    Psi4 stopped on: Thursday, 17 July 2025 03:05PM
    Psi4 wall time for execution: 0:00:23.72

*** Psi4 exiting successfully. Buy a developer a beer!
