                               Psi4 1.9.1 release

  ==> Input File <==

--------------------------------------------------------------------------
molecule {
1 2
C   0.00000        0.60000        0.00000
Ar   0.00000       -0.60000        0.00000
}

set {
basis              cc-pvdz
reference          uks
maxiter            500
geom_maxiter       500
DAMPING_PERCENTAGE 1
guess              SAP
}

optimize('b3lyp')
--------------------------------------------------------------------------

    Molecular point group: c2v
  Charge       = 1
  Multiplicity = 2
  Basis Set: CC-PVDZ
    Blend: CC-PVDZ
  Basis Set: (CC-PVDZ AUX)
    Blend: CC-PVDZ-JKFIT
  @DF-UKS Final Energy:  -564.64402510490129
    Total Energy =                       -564.6440251049012886
 Dipole X            :          0.0000000            0.0000000            0.0000000
 Dipole Y            :          0.0000000            0.0000000            0.0000000
 Dipole Z            :         -2.1509326            1.0375255           -1.1134071
 Magnitude           :                                                    1.1134071
    Molecular point group: c2v
  Basis Set: CC-PVDZ
    Blend: CC-PVDZ
  Basis Set: (CC-PVDZ AUX)
    Blend: CC-PVDZ-JKFIT
  Basis Set: CC-PVDZ
    Blend: CC-PVDZ
  Basis Set: (CC-PVDZ AUX)
    Blend: CC-PVDZ-JKFIT
  @DF-UKS Final Energy:  -564.82554966020518
    Total Energy =                       -564.8255496602051835
  Basis Set: CC-PVDZ
    Blend: CC-PVDZ
  Basis Set: (CC-PVDZ AUX)
    Blend: CC-PVDZ-JKFIT
  Basis Set: CC-PVDZ
    Blend: CC-PVDZ
  @DF-UKS Final Energy:  -564.92299576823439
    Total Energy =                       -564.9229957682343866
  @DF-UKS Final Energy:  -564.96236275421393
    Total Energy =                       -564.9623627542139275
  @DF-UKS Final Energy:  -564.98949325218234
    Total Energy =                       -564.9894932521823421
  @DF-UKS Final Energy:  -565.00602788203912
    Total Energy =                       -565.0060278820391204
  @DF-UKS Final Energy:  -565.01382206982919
    Total Energy =                       -565.0138220698291889
  @DF-UKS Final Energy:  -565.01707857736949
    Total Energy =                       -565.0170785773694888
  @DF-UKS Final Energy:  -565.01813480725968
    Total Energy =                       -565.0181348072597984
  @DF-UKS Final Energy:  -565.01832874762181
    Total Energy =                       -565.0183287476218084
  @DF-UKS Final Energy:  -565.01836790044513
    Total Energy =                       -565.0183679004451278
  Basis Set: (CC-PVDZ AUX)
    Blend: CC-PVDZ-JKFIT
  Basis Set: CC-PVDZ
    Blend: CC-PVDZ
  Basis Set: (CC-PVDZ AUX)
    Blend: CC-PVDZ-JKFIT
  @DF-UKS Final Energy:  -565.01837734613116
    Total Energy =                       -565.0183773461311603
  Basis Set: CC-PVDZ
    Blend: CC-PVDZ
  Basis Set: (CC-PVDZ AUX)
    Blend: CC-PVDZ-JKFIT
  Charge       = 1
  Multiplicity = 2
  Basis Set: CC-PVDZ
    Blend: CC-PVDZ
  Basis Set: (CC-PVDZ AUX)
    Blend: CC-PVDZ-JKFIT

    Orbital Energies [Eh]
    ---------------------

    Alpha Occupied:

       1A1  -115.452397     2A1   -11.488269     3A1   -10.738642
       4A1    -9.041807     1B1    -9.036415     1B2    -9.035726
       5A1    -1.315642     6A1    -0.957289     2B2    -0.752261
       2B1    -0.750065     7A1    -0.748470     3B2    -0.610584

    Alpha Virtual:

       3B1    -0.487762     8A1    -0.425721     4B2     0.141000
       4B1     0.161935     9A1     0.183711    10A1     0.267847
      11A1     0.306762     5B1     0.326860     5B2     0.327759
       6B2     0.466141     6B1     0.467521    12A1     0.480396
       1A2     0.507065    13A1     0.507129    14A1     0.658289
       2A2     0.778405    15A1     0.787802     7B2     0.879181
       7B1     0.891854    16A1     1.336413

    Beta Occupied:

       1A1  -115.452334     2A1   -11.488210     3A1   -10.721800
       4A1    -9.042191     1B1    -9.036480     1B2    -9.035011
       5A1    -1.314433     6A1    -0.912639     2B1    -0.750142
       2B2    -0.745447     7A1    -0.729813

    Beta Virtual:

       3B1    -0.468722     3B2    -0.414162     8A1    -0.407387
       4B1     0.169551     9A1     0.190754     4B2     0.200351
      10A1     0.286439    11A1     0.311609     5B1     0.327113
       5B2     0.333163     6B1     0.467909     6B2     0.477919
      12A1     0.484603     1A2     0.508509    13A1     0.508583
      14A1     0.667628     2A2     0.845804    15A1     0.846494
       7B1     0.898235     7B2     0.933867    16A1     1.353638

    Final Occupation by Irrep:
             A1    A2    B1    B2
    DOCC [     7,    0,    2,    2 ]
    SOCC [     0,    0,    0,    1 ]
    NA   [     7,    0,    2,    3 ]
    NB   [     7,    0,    2,    2 ]

  @DF-UKS Final Energy:  -565.01837846063177

   => Energetics <=

    Nuclear Repulsion Energy =             28.0210896143273018
    One-Electron Energy =                -826.3995397943190255
    Two-Electron Energy =                 262.1950954945275498
    DFT Exchange-Correlation Energy =     -28.8350237751675422
    Empirical Dispersion Energy =           0.0000000000000000
    VV10 Nonlocal Energy =                  0.0000000000000000
    Total Energy =                       -565.0183784606317658

  UHF NO Occupations:
  HONO-2 :    6 A1 1.9997797
  HONO-1 :    7 A1 1.9988967
  HONO-0 :    3 B2 1.0000000
  LUNO+0 :    8 A1 0.0011033
  LUNO+1 :    9 A1 0.0002203
  LUNO+2 :    3 B1 0.0000809
  LUNO+3 :    4 B2 0.0000344

Computation Completed

Properties will be evaluated at   0.000000,   0.000000,   0.000000 [a0]

Properties computed using the SCF density matrix

 Multipole Moments:

 ------------------------------------------------------------------------------------
     Multipole            Electronic (a.u.)      Nuclear  (a.u.)        Total (a.u.)
 ------------------------------------------------------------------------------------

 L = 1.  Multiply by 2.5417464519 to convert [e a0] to [Debye]
 Dipole X            :          0.0000000            0.0000000            0.0000000
 Dipole Y            :          0.0000000            0.0000000            0.0000000
 Dipole Z            :         -0.5943093            1.7634266            1.1691173
 Magnitude           :                                                    1.1691173

 ------------------------------------------------------------------------------------

*** tstop() called on Joses-MacBook-Pro-2.local at Thu Jul 17 13:47:14 2025
Module time:
	user time   =       2.56 seconds =       0.04 minutes
	system time =       4.89 seconds =       0.08 minutes
	total time  =          1 seconds =       0.02 minutes
Total time:
	user time   =      50.79 seconds =       0.85 minutes
	system time =      83.90 seconds =       1.40 minutes
	total time  =         13 seconds =       0.22 minutes

*** tstart() called on Joses-MacBook-Pro-2.local
*** at Thu Jul 17 13:47:14 2025

         ------------------------------------------------------------
                                   SCF GRAD
                          Rob Parrish, Justin Turney,
                       Andy Simmonett, and Alex Sokolov
         ------------------------------------------------------------

  ==> Geometry <==

    Molecular point group: c2v
    Full point group: C_inf_v

    Geometry (in Angstrom), charge = 1, multiplicity = 2:

       Center              X                  Y                   Z               Mass
    ------------   -----------------  -----------------  -----------------  -----------------
         C            0.000000000000     0.000000000000     1.568563798929    12.000000000000
         AR           0.000000000000     0.000000000000    -0.471012089767    39.962383123700

  Nuclear repulsion =   28.021089614327302

  ==> Basis Set <==

  Basis Set: CC-PVDZ
    Blend: CC-PVDZ
    Number of shells: 14
    Number of basis functions: 32
    Number of Cartesian functions: 34
    Spherical Harmonics?: true
    Max angular momentum: 2

  ==> DFJKGrad: Density-Fitted SCF Gradients <==

    Gradient:                    1
    J tasked:                  Yes
    K tasked:                  Yes
    wK tasked:                  No
    OpenMP threads:              1
    Integrals threads:           1
    Memory [MiB]:              375
    Schwarz Cutoff:          1E-12
    Fitting Condition:       1E-10

   => Auxiliary Basis Set <=

  Basis Set: (CC-PVDZ AUX)
    Blend: CC-PVDZ-JKFIT
    Number of shells: 60
    Number of basis functions: 182
    Number of Cartesian functions: 211
    Spherical Harmonics?: true
    Max angular momentum: 3

  ==> DFT Potential <==

   => LibXC <=

    Version 6.2.2
    S. Lehtola, C. Steigemann, M. J.T. Oliveira, and M. A.L. Marques.,  SoftwareX 7, 1â€“5 (2018) (10.1016/j.softx.2017.11.002)

   => Composite Functional: B3LYP <=

    B3LYP Hyb-GGA Exchange-Correlation Functional

    P. J. Stephens, F. J. Devlin, C. F. Chabalowski, and M. J. Frisch.,  J. Phys. Chem. 98, 11623 (1994) (10.1021/j100096a001)

    Deriv               =              1
    GGA                 =           TRUE
    Meta                =          FALSE

    Exchange Hybrid     =           TRUE
    MP2 Hybrid          =          FALSE

   => Exchange Functionals <=

    0.0800   Slater exchange
    0.7200         Becke 88

   => Exact (HF) Exchange <=

    0.2000               HF

   => Correlation Functionals <=

    0.1900   Vosko, Wilk & Nusair (VWN5_RPA)
    0.8100   Lee, Yang & Parr

   => LibXC Density Thresholds  <==

    XC_HYB_GGA_XC_B3LYP:  1.00E-15

   => Molecular Quadrature <=

    Radial Scheme          =       TREUTLER
    Pruning Scheme         =           NONE
    Nuclear Scheme         =       TREUTLER

    Blocking Scheme        =         OCTREE
    BS radius alpha        =              1
    Pruning alpha          =              1
    Radial Points          =             75
    Spherical Points       =            302
    Total Points           =          41156
    Total Blocks           =            367
    Max Points             =            256
    Max Functions          =             32
    Weights Tolerance      =       1.00E-15

  -Total Gradient:
     Atom            X                  Y                   Z
    ------   -----------------  -----------------  -----------------
       1        0.000000000000     0.000000000000    -0.000076333591
       2       -0.000000000000    -0.000000000000     0.000073254290

*** tstop() called on Joses-MacBook-Pro-2.local at Thu Jul 17 13:47:14 2025
Module time:
	user time   =       0.69 seconds =       0.01 minutes
	system time =       1.63 seconds =       0.03 minutes
	total time  =          0 seconds =       0.00 minutes
Total time:
	user time   =      51.48 seconds =       0.86 minutes
	system time =      85.53 seconds =       1.43 minutes
	total time  =         13 seconds =       0.22 minutes

    			-----------------------------------------

    			 OPTKING 3.0: for geometry optimizations

    			     By R.A. King, Bethel University

    			        with contributions from

    			    A.V. Copan, J. Cayton, A. Heide

    			-----------------------------------------

	                            ===> Fragment 1 <==

	 Z (Atomic Numbers)          Masses                          Geom
	       6.000000            12.000000          0.00000000  0.00000000  2.96415599
	      18.000000            39.962383          0.00000000  0.00000000 -0.89008385

	 - Coordinate -           - BOHR/RAD -       - ANG/DEG -
	 R(1,2)           =         3.854240           2.039576

	        --- Internal Coordinate Step in ANG or DEG, aJ/ANG or AJ/DEG ---
	-------------------------------------------------------------------------------
	           Coordinate      Previous         Force          Change          New
	           ----------      --------        ------          ------        ------
	               R(1,2)       2.03958        0.00062        0.00063       2.04020
	-------------------------------------------------------------------------------

	                                 ==> Convergence Check <==

	Measures of convergence in internal coordinates in au.

	Criteria marked as inactive (o), active & met (*), and active & unmet ( ).

	----------------------------------------------------------------------------------------------
	   Step    Total Energy     Delta E     Max Force     RMS Force      Max Disp      RMS Disp
	----------------------------------------------------------------------------------------------
	  Convergence Criteria     1.00e-06 *    3.00e-04 *             o    1.20e-03 *             o
	----------------------------------------------------------------------------------------------
	    13    -565.01837846   -1.11e-06      7.48e-05 *    7.48e-05 o    1.19e-03 *    1.19e-03 o  ~
	----------------------------------------------------------------------------------------------

Next Geometry in Ang
	Fragment 1 (Ang)

	    C   0.0000000000   0.0000000000   1.5688777193
	   Ar   0.0000000000   0.0000000000  -0.4713260102

    Final optimized geometry and variables:
    Molecular point group: c2v
    Full point group: C_inf_v

    Geometry (in Angstrom), charge = 1, multiplicity = 2:

    C            0.000000000000     0.000000000000     1.568563798929
    AR           0.000000000000     0.000000000000    -0.471012089767

    Psi4 stopped on: Thursday, 17 July 2025 01:47PM
    Psi4 wall time for execution: 0:00:13.62

*** Psi4 exiting successfully. Buy a developer a beer!
