                               Psi4 1.9.1 release

  ==> Input File <==

--------------------------------------------------------------------------
molecule {
1 2
Ne   0.00000        0.60000        0.00000
Mg   0.00000       -0.60000        0.00000
}

set {
basis              cc-pvdz
reference          uks
maxiter            500
geom_maxiter       500
DAMPING_PERCENTAGE 1
guess              SAP
}

optimize('b3lyp')
--------------------------------------------------------------------------

    Molecular point group: c2v
  Charge       = 1
  Multiplicity = 2
  Basis Set: CC-PVDZ
    Blend: CC-PVDZ
  Basis Set: (CC-PVDZ AUX)
    Blend: CC-PVDZ-JKFIT + DEF2-UNIVERSAL-JKFIT
  @DF-UKS Final Energy:  -328.27012794847570
    Total Energy =                       -328.2701279484757606
 Dipole X            :          0.0000000            0.0000000            0.0000000
 Dipole Y            :          0.0000000            0.0000000            0.0000000
 Dipole Z            :         -0.2923858           -0.0030353           -0.2954211
 Magnitude           :                                                    0.2954211
    Molecular point group: c2v
  Basis Set: CC-PVDZ
    Blend: CC-PVDZ
  Basis Set: (CC-PVDZ AUX)
    Blend: CC-PVDZ-JKFIT + DEF2-UNIVERSAL-JKFIT
  Basis Set: CC-PVDZ
    Blend: CC-PVDZ
  Basis Set: (CC-PVDZ AUX)
    Blend: CC-PVDZ-JKFIT + DEF2-UNIVERSAL-JKFIT
  @DF-UKS Final Energy:  -328.50324916238446
    Total Energy =                       -328.5032491623845203
  Basis Set: CC-PVDZ
    Blend: CC-PVDZ
  Basis Set: (CC-PVDZ AUX)
    Blend: CC-PVDZ-JKFIT + DEF2-UNIVERSAL-JKFIT
  Basis Set: CC-PVDZ
    Blend: CC-PVDZ
  @DF-UKS Final Energy:  -328.60603338199371
    Total Energy =                       -328.6060333819937114
  @DF-UKS Final Energy:  -328.66321617302901
    Total Energy =                       -328.6632161730290136
  @DF-UKS Final Energy:  -328.68669331326311
    Total Energy =                       -328.6866933132631061
  @DF-UKS Final Energy:  -328.70290775522585
    Total Energy =                       -328.7029077552259082
  @DF-UKS Final Energy:  -328.71331318785258
    Total Energy =                       -328.7133131878526342
  @DF-UKS Final Energy:  -328.71891498089275
    Total Energy =                       -328.7189149808927482
  @DF-UKS Final Energy:  -328.72192892349165
    Total Energy =                       -328.7219289234917028
  @DF-UKS Final Energy:  -328.72344708075946
    Total Energy =                       -328.7234470807593993
  @DF-UKS Final Energy:  -328.72407414081601
    Total Energy =                       -328.7240741408159579
  @DF-UKS Final Energy:  -328.72428552037854
    Total Energy =                       -328.7242855203785439
  @DF-UKS Final Energy:  -328.72432412471778
    Total Energy =                       -328.7243241247177821
  @DF-UKS Final Energy:  -328.72433121406112
    Total Energy =                       -328.7243312140610669
  Basis Set: (CC-PVDZ AUX)
    Blend: CC-PVDZ-JKFIT + DEF2-UNIVERSAL-JKFIT
  Basis Set: CC-PVDZ
    Blend: CC-PVDZ
  Basis Set: (CC-PVDZ AUX)
    Blend: CC-PVDZ-JKFIT + DEF2-UNIVERSAL-JKFIT
  @DF-UKS Final Energy:  -328.72433244546295
    Total Energy =                       -328.7243324454628919
  Basis Set: CC-PVDZ
    Blend: CC-PVDZ
  Basis Set: (CC-PVDZ AUX)
    Blend: CC-PVDZ-JKFIT + DEF2-UNIVERSAL-JKFIT
  Charge       = 1
  Multiplicity = 2
  Basis Set: CC-PVDZ
    Blend: CC-PVDZ
  Basis Set: (CC-PVDZ AUX)
    Blend: CC-PVDZ-JKFIT + DEF2-UNIVERSAL-JKFIT

    Orbital Energies [Eh]
    ---------------------

    Alpha Occupied:

       1A1   -47.159112     2A1   -31.227811     3A1    -3.430067
       4A1    -2.172948     1B2    -2.172917     1B1    -2.172917
       5A1    -1.688110     6A1    -0.806154     2B2    -0.791743
       2B1    -0.791743     7A1    -0.449645

    Alpha Virtual:

       3B2    -0.251649     3B1    -0.251649     8A1    -0.228517
       9A1    -0.080487     4B2    -0.030395     4B1    -0.030395
      10A1    -0.030191    11A1     0.057731     1A2     0.057731
       5B2     0.059978     5B1     0.059978    12A1     0.099943
       6B1     1.158517     6B2     1.158517    13A1     1.277503
      14A1     1.838812     7B2     4.470772     7B1     4.470772
       2A2     4.473529    15A1     4.473548    16A1     4.478485

    Beta Occupied:

       1A1   -47.155777     2A1   -31.226972     3A1    -3.423931
       4A1    -2.168861     1B2    -2.168826     1B1    -2.168826
       5A1    -1.686417     6A1    -0.802406     2B2    -0.791072
       2B1    -0.791072

    Beta Virtual:

       7A1    -0.358618     3B2    -0.213136     3B1    -0.213136
       8A1    -0.197157     9A1    -0.069372    10A1    -0.016609
       4B2    -0.015985     4B1    -0.015985     5B2     0.096311
       5B1     0.096311     1A2     0.100949    11A1     0.100953
      12A1     0.131643     6B1     1.159729     6B2     1.159729
      13A1     1.280463    14A1     1.842220     7B2     4.472411
       7B1     4.472411     2A2     4.473977    15A1     4.473995
      16A1     4.480531

    Final Occupation by Irrep:
             A1    A2    B1    B2
    DOCC [     6,    0,    2,    2 ]
    SOCC [     1,    0,    0,    0 ]
    NA   [     7,    0,    2,    2 ]
    NB   [     6,    0,    2,    2 ]

  @DF-UKS Final Energy:  -328.72433230764216

   => Energetics <=

    Nuclear Repulsion Energy =             26.2400237572516808
    One-Electron Energy =                -508.0927842707270656
    Two-Electron Energy =                 176.3345804417387228
    DFT Exchange-Correlation Energy =     -23.2061522359055026
    Empirical Dispersion Energy =           0.0000000000000000
    VV10 Nonlocal Energy =                  0.0000000000000000
    Total Energy =                       -328.7243323076421575

  UHF NO Occupations:
  HONO-2 :    2 B1 1.9999968
  HONO-1 :    6 A1 1.9999957
  HONO-0 :    7 A1 1.0000000
  LUNO+0 :    8 A1 0.0000043
  LUNO+1 :    3 B1 0.0000032
  LUNO+2 :    3 B2 0.0000032
  LUNO+3 :    9 A1 0.0000013

Computation Completed

Properties will be evaluated at   0.000000,   0.000000,   0.000000 [a0]

Properties computed using the SCF density matrix

 Multipole Moments:

 ------------------------------------------------------------------------------------
     Multipole            Electronic (a.u.)      Nuclear  (a.u.)        Total (a.u.)
 ------------------------------------------------------------------------------------

 L = 1.  Multiply by 2.5417464519 to convert [e a0] to [Debye]
 Dipole X            :          0.0000000            0.0000000            0.0000000
 Dipole Y            :          0.0000000            0.0000000            0.0000000
 Dipole Z            :         -1.6461239           -0.0061213           -1.6522452
 Magnitude           :                                                    1.6522452

 ------------------------------------------------------------------------------------

*** tstop() called on Joses-MacBook-Pro-2.local at Thu Jul 17 14:38:23 2025
Module time:
	user time   =       1.96 seconds =       0.03 minutes
	system time =       3.24 seconds =       0.05 minutes
	total time  =          0 seconds =       0.00 minutes
Total time:
	user time   =      59.40 seconds =       0.99 minutes
	system time =      94.72 seconds =       1.58 minutes
	total time  =         15 seconds =       0.25 minutes

*** tstart() called on Joses-MacBook-Pro-2.local
*** at Thu Jul 17 14:38:23 2025

         ------------------------------------------------------------
                                   SCF GRAD
                          Rob Parrish, Justin Turney,
                       Andy Simmonett, and Alex Sokolov
         ------------------------------------------------------------

  ==> Geometry <==

    Molecular point group: c2v
    Full point group: C_inf_v

    Geometry (in Angstrom), charge = 1, multiplicity = 2:

       Center              X                  Y                   Z               Mass
    ------------   -----------------  -----------------  -----------------  -----------------
         NE           0.000000000000     0.000000000000     1.319861237576    19.992440176200
         MG           0.000000000000     0.000000000000    -1.100154303106    23.985041697000

  Nuclear repulsion =   26.240023757251681

  ==> Basis Set <==

  Basis Set: CC-PVDZ
    Blend: CC-PVDZ
    Number of shells: 14
    Number of basis functions: 32
    Number of Cartesian functions: 34
    Spherical Harmonics?: true
    Max angular momentum: 2

  ==> DFJKGrad: Density-Fitted SCF Gradients <==

    Gradient:                    1
    J tasked:                  Yes
    K tasked:                  Yes
    wK tasked:                  No
    OpenMP threads:              1
    Integrals threads:           1
    Memory [MiB]:              375
    Schwarz Cutoff:          1E-12
    Fitting Condition:       1E-10

   => Auxiliary Basis Set <=

  Basis Set: (CC-PVDZ AUX)
    Blend: CC-PVDZ-JKFIT + DEF2-UNIVERSAL-JKFIT
    Number of shells: 58
    Number of basis functions: 182
    Number of Cartesian functions: 218
    Spherical Harmonics?: true
    Max angular momentum: 4

  ==> DFT Potential <==

   => LibXC <=

    Version 6.2.2
    S. Lehtola, C. Steigemann, M. J.T. Oliveira, and M. A.L. Marques.,  SoftwareX 7, 1â€“5 (2018) (10.1016/j.softx.2017.11.002)

   => Composite Functional: B3LYP <=

    B3LYP Hyb-GGA Exchange-Correlation Functional

    P. J. Stephens, F. J. Devlin, C. F. Chabalowski, and M. J. Frisch.,  J. Phys. Chem. 98, 11623 (1994) (10.1021/j100096a001)

    Deriv               =              1
    GGA                 =           TRUE
    Meta                =          FALSE

    Exchange Hybrid     =           TRUE
    MP2 Hybrid          =          FALSE

   => Exchange Functionals <=

    0.0800   Slater exchange
    0.7200         Becke 88

   => Exact (HF) Exchange <=

    0.2000               HF

   => Correlation Functionals <=

    0.1900   Vosko, Wilk & Nusair (VWN5_RPA)
    0.8100   Lee, Yang & Parr

   => LibXC Density Thresholds  <==

    XC_HYB_GGA_XC_B3LYP:  1.00E-15

   => Molecular Quadrature <=

    Radial Scheme          =       TREUTLER
    Pruning Scheme         =           NONE
    Nuclear Scheme         =       TREUTLER

    Blocking Scheme        =         OCTREE
    BS radius alpha        =              1
    Pruning alpha          =              1
    Radial Points          =             75
    Spherical Points       =            302
    Total Points           =          43474
    Total Blocks           =            409
    Max Points             =            254
    Max Functions          =             32
    Weights Tolerance      =       1.00E-15

  -Total Gradient:
     Atom            X                  Y                   Z
    ------   -----------------  -----------------  -----------------
       1        0.000000000000    -0.000000000000    -0.000004042144
       2        0.000000000000     0.000000000000     0.000032286033

*** tstop() called on Joses-MacBook-Pro-2.local at Thu Jul 17 14:38:24 2025
Module time:
	user time   =       0.81 seconds =       0.01 minutes
	system time =       1.62 seconds =       0.03 minutes
	total time  =          1 seconds =       0.02 minutes
Total time:
	user time   =      60.23 seconds =       1.00 minutes
	system time =      96.34 seconds =       1.61 minutes
	total time  =         16 seconds =       0.27 minutes

    			-----------------------------------------

    			 OPTKING 3.0: for geometry optimizations

    			     By R.A. King, Bethel University

    			        with contributions from

    			    A.V. Copan, J. Cayton, A. Heide

    			-----------------------------------------

	                            ===> Fragment 1 <==

	 Z (Atomic Numbers)          Masses                          Geom
	      10.000000            19.992440          0.00000000  0.00000000  2.49417626
	      12.000000            23.985042          0.00000000  0.00000000 -2.07899033

	 - Coordinate -           - BOHR/RAD -       - ANG/DEG -
	 R(1,2)           =         4.573167           2.420016

	        --- Internal Coordinate Step in ANG or DEG, aJ/ANG or AJ/DEG ---
	-------------------------------------------------------------------------------
	           Coordinate      Previous         Force          Change          New
	           ----------      --------        ------          ------        ------
	               R(1,2)       2.42002        0.00015        0.00081       2.42083
	-------------------------------------------------------------------------------

	                                 ==> Convergence Check <==

	Measures of convergence in internal coordinates in au.

	Criteria marked as inactive (o), active & met (*), and active & unmet ( ).

	----------------------------------------------------------------------------------------------
	   Step    Total Energy     Delta E     Max Force     RMS Force      Max Disp      RMS Disp
	----------------------------------------------------------------------------------------------
	  Convergence Criteria     1.00e-06 *    3.00e-04 *             o    1.20e-03 *             o
	----------------------------------------------------------------------------------------------
	    16    -328.72433231    1.38e-07 *    1.82e-05 *    1.82e-05 o    1.53e-03      1.53e-03 o  ~
	----------------------------------------------------------------------------------------------

Next Geometry in Ang
	Fragment 1 (Ang)

	   Ne   0.0000000000   0.0000000000   1.3202666357
	   Mg   0.0000000000   0.0000000000  -1.1005597013

    Final optimized geometry and variables:
    Molecular point group: c2v
    Full point group: C_inf_v

    Geometry (in Angstrom), charge = 1, multiplicity = 2:

    NE           0.000000000000     0.000000000000     1.319861237576
    MG           0.000000000000     0.000000000000    -1.100154303106

    Psi4 stopped on: Thursday, 17 July 2025 02:38PM
    Psi4 wall time for execution: 0:00:16.61

*** Psi4 exiting successfully. Buy a developer a beer!
