                               Psi4 1.9.1 release

  ==> Input File <==

--------------------------------------------------------------------------
molecule {
1 2
H   0.00000        0.60000        0.00000
P   0.00000       -0.60000        0.00000
}

set {
basis              cc-pvdz
reference          uks
maxiter            500
geom_maxiter       500
DAMPING_PERCENTAGE 1
guess              SAP
}

optimize('b3lyp')
--------------------------------------------------------------------------

    Molecular point group: c2v
  Charge       = 1
  Multiplicity = 2
  Basis Set: CC-PVDZ
    Blend: CC-PVDZ
  Basis Set: (CC-PVDZ AUX)
    Blend: CC-PVDZ-JKFIT
  @DF-UKS Final Energy:  -341.48966025184285
    Total Energy =                       -341.4896602518428494
 Dipole X            :          0.0000000            0.0000000            0.0000000
 Dipole Y            :          0.0000000            0.0000000            0.0000000
 Dipole Z            :         -0.7406986            1.1243055            0.3836068
 Magnitude           :                                                    0.3836068
    Molecular point group: c2v
  Basis Set: CC-PVDZ
    Blend: CC-PVDZ
  Basis Set: (CC-PVDZ AUX)
    Blend: CC-PVDZ-JKFIT
  Basis Set: CC-PVDZ
    Blend: CC-PVDZ
  Basis Set: (CC-PVDZ AUX)
    Blend: CC-PVDZ-JKFIT
  @DF-UKS Final Energy:  -341.52267059693094
    Total Energy =                       -341.5226705969309364
  Basis Set: CC-PVDZ
    Blend: CC-PVDZ
  Basis Set: (CC-PVDZ AUX)
    Blend: CC-PVDZ-JKFIT
  Basis Set: CC-PVDZ
    Blend: CC-PVDZ
  @DF-UKS Final Energy:  -341.52367219222594
    Total Energy =                       -341.5236721922259449
  @DF-UKS Final Energy:  -341.52385783577887
    Total Energy =                       -341.5238578357788697
  @DF-UKS Final Energy:  -341.52389471433372
    Total Energy =                       -341.5238947143337214
  Basis Set: (CC-PVDZ AUX)
    Blend: CC-PVDZ-JKFIT
  Basis Set: CC-PVDZ
    Blend: CC-PVDZ
  Basis Set: (CC-PVDZ AUX)
    Blend: CC-PVDZ-JKFIT
  @DF-UKS Final Energy:  -341.52390227781444
    Total Energy =                       -341.5239022778144431
  Basis Set: CC-PVDZ
    Blend: CC-PVDZ
  Basis Set: (CC-PVDZ AUX)
    Blend: CC-PVDZ-JKFIT
  Charge       = 1
  Multiplicity = 2
  Basis Set: CC-PVDZ
    Blend: CC-PVDZ
  Basis Set: (CC-PVDZ AUX)
    Blend: CC-PVDZ-JKFIT

    Orbital Energies [Eh]
    ---------------------

    Alpha Occupied:

       1A1   -77.514530     2A1    -6.973194     1B1    -5.141808
       1B2    -5.136432     3A1    -5.126889     4A1    -0.944896
       5A1    -0.658341     2B2    -0.572729

    Alpha Virtual:

       2B1    -0.490739     6A1    -0.239651     7A1     0.010772
       3B2     0.105444     8A1     0.107336     3B1     0.113858
       1A2     0.115314     4B2     0.120956     9A1     0.122189
       4B1     0.126651    10A1     0.266177    11A1     0.506902
       5B1     1.111142     5B2     1.113397    12A1     1.627417

    Beta Occupied:

       1A1   -77.509573     2A1    -6.967900     1B1    -5.138996
       3A1    -5.123771     1B2    -5.119181     4A1    -0.907434
       5A1    -0.645914

    Beta Virtual:

       2B1    -0.476494     2B2    -0.432682     6A1    -0.229173
       7A1     0.019943     8A1     0.115886     3B1     0.119730
       4B1     0.131768     3B2     0.153210     4B2     0.159117
       1A2     0.172121     9A1     0.173007    10A1     0.274229
      11A1     0.518870     5B1     1.109426     5B2     1.120007
      12A1     1.630466

    Final Occupation by Irrep:
             A1    A2    B1    B2
    DOCC [     5,    0,    1,    1 ]
    SOCC [     0,    0,    0,    1 ]
    NA   [     5,    0,    1,    2 ]
    NB   [     5,    0,    1,    1 ]

  @DF-UKS Final Energy:  -341.52390424001391

   => Energetics <=

    Nuclear Repulsion Energy =              5.4758346864211038
    One-Electron Energy =                -477.1774207558570424
    Two-Electron Energy =                 148.9093937080008061
    DFT Exchange-Correlation Energy =     -18.7317118785787109
    Empirical Dispersion Energy =           0.0000000000000000
    VV10 Nonlocal Energy =                  0.0000000000000000
    Total Energy =                       -341.5239042400138487

  UHF NO Occupations:
  HONO-2 :    4 A1 1.9998555
  HONO-1 :    5 A1 1.9983707
  HONO-0 :    2 B2 1.0000000
  LUNO+0 :    6 A1 0.0016293
  LUNO+1 :    7 A1 0.0001445
  LUNO+2 :    2 B1 0.0000000
  LUNO+3 :    3 B2 0.0000000

Computation Completed

Properties will be evaluated at   0.000000,   0.000000,   0.000000 [a0]

Properties computed using the SCF density matrix

 Multipole Moments:

 ------------------------------------------------------------------------------------
     Multipole            Electronic (a.u.)      Nuclear  (a.u.)        Total (a.u.)
 ------------------------------------------------------------------------------------

 L = 1.  Multiply by 2.5417464519 to convert [e a0] to [Debye]
 Dipole X            :          0.0000000            0.0000000            0.0000000
 Dipole Y            :          0.0000000            0.0000000            0.0000000
 Dipole Z            :         -0.9780915            1.3581419            0.3800503
 Magnitude           :                                                    0.3800503

 ------------------------------------------------------------------------------------

*** tstop() called on Joses-MacBook-Pro-2.local at Thu Jul 17 12:22:58 2025
Module time:
	user time   =       2.21 seconds =       0.04 minutes
	system time =       3.03 seconds =       0.05 minutes
	total time  =          0 seconds =       0.00 minutes
Total time:
	user time   =      24.42 seconds =       0.41 minutes
	system time =      29.90 seconds =       0.50 minutes
	total time  =          5 seconds =       0.08 minutes

*** tstart() called on Joses-MacBook-Pro-2.local
*** at Thu Jul 17 12:22:58 2025

         ------------------------------------------------------------
                                   SCF GRAD
                          Rob Parrish, Justin Turney,
                       Andy Simmonett, and Alex Sokolov
         ------------------------------------------------------------

  ==> Geometry <==

    Molecular point group: c2v
    Full point group: C_inf_v

    Geometry (in Angstrom), charge = 1, multiplicity = 2:

       Center              X                  Y                   Z               Mass
    ------------   -----------------  -----------------  -----------------  -----------------
         H            0.000000000000     0.000000000000     1.403899467259     1.007825032230
         P            0.000000000000     0.000000000000    -0.045680115509    30.973761998420

  Nuclear repulsion =    5.475834686421104

  ==> Basis Set <==

  Basis Set: CC-PVDZ
    Blend: CC-PVDZ
    Number of shells: 11
    Number of basis functions: 23
    Number of Cartesian functions: 24
    Spherical Harmonics?: true
    Max angular momentum: 2

  ==> DFJKGrad: Density-Fitted SCF Gradients <==

    Gradient:                    1
    J tasked:                  Yes
    K tasked:                  Yes
    wK tasked:                  No
    OpenMP threads:              1
    Integrals threads:           1
    Memory [MiB]:              375
    Schwarz Cutoff:          1E-12
    Fitting Condition:       1E-10

   => Auxiliary Basis Set <=

  Basis Set: (CC-PVDZ AUX)
    Blend: CC-PVDZ-JKFIT
    Number of shells: 45
    Number of basis functions: 135
    Number of Cartesian functions: 155
    Spherical Harmonics?: true
    Max angular momentum: 3

  ==> DFT Potential <==

   => LibXC <=

    Version 6.2.2
    S. Lehtola, C. Steigemann, M. J.T. Oliveira, and M. A.L. Marques.,  SoftwareX 7, 1â€“5 (2018) (10.1016/j.softx.2017.11.002)

   => Composite Functional: B3LYP <=

    B3LYP Hyb-GGA Exchange-Correlation Functional

    P. J. Stephens, F. J. Devlin, C. F. Chabalowski, and M. J. Frisch.,  J. Phys. Chem. 98, 11623 (1994) (10.1021/j100096a001)

    Deriv               =              1
    GGA                 =           TRUE
    Meta                =          FALSE

    Exchange Hybrid     =           TRUE
    MP2 Hybrid          =          FALSE

   => Exchange Functionals <=

    0.0800   Slater exchange
    0.7200         Becke 88

   => Exact (HF) Exchange <=

    0.2000               HF

   => Correlation Functionals <=

    0.1900   Vosko, Wilk & Nusair (VWN5_RPA)
    0.8100   Lee, Yang & Parr

   => LibXC Density Thresholds  <==

    XC_HYB_GGA_XC_B3LYP:  1.00E-15

   => Molecular Quadrature <=

    Radial Scheme          =       TREUTLER
    Pruning Scheme         =           NONE
    Nuclear Scheme         =       TREUTLER

    Blocking Scheme        =         OCTREE
    BS radius alpha        =              1
    Pruning alpha          =              1
    Radial Points          =             75
    Spherical Points       =            302
    Total Points           =          42655
    Total Blocks           =            384
    Max Points             =            254
    Max Functions          =             23
    Weights Tolerance      =       1.00E-15

  -Total Gradient:
     Atom            X                  Y                   Z
    ------   -----------------  -----------------  -----------------
       1        0.000000000000     0.000000000000    -0.000111708117
       2        0.000000000000    -0.000000000000     0.000112544547

*** tstop() called on Joses-MacBook-Pro-2.local at Thu Jul 17 12:22:58 2025
Module time:
	user time   =       0.60 seconds =       0.01 minutes
	system time =       1.15 seconds =       0.02 minutes
	total time  =          0 seconds =       0.00 minutes
Total time:
	user time   =      25.02 seconds =       0.42 minutes
	system time =      31.05 seconds =       0.52 minutes
	total time  =          5 seconds =       0.08 minutes

    			-----------------------------------------

    			 OPTKING 3.0: for geometry optimizations

    			     By R.A. King, Bethel University

    			        with contributions from

    			    A.V. Copan, J. Cayton, A. Heide

    			-----------------------------------------

	                            ===> Fragment 1 <==

	 Z (Atomic Numbers)          Masses                          Geom
	       1.000000             1.007825          0.00000000  0.00000000  2.65298550
	      15.000000            30.973762          0.00000000  0.00000000 -0.08632291

	 - Coordinate -           - BOHR/RAD -       - ANG/DEG -
	 R(1,2)           =         2.739308           1.449580

	        --- Internal Coordinate Step in ANG or DEG, aJ/ANG or AJ/DEG ---
	-------------------------------------------------------------------------------
	           Coordinate      Previous         Force          Change          New
	           ----------      --------        ------          ------        ------
	               R(1,2)       1.44958        0.00092        0.00028       1.44986
	-------------------------------------------------------------------------------

	                                 ==> Convergence Check <==

	Measures of convergence in internal coordinates in au.

	Criteria marked as inactive (o), active & met (*), and active & unmet ( ).

	----------------------------------------------------------------------------------------------
	   Step    Total Energy     Delta E     Max Force     RMS Force      Max Disp      RMS Disp
	----------------------------------------------------------------------------------------------
	  Convergence Criteria     1.00e-06 *    3.00e-04 *             o    1.20e-03 *             o
	----------------------------------------------------------------------------------------------
	     7    -341.52390424   -1.96e-06      1.12e-04 *    1.12e-04 o    5.21e-04 *    5.21e-04 o  ~
	----------------------------------------------------------------------------------------------

Next Geometry in Ang
	Fragment 1 (Ang)

	    H   0.0000000000   0.0000000000   1.4040374421
	    P   0.0000000000   0.0000000000  -0.0458180903

    Final optimized geometry and variables:
    Molecular point group: c2v
    Full point group: C_inf_v

    Geometry (in Angstrom), charge = 1, multiplicity = 2:

    H            0.000000000000     0.000000000000     1.403899467259
    P            0.000000000000     0.000000000000    -0.045680115509

    Psi4 stopped on: Thursday, 17 July 2025 12:22PM
    Psi4 wall time for execution: 0:00:05.90

*** Psi4 exiting successfully. Buy a developer a beer!
