                               Psi4 1.9.1 release

  ==> Input File <==

--------------------------------------------------------------------------
molecule {
1 2
Na   0.00000        0.60000        0.00000
P   0.00000       -0.60000        0.00000
}

set {
basis              cc-pvdz
reference          uks
maxiter            500
geom_maxiter       500
DAMPING_PERCENTAGE 1
guess              SAP
}

optimize('b3lyp')
--------------------------------------------------------------------------

    Molecular point group: c2v
  Charge       = 1
  Multiplicity = 2
  Basis Set: CC-PVDZ
    Blend: CC-PVDZ
  Basis Set: (CC-PVDZ AUX)
    Blend: CC-PVDZ-JKFIT + DEF2-UNIVERSAL-JKFIT
  @DF-UKS Final Energy:  -502.47734416679214
    Total Energy =                       -502.4773441667921361
 Dipole X            :          0.0000000            0.0000000            0.0000000
 Dipole Y            :          0.0000000            0.0000000            0.0000000
 Dipole Z            :          1.5455910           -0.1737688            1.3718222
 Magnitude           :                                                    1.3718222
    Molecular point group: c2v
  Basis Set: CC-PVDZ
    Blend: CC-PVDZ
  Basis Set: (CC-PVDZ AUX)
    Blend: CC-PVDZ-JKFIT + DEF2-UNIVERSAL-JKFIT
  Basis Set: CC-PVDZ
    Blend: CC-PVDZ
  Basis Set: (CC-PVDZ AUX)
    Blend: CC-PVDZ-JKFIT + DEF2-UNIVERSAL-JKFIT
  @DF-UKS Final Energy:  -502.48736802752569
    Total Energy =                       -502.4873680275256902
  Basis Set: CC-PVDZ
    Blend: CC-PVDZ
  Basis Set: (CC-PVDZ AUX)
    Blend: CC-PVDZ-JKFIT + DEF2-UNIVERSAL-JKFIT
  Basis Set: CC-PVDZ
    Blend: CC-PVDZ
  @DF-UKS Final Energy:  -502.50671601330339
    Total Energy =                       -502.5067160133033894
  @DF-UKS Final Energy:  -502.57689420844019
    Total Energy =                       -502.5768942084401942
  @DF-UKS Final Energy:  -502.89039724547200
    Total Energy =                       -502.8903972454720019
  @DF-UKS Final Energy:  -503.05339096526853
    Total Energy =                       -503.0533909652685338
  @DF-UKS Final Energy:  -503.16155802849778
    Total Energy =                       -503.1615580284977796
  @DF-UKS Final Energy:  -503.22551936958814
    Total Energy =                       -503.2255193695881417
  @DF-UKS Final Energy:  -503.25889953344102
    Total Energy =                       -503.2588995334410242
  @DF-UKS Final Energy:  -503.27675206660575
    Total Energy =                       -503.2767520666057521
  @DF-UKS Final Energy:  -503.28682544339256
    Total Energy =                       -503.2868254433925586
  @DF-UKS Final Energy:  -503.29264480499097
    Total Energy =                       -503.2926448049909709
  @DF-UKS Final Energy:  -503.29591772068250
    Total Energy =                       -503.2959177206824393
  @DF-UKS Final Energy:  -503.29778166307892
    Total Energy =                       -503.2977816630789221
  @DF-UKS Final Energy:  -503.29890650287655
    Total Energy =                       -503.2989065028764912
  @DF-UKS Final Energy:  -503.29965737140731
    Total Energy =                       -503.2996573714073065
  @DF-UKS Final Energy:  -503.30024726642193
    Total Energy =                       -503.3002472664219340
  @DF-UKS Final Energy:  -503.30025019921754
    Total Energy =                       -503.3002501992175439
  @DF-UKS Final Energy:  -503.30025312667260
    Total Energy =                       -503.3002531266726010
  @DF-UKS Final Energy:  -503.30025604960144
    Total Energy =                       -503.3002560496013871
  @DF-UKS Final Energy:  -503.30260844209261
    Total Energy =                       -503.3026084420925486
  @DF-UKS Final Energy:  -503.30260953072860
    Total Energy =                       -503.3026095307286027
  @DF-UKS Final Energy:  -503.30293409321689
    Total Energy =                       -503.3029340932168907
  @DF-UKS Final Energy:  -503.30293482672391
    Total Energy =                       -503.3029348267238561
  @DF-UKS Final Energy:  -503.30293556720841
    Total Energy =                       -503.3029355672084080
  @DF-UKS Final Energy:  -503.30293630695172
    Total Energy =                       -503.3029363069517217
  @DF-UKS Final Energy:  -503.30293704586342
    Total Energy =                       -503.3029370458634162
  @DF-UKS Final Energy:  -503.30293778391456
    Total Energy =                       -503.3029377839146150
  @DF-UKS Final Energy:  -503.30293852123839
    Total Energy =                       -503.3029385212383318
  @DF-UKS Final Energy:  -503.30293925770650
    Total Energy =                       -503.3029392577064414
  @DF-UKS Final Energy:  -503.30293999341575
    Total Energy =                       -503.3029399934157482
  @DF-UKS Final Energy:  -503.30294072826541
    Total Energy =                       -503.3029407282654120
  @DF-UKS Final Energy:  -503.30294146237452
    Total Energy =                       -503.3029414623745197
  @DF-UKS Final Energy:  -503.30294219568191
    Total Energy =                       -503.3029421956819647
  @DF-UKS Final Energy:  -503.30294292817666
    Total Energy =                       -503.3029429281766056
  @DF-UKS Final Energy:  -503.30294365986487
    Total Energy =                       -503.3029436598648658
  @DF-UKS Final Energy:  -503.30294439079836
    Total Energy =                       -503.3029443907983591
  @DF-UKS Final Energy:  -503.30294512088147
    Total Energy =                       -503.3029451208814748
  Basis Set: (CC-PVDZ AUX)
    Blend: CC-PVDZ-JKFIT + DEF2-UNIVERSAL-JKFIT
  Basis Set: CC-PVDZ
    Blend: CC-PVDZ
  Basis Set: (CC-PVDZ AUX)
    Blend: CC-PVDZ-JKFIT + DEF2-UNIVERSAL-JKFIT
  @DF-UKS Final Energy:  -503.30320411325255
    Total Energy =                       -503.3032041132524910
  Basis Set: CC-PVDZ
    Blend: CC-PVDZ
  Basis Set: (CC-PVDZ AUX)
    Blend: CC-PVDZ-JKFIT + DEF2-UNIVERSAL-JKFIT
  Charge       = 1
  Multiplicity = 2
  Basis Set: CC-PVDZ
    Blend: CC-PVDZ
  Basis Set: (CC-PVDZ AUX)
    Blend: CC-PVDZ-JKFIT + DEF2-UNIVERSAL-JKFIT

    Orbital Energies [Eh]
    ---------------------

    Alpha Occupied:

       1A1   -77.209944     2A1   -38.774799     3A1    -6.674026
       4A1    -4.844391     1B2    -4.839364     1B1    -4.823126
       5A1    -2.512086     6A1    -1.443252     2B2    -1.443229
       2B1    -1.443226     7A1    -0.642064     3B2    -0.328438
       3B1    -0.285670

    Alpha Virtual:

       8A1    -0.258170     9A1    -0.254999     4B1    -0.150268
       4B2    -0.149416    10A1    -0.149061    11A1    -0.065990
       5B1    -0.047554    12A1    -0.047018     5B2    -0.045936
      13A1     0.009348     1A2     0.009485     6B1     0.009536
      14A1     0.009590     6B2     0.009658    15A1     0.273537
       7B2     0.325064    16A1     0.337332     7B1     0.353553
       8B2     0.359015    17A1     0.364175     2A2     0.388147
       8B1     0.393047    18A1     0.404832

    Beta Occupied:

       1A1   -77.205796     2A1   -38.774799     3A1    -6.669612
       4A1    -4.842069     1B2    -4.824697     1B1    -4.820580
       5A1    -2.512086     6A1    -1.443252     2B2    -1.443229
       2B1    -1.443226     7A1    -0.601389     3B1    -0.274318

    Beta Virtual:

       8A1    -0.257933     9A1    -0.243177     3B2    -0.199901
       4B1    -0.150195    10A1    -0.149075     4B2    -0.148721
      11A1    -0.065415     5B1    -0.047856    12A1    -0.047251
       5B2    -0.045003    13A1     0.009356     6B1     0.009518
       1A2     0.009665     6B2     0.009721    14A1     0.009801
      15A1     0.288753    16A1     0.342847     7B1     0.359092
       7B2     0.365779    17A1     0.398003     8B1     0.398238
       8B2     0.411516     2A2     0.433182    18A1     0.439055

    Final Occupation by Irrep:
             A1    A2    B1    B2
    DOCC [     7,    0,    3,    2 ]
    SOCC [     0,    0,    0,    1 ]
    NA   [     7,    0,    3,    3 ]
    NB   [     7,    0,    3,    2 ]

  @DF-UKS Final Energy:  -503.30320460627269

   => Energetics <=

    Nuclear Repulsion Energy =             12.6260745095453562
    One-Electron Energy =                -720.2213700308043371
    Two-Electron Energy =                 234.4675385894545059
    DFT Exchange-Correlation Energy =     -30.1754476744681561
    Empirical Dispersion Energy =           0.0000000000000000
    VV10 Nonlocal Energy =                  0.0000000000000000
    Total Energy =                       -503.3032046062726295

  UHF NO Occupations:
  HONO-2 :    3 B1 1.9999753
  HONO-1 :    7 A1 1.9987336
  HONO-0 :    3 B2 1.0000000
  LUNO+0 :    8 A1 0.0012664
  LUNO+1 :    4 B1 0.0000247
  LUNO+2 :    9 A1 0.0000000
  LUNO+3 :    4 B2 0.0000000

Computation Completed

Properties will be evaluated at   0.000000,   0.000000,   0.000000 [a0]

Properties computed using the SCF density matrix

 Multipole Moments:

 ------------------------------------------------------------------------------------
     Multipole            Electronic (a.u.)      Nuclear  (a.u.)        Total (a.u.)
 ------------------------------------------------------------------------------------

 L = 1.  Multiply by 2.5417464519 to convert [e a0] to [Debye]
 Dipole X            :          0.0000000            0.0000000            0.0000000
 Dipole Y            :          0.0000000            0.0000000            0.0000000
 Dipole Z            :          8.4237076           -1.0013993            7.4223083
 Magnitude           :                                                    7.4223083

 ------------------------------------------------------------------------------------

*** tstop() called on Joses-MacBook-Pro-2.local at Thu Jul 17 14:55:42 2025
Module time:
	user time   =       3.03 seconds =       0.05 minutes
	system time =       2.06 seconds =       0.03 minutes
	total time  =          1 seconds =       0.02 minutes
Total time:
	user time   =     777.91 seconds =      12.97 minutes
	system time =     323.34 seconds =       5.39 minutes
	total time  =        105 seconds =       1.75 minutes

*** tstart() called on Joses-MacBook-Pro-2.local
*** at Thu Jul 17 14:55:42 2025

         ------------------------------------------------------------
                                   SCF GRAD
                          Rob Parrish, Justin Turney,
                       Andy Simmonett, and Alex Sokolov
         ------------------------------------------------------------

  ==> Geometry <==

    Molecular point group: c2v
    Full point group: C_inf_v

    Geometry (in Angstrom), charge = 1, multiplicity = 2:

       Center              X                  Y                   Z               Mass
    ------------   -----------------  -----------------  -----------------  -----------------
         NA           0.000000000000     0.000000000000     3.969267101572    22.989769282000
         P            0.000000000000     0.000000000000    -2.946123718792    30.973761998420

  Nuclear repulsion =   12.626074509545356

  ==> Basis Set <==

  Basis Set: CC-PVDZ
    Blend: CC-PVDZ
    Number of shells: 16
    Number of basis functions: 36
    Number of Cartesian functions: 38
    Spherical Harmonics?: true
    Max angular momentum: 2

  ==> DFJKGrad: Density-Fitted SCF Gradients <==

    Gradient:                    1
    J tasked:                  Yes
    K tasked:                  Yes
    wK tasked:                  No
    OpenMP threads:              1
    Integrals threads:           1
    Memory [MiB]:              375
    Schwarz Cutoff:          1E-12
    Fitting Condition:       1E-10

   => Auxiliary Basis Set <=

  Basis Set: (CC-PVDZ AUX)
    Blend: CC-PVDZ-JKFIT + DEF2-UNIVERSAL-JKFIT
    Number of shells: 70
    Number of basis functions: 224
    Number of Cartesian functions: 267
    Spherical Harmonics?: true
    Max angular momentum: 4

  ==> DFT Potential <==

   => LibXC <=

    Version 6.2.2
    S. Lehtola, C. Steigemann, M. J.T. Oliveira, and M. A.L. Marques.,  SoftwareX 7, 1â€“5 (2018) (10.1016/j.softx.2017.11.002)

   => Composite Functional: B3LYP <=

    B3LYP Hyb-GGA Exchange-Correlation Functional

    P. J. Stephens, F. J. Devlin, C. F. Chabalowski, and M. J. Frisch.,  J. Phys. Chem. 98, 11623 (1994) (10.1021/j100096a001)

    Deriv               =              1
    GGA                 =           TRUE
    Meta                =          FALSE

    Exchange Hybrid     =           TRUE
    MP2 Hybrid          =          FALSE

   => Exchange Functionals <=

    0.0800   Slater exchange
    0.7200         Becke 88

   => Exact (HF) Exchange <=

    0.2000               HF

   => Correlation Functionals <=

    0.1900   Vosko, Wilk & Nusair (VWN5_RPA)
    0.8100   Lee, Yang & Parr

   => LibXC Density Thresholds  <==

    XC_HYB_GGA_XC_B3LYP:  1.00E-15

   => Molecular Quadrature <=

    Radial Scheme          =       TREUTLER
    Pruning Scheme         =           NONE
    Nuclear Scheme         =       TREUTLER

    Blocking Scheme        =         OCTREE
    BS radius alpha        =              1
    Pruning alpha          =              1
    Radial Points          =             75
    Spherical Points       =            302
    Total Points           =          43972
    Total Blocks           =            467
    Max Points             =            256
    Max Functions          =             36
    Weights Tolerance      =       1.00E-15

  -Total Gradient:
     Atom            X                  Y                   Z
    ------   -----------------  -----------------  -----------------
       1       -0.000000000000     0.000000000000    -0.000264560154
       2        0.000000000000     0.000000000000     0.000248754034

*** tstop() called on Joses-MacBook-Pro-2.local at Thu Jul 17 14:55:43 2025
Module time:
	user time   =       4.57 seconds =       0.08 minutes
	system time =       1.36 seconds =       0.02 minutes
	total time  =          1 seconds =       0.02 minutes
Total time:
	user time   =     782.48 seconds =      13.04 minutes
	system time =     324.70 seconds =       5.41 minutes
	total time  =        106 seconds =       1.77 minutes

    			-----------------------------------------

    			 OPTKING 3.0: for geometry optimizations

    			     By R.A. King, Bethel University

    			        with contributions from

    			    A.V. Copan, J. Cayton, A. Heide

    			-----------------------------------------

	                            ===> Fragment 1 <==

	 Z (Atomic Numbers)          Masses                          Geom
	      11.000000            22.989769          0.00000000  0.00000000  7.50082774
	      15.000000            30.973762          0.00000000  0.00000000 -5.56736696

	 - Coordinate -           - BOHR/RAD -       - ANG/DEG -
	 R(1,2)           =        13.068195           6.915391

	        --- Internal Coordinate Step in ANG or DEG, aJ/ANG or AJ/DEG ---
	-------------------------------------------------------------------------------
	           Coordinate      Previous         Force          Change          New
	           ----------      --------        ------          ------        ------
	               R(1,2)       6.91539        0.00211        0.00099       6.91638
	-------------------------------------------------------------------------------

	                                 ==> Convergence Check <==

	Measures of convergence in internal coordinates in au.

	Criteria marked as inactive (o), active & met (*), and active & unmet ( ).

	----------------------------------------------------------------------------------------------
	   Step    Total Energy     Delta E     Max Force     RMS Force      Max Disp      RMS Disp
	----------------------------------------------------------------------------------------------
	  Convergence Criteria     1.00e-06 *    3.00e-04 *             o    1.20e-03 *             o
	----------------------------------------------------------------------------------------------
	    87    -503.30320461   -4.93e-07 *    2.57e-04 *    2.57e-04 o    1.87e-03      1.87e-03 o  ~
	----------------------------------------------------------------------------------------------

Next Geometry in Ang
	Fragment 1 (Ang)

	   Na   0.0000000000   0.0000000000   3.9697617592
	    P   0.0000000000   0.0000000000  -2.9466183764

    Final optimized geometry and variables:
    Molecular point group: c2v
    Full point group: C_inf_v

    Geometry (in Angstrom), charge = 1, multiplicity = 2:

    NA           0.000000000000     0.000000000000     3.969267101572
    P            0.000000000000     0.000000000000    -2.946123718792

    Psi4 stopped on: Thursday, 17 July 2025 02:55PM
    Psi4 wall time for execution: 0:01:46.48

*** Psi4 exiting successfully. Buy a developer a beer!
