                               Psi4 1.9.1 release

  ==> Input File <==

--------------------------------------------------------------------------
molecule {
1 2
C   0.00000        0.60000        0.00000
Ne   0.00000       -0.60000        0.00000
}

set {
basis              cc-pvdz
reference          uks
maxiter            500
geom_maxiter       500
DAMPING_PERCENTAGE 1
guess              SAP
}

optimize('b3lyp')
--------------------------------------------------------------------------

    Molecular point group: c2v
  Charge       = 1
  Multiplicity = 2
  Basis Set: CC-PVDZ
    Blend: CC-PVDZ
  Basis Set: (CC-PVDZ AUX)
    Blend: CC-PVDZ-JKFIT
  @DF-UKS Final Energy:  -166.22953010928924
    Total Energy =                       -166.2295301092892714
 Dipole X            :          0.0000000            0.0000000            0.0000000
 Dipole Y            :          0.0000000            0.0000000            0.0000000
 Dipole Z            :         -0.1923217           -0.0032151           -0.1955368
 Magnitude           :                                                    0.1955368
    Molecular point group: c2v
  Basis Set: CC-PVDZ
    Blend: CC-PVDZ
  Basis Set: (CC-PVDZ AUX)
    Blend: CC-PVDZ-JKFIT
  Basis Set: CC-PVDZ
    Blend: CC-PVDZ
  Basis Set: (CC-PVDZ AUX)
    Blend: CC-PVDZ-JKFIT
  @DF-UKS Final Energy:  -166.29776656004989
    Total Energy =                       -166.2977665600498653
  Basis Set: CC-PVDZ
    Blend: CC-PVDZ
  Basis Set: (CC-PVDZ AUX)
    Blend: CC-PVDZ-JKFIT
  Basis Set: CC-PVDZ
    Blend: CC-PVDZ
  @DF-UKS Final Energy:  -166.33263392884353
    Total Energy =                       -166.3326339288435349
  @DF-UKS Final Energy:  -166.34978460653403
    Total Energy =                       -166.3497846065340298
  @DF-UKS Final Energy:  -166.35606057651322
    Total Energy =                       -166.3560605765132152
  @DF-UKS Final Energy:  -166.35798368326377
    Total Energy =                       -166.3579836832637397
  @DF-UKS Final Energy:  -166.35834314218877
    Total Energy =                       -166.3583431421887724
  @DF-UKS Final Energy:  -166.35842507457286
    Total Energy =                       -166.3584250745728639
  @DF-UKS Final Energy:  -166.35845008328602
    Total Energy =                       -166.3584500832859874
  Basis Set: (CC-PVDZ AUX)
    Blend: CC-PVDZ-JKFIT
  Basis Set: CC-PVDZ
    Blend: CC-PVDZ
  Basis Set: (CC-PVDZ AUX)
    Blend: CC-PVDZ-JKFIT
  @DF-UKS Final Energy:  -166.35845326166174
    Total Energy =                       -166.3584532616617366
  Basis Set: CC-PVDZ
    Blend: CC-PVDZ
  Basis Set: (CC-PVDZ AUX)
    Blend: CC-PVDZ-JKFIT
  Charge       = 1
  Multiplicity = 2
  Basis Set: CC-PVDZ
    Blend: CC-PVDZ
  Basis Set: (CC-PVDZ AUX)
    Blend: CC-PVDZ-JKFIT

    Orbital Energies [Eh]
    ---------------------

    Alpha Occupied:

       1A1   -31.333658     2A1   -10.837618     3A1    -1.785990
       4A1    -1.012664     1B1    -0.885557     1B2    -0.884956
       5A1    -0.876180     2B1    -0.680631

    Alpha Virtual:

       2B2    -0.548302     6A1    -0.518226     3B1     0.109813
       3B2     0.131129     7A1     0.152425     8A1     0.225812
       4B1     0.690161     4B2     0.707329     9A1     0.718621
       1A2     0.722079    10A1     0.735308     5B1     1.125779
       5B2     1.126439    11A1     1.213414    12A1     1.987233
       6B2     4.373701     6B1     4.374382    13A1     4.379603
       2A2     4.379682    14A1     4.401201

    Beta Occupied:

       1A1   -31.333594     2A1   -10.820081     3A1    -1.785985
       4A1    -0.970548     1B2    -0.885082     1B1    -0.883157
       5A1    -0.854369

    Beta Virtual:

       2B2    -0.528923     6A1    -0.498332     2B1    -0.470723
       3B2     0.138358     7A1     0.160267     3B1     0.170896
       8A1     0.250131     4B2     0.713295     9A1     0.734007
       4B1     0.750345     1A2     0.791553    10A1     0.799768
       5B2     1.127305     5B1     1.135092    11A1     1.214548
      12A1     1.991680     6B2     4.373071     6B1     4.374516
      13A1     4.380162     2A2     4.380262    14A1     4.400891

    Final Occupation by Irrep:
             A1    A2    B1    B2
    DOCC [     5,    0,    1,    1 ]
    SOCC [     0,    0,    1,    0 ]
    NA   [     5,    0,    2,    1 ]
    NB   [     5,    0,    1,    1 ]

  @DF-UKS Final Energy:  -166.35845378017962

   => Energetics <=

    Nuclear Repulsion Energy =             16.4149729265452002
    One-Electron Energy =                -259.6538629152820477
    Two-Electron Energy =                  90.8962414101903562
    DFT Exchange-Correlation Energy =     -14.0158052016331318
    Empirical Dispersion Energy =           0.0000000000000000
    VV10 Nonlocal Energy =                  0.0000000000000000
    Total Energy =                       -166.3584537801796159

  UHF NO Occupations:
  HONO-2 :    4 A1 1.9999289
  HONO-1 :    5 A1 1.9989143
  HONO-0 :    2 B1 1.0000000
  LUNO+0 :    6 A1 0.0010857
  LUNO+1 :    7 A1 0.0000711
  LUNO+2 :    2 B2 0.0000089
  LUNO+3 :    3 B1 0.0000047

Computation Completed

Properties will be evaluated at   0.000000,   0.000000,   0.000000 [a0]

Properties computed using the SCF density matrix

 Multipole Moments:

 ------------------------------------------------------------------------------------
     Multipole            Electronic (a.u.)      Nuclear  (a.u.)        Total (a.u.)
 ------------------------------------------------------------------------------------

 L = 1.  Multiply by 2.5417464519 to convert [e a0] to [Debye]
 Dipole X            :          0.0000000            0.0000000            0.0000000
 Dipole Y            :          0.0000000            0.0000000            0.0000000
 Dipole Z            :          1.6476528           -0.0051823            1.6424705
 Magnitude           :                                                    1.6424705

 ------------------------------------------------------------------------------------

*** tstop() called on Joses-MacBook-Pro-2.local at Thu Jul 17 13:41:52 2025
Module time:
	user time   =       1.84 seconds =       0.03 minutes
	system time =       4.49 seconds =       0.07 minutes
	total time  =          0 seconds =       0.00 minutes
Total time:
	user time   =      35.78 seconds =       0.60 minutes
	system time =      63.05 seconds =       1.05 minutes
	total time  =          9 seconds =       0.15 minutes

*** tstart() called on Joses-MacBook-Pro-2.local
*** at Thu Jul 17 13:41:52 2025

         ------------------------------------------------------------
                                   SCF GRAD
                          Rob Parrish, Justin Turney,
                       Andy Simmonett, and Alex Sokolov
         ------------------------------------------------------------

  ==> Geometry <==

    Molecular point group: c2v
    Full point group: C_inf_v

    Geometry (in Angstrom), charge = 1, multiplicity = 2:

       Center              X                  Y                   Z               Mass
    ------------   -----------------  -----------------  -----------------  -----------------
         C            0.000000000000     0.000000000000     1.208733756808    12.000000000000
         NE           0.000000000000     0.000000000000    -0.725514492171    19.992440176200

  Nuclear repulsion =   16.414972926545200

  ==> Basis Set <==

  Basis Set: CC-PVDZ
    Blend: CC-PVDZ
    Number of shells: 12
    Number of basis functions: 28
    Number of Cartesian functions: 30
    Spherical Harmonics?: true
    Max angular momentum: 2

  ==> DFJKGrad: Density-Fitted SCF Gradients <==

    Gradient:                    1
    J tasked:                  Yes
    K tasked:                  Yes
    wK tasked:                  No
    OpenMP threads:              1
    Integrals threads:           1
    Memory [MiB]:              375
    Schwarz Cutoff:          1E-12
    Fitting Condition:       1E-10

   => Auxiliary Basis Set <=

  Basis Set: (CC-PVDZ AUX)
    Blend: CC-PVDZ-JKFIT
    Number of shells: 48
    Number of basis functions: 140
    Number of Cartesian functions: 162
    Spherical Harmonics?: true
    Max angular momentum: 3

  ==> DFT Potential <==

   => LibXC <=

    Version 6.2.2
    S. Lehtola, C. Steigemann, M. J.T. Oliveira, and M. A.L. Marques.,  SoftwareX 7, 1â€“5 (2018) (10.1016/j.softx.2017.11.002)

   => Composite Functional: B3LYP <=

    B3LYP Hyb-GGA Exchange-Correlation Functional

    P. J. Stephens, F. J. Devlin, C. F. Chabalowski, and M. J. Frisch.,  J. Phys. Chem. 98, 11623 (1994) (10.1021/j100096a001)

    Deriv               =              1
    GGA                 =           TRUE
    Meta                =          FALSE

    Exchange Hybrid     =           TRUE
    MP2 Hybrid          =          FALSE

   => Exchange Functionals <=

    0.0800   Slater exchange
    0.7200         Becke 88

   => Exact (HF) Exchange <=

    0.2000               HF

   => Correlation Functionals <=

    0.1900   Vosko, Wilk & Nusair (VWN5_RPA)
    0.8100   Lee, Yang & Parr

   => LibXC Density Thresholds  <==

    XC_HYB_GGA_XC_B3LYP:  1.00E-15

   => Molecular Quadrature <=

    Radial Scheme          =       TREUTLER
    Pruning Scheme         =           NONE
    Nuclear Scheme         =       TREUTLER

    Blocking Scheme        =         OCTREE
    BS radius alpha        =              1
    Pruning alpha          =              1
    Radial Points          =             75
    Spherical Points       =            302
    Total Points           =          43361
    Total Blocks           =            387
    Max Points             =            254
    Max Functions          =             28
    Weights Tolerance      =       1.00E-15

  -Total Gradient:
     Atom            X                  Y                   Z
    ------   -----------------  -----------------  -----------------
       1        0.000000000000    -0.000000000000    -0.000048533102
       2        0.000000000000     0.000000000000     0.000017322062

*** tstop() called on Joses-MacBook-Pro-2.local at Thu Jul 17 13:41:53 2025
Module time:
	user time   =       0.50 seconds =       0.01 minutes
	system time =       1.22 seconds =       0.02 minutes
	total time  =          1 seconds =       0.02 minutes
Total time:
	user time   =      36.29 seconds =       0.60 minutes
	system time =      64.27 seconds =       1.07 minutes
	total time  =         10 seconds =       0.17 minutes

    			-----------------------------------------

    			 OPTKING 3.0: for geometry optimizations

    			     By R.A. King, Bethel University

    			        with contributions from

    			    A.V. Copan, J. Cayton, A. Heide

    			-----------------------------------------

	                            ===> Fragment 1 <==

	 Z (Atomic Numbers)          Masses                          Geom
	       6.000000            12.000000          0.00000000  0.00000000  2.28417576
	      10.000000            19.992440          0.00000000  0.00000000 -1.37102369

	 - Coordinate -           - BOHR/RAD -       - ANG/DEG -
	 R(1,2)           =         3.655199           1.934248

	        --- Internal Coordinate Step in ANG or DEG, aJ/ANG or AJ/DEG ---
	-------------------------------------------------------------------------------
	           Coordinate      Previous         Force          Change          New
	           ----------      --------        ------          ------        ------
	               R(1,2)       1.93425        0.00027        0.00045       1.93470
	-------------------------------------------------------------------------------

	                                 ==> Convergence Check <==

	Measures of convergence in internal coordinates in au.

	Criteria marked as inactive (o), active & met (*), and active & unmet ( ).

	----------------------------------------------------------------------------------------------
	   Step    Total Energy     Delta E     Max Force     RMS Force      Max Disp      RMS Disp
	----------------------------------------------------------------------------------------------
	  Convergence Criteria     1.00e-06 *    3.00e-04 *             o    1.20e-03 *             o
	----------------------------------------------------------------------------------------------
	    11    -166.35845378   -5.19e-07 *    3.29e-05 *    3.29e-05 o    8.46e-04 *    8.46e-04 o  ~
	----------------------------------------------------------------------------------------------

Next Geometry in Ang
	Fragment 1 (Ang)

	    C   0.0000000000   0.0000000000   1.2089577103
	   Ne   0.0000000000   0.0000000000  -0.7257384457

    Final optimized geometry and variables:
    Molecular point group: c2v
    Full point group: C_inf_v

    Geometry (in Angstrom), charge = 1, multiplicity = 2:

    C            0.000000000000     0.000000000000     1.208733756808
    NE           0.000000000000     0.000000000000    -0.725514492171

    Psi4 stopped on: Thursday, 17 July 2025 01:41PM
    Psi4 wall time for execution: 0:00:10.02

*** Psi4 exiting successfully. Buy a developer a beer!
