                               Psi4 1.9.1 release

  ==> Input File <==

--------------------------------------------------------------------------
molecule {
1 2
Li   0.00000        0.60000        0.00000
F   0.00000       -0.60000        0.00000
}

set {
basis              cc-pvdz
reference          uks
maxiter            500
geom_maxiter       500
DAMPING_PERCENTAGE 1
guess              SAP
}

optimize('b3lyp')
--------------------------------------------------------------------------

    Molecular point group: c2v
  Charge       = 1
  Multiplicity = 2
  Basis Set: CC-PVDZ
    Blend: CC-PVDZ
  Basis Set: (CC-PVDZ AUX)
    Blend: CC-PVDZ-JKFIT + DEF2-UNIVERSAL-JKFIT
  @DF-UKS Final Energy:  -106.86948436936221
    Total Energy =                       -106.8694843693622119
 Dipole X            :          0.0000000            0.0000000            0.0000000
 Dipole Y            :          0.0000000            0.0000000            0.0000000
 Dipole Z            :          1.9941760           -0.5359917            1.4581843
 Magnitude           :                                                    1.4581843
    Molecular point group: c2v
  Basis Set: CC-PVDZ
    Blend: CC-PVDZ
  Basis Set: (CC-PVDZ AUX)
    Blend: CC-PVDZ-JKFIT + DEF2-UNIVERSAL-JKFIT
  Basis Set: CC-PVDZ
    Blend: CC-PVDZ
  Basis Set: (CC-PVDZ AUX)
    Blend: CC-PVDZ-JKFIT + DEF2-UNIVERSAL-JKFIT
  @DF-UKS Final Energy:  -106.95195861343221
    Total Energy =                       -106.9519586134322111
  Basis Set: CC-PVDZ
    Blend: CC-PVDZ
  Basis Set: (CC-PVDZ AUX)
    Blend: CC-PVDZ-JKFIT + DEF2-UNIVERSAL-JKFIT
  Basis Set: CC-PVDZ
    Blend: CC-PVDZ
  @DF-UKS Final Energy:  -106.98199615844017
    Total Energy =                       -106.9819961584401682
  @DF-UKS Final Energy:  -106.99926038513208
    Total Energy =                       -106.9992603851320894
  @DF-UKS Final Energy:  -107.00784487913627
    Total Energy =                       -107.0078448791362575
  @DF-UKS Final Energy:  -107.01224235700768
    Total Energy =                       -107.0122423570076791
  @DF-UKS Final Energy:  -107.01434002576549
    Total Energy =                       -107.0143400257654918
  @DF-UKS Final Energy:  -107.01504355306975
    Total Energy =                       -107.0150435530697450
  @DF-UKS Final Energy:  -107.01541460726079
    Total Energy =                       -107.0154146072607944
  @DF-UKS Final Energy:  -107.01555421147270
    Total Energy =                       -107.0155542114726757
  @DF-UKS Final Energy:  -107.01558475070364
    Total Energy =                       -107.0155847507036384
  @DF-UKS Final Energy:  -107.01559231966579
    Total Energy =                       -107.0155923196657852
  Basis Set: (CC-PVDZ AUX)
    Blend: CC-PVDZ-JKFIT + DEF2-UNIVERSAL-JKFIT
  Basis Set: CC-PVDZ
    Blend: CC-PVDZ
  Basis Set: (CC-PVDZ AUX)
    Blend: CC-PVDZ-JKFIT + DEF2-UNIVERSAL-JKFIT
  @DF-UKS Final Energy:  -107.01559486194049
    Total Energy =                       -107.0155948619404995
  Basis Set: CC-PVDZ
    Blend: CC-PVDZ
  Basis Set: (CC-PVDZ AUX)
    Blend: CC-PVDZ-JKFIT + DEF2-UNIVERSAL-JKFIT
  Charge       = 1
  Multiplicity = 2
  Basis Set: CC-PVDZ
    Blend: CC-PVDZ
  Basis Set: (CC-PVDZ AUX)
    Blend: CC-PVDZ-JKFIT + DEF2-UNIVERSAL-JKFIT

    Orbital Energies [Eh]
    ---------------------

    Alpha Occupied:

       1A1   -25.034421     2A1    -2.349076     3A1    -1.460248
       4A1    -0.792964     1B1    -0.695091     1B2    -0.695091

    Alpha Virtual:

       5A1    -0.251582     2B1    -0.183117     2B2    -0.183117
       6A1    -0.169446     7A1    -0.067957     3B1    -0.064391
       3B2    -0.064391     8A1    -0.047028     4B2     0.059384
       4B1     0.059384     1A2     0.065595     9A1     0.065596
      10A1     0.107533    11A1     0.924735     5B1     0.940503
       5B2     0.940503    12A1     1.586172    13A1     3.194070
       6B2     3.219146     6B1     3.219146    14A1     3.284835
       2A2     3.285256

    Beta Occupied:

       1A1   -25.003971     2A1    -2.349032     3A1    -1.370365
       1B1    -0.663685     1B2    -0.663685

    Beta Virtual:

       4A1    -0.508818     5A1    -0.247475     2B1    -0.182809
       2B2    -0.182809     6A1    -0.164109     3B1    -0.065502
       3B2    -0.065502     7A1    -0.060841     8A1    -0.046685
       4B2     0.061307     4B1     0.061307     9A1     0.065957
       1A2     0.066004    10A1     0.113930     5B1     0.957235
       5B2     0.957235    11A1     1.026137    12A1     1.630033
      13A1     3.300322     2A2     3.300737     6B2     3.313021
       6B1     3.313021    14A1     3.328088

    Final Occupation by Irrep:
             A1    A2    B1    B2
    DOCC [     3,    0,    1,    1 ]
    SOCC [     1,    0,    0,    0 ]
    NA   [     4,    0,    1,    1 ]
    NB   [     3,    0,    1,    1 ]

  @DF-UKS Final Energy:  -107.01559555363110

   => Energetics <=

    Nuclear Repulsion Energy =              6.1741168804293673
    One-Electron Energy =                -158.3061548767265094
    Two-Electron Energy =                  54.8539355756190901
    DFT Exchange-Correlation Energy =      -9.7374931329530447
    Empirical Dispersion Energy =           0.0000000000000000
    VV10 Nonlocal Energy =                  0.0000000000000000
    Total Energy =                       -107.0155955536310870

  UHF NO Occupations:
  HONO-2 :    1 B2 1.9999105
  HONO-1 :    3 A1 1.9996816
  HONO-0 :    4 A1 1.0000000
  LUNO+0 :    5 A1 0.0003184
  LUNO+1 :    2 B2 0.0000895
  LUNO+2 :    2 B1 0.0000895
  LUNO+3 :    6 A1 0.0000001

Computation Completed

Properties will be evaluated at   0.000000,   0.000000,   0.000000 [a0]

Properties computed using the SCF density matrix

 Multipole Moments:

 ------------------------------------------------------------------------------------
     Multipole            Electronic (a.u.)      Nuclear  (a.u.)        Total (a.u.)
 ------------------------------------------------------------------------------------

 L = 1.  Multiply by 2.5417464519 to convert [e a0] to [Debye]
 Dipole X            :          0.0000000            0.0000000            0.0000000
 Dipole Y            :          0.0000000            0.0000000            0.0000000
 Dipole Z            :          4.0427897           -1.0336342            3.0091554
 Magnitude           :                                                    3.0091554

 ------------------------------------------------------------------------------------

*** tstop() called on Joses-MacBook-Pro-2.local at Thu Jul 17 12:50:07 2025
Module time:
	user time   =       1.87 seconds =       0.03 minutes
	system time =       3.50 seconds =       0.06 minutes
	total time  =          1 seconds =       0.02 minutes
Total time:
	user time   =      51.81 seconds =       0.86 minutes
	system time =      65.53 seconds =       1.09 minutes
	total time  =         11 seconds =       0.18 minutes

*** tstart() called on Joses-MacBook-Pro-2.local
*** at Thu Jul 17 12:50:07 2025

         ------------------------------------------------------------
                                   SCF GRAD
                          Rob Parrish, Justin Turney,
                       Andy Simmonett, and Alex Sokolov
         ------------------------------------------------------------

  ==> Geometry <==

    Molecular point group: c2v
    Full point group: C_inf_v

    Geometry (in Angstrom), charge = 1, multiplicity = 2:

       Center              X                  Y                   Z               Mass
    ------------   -----------------  -----------------  -----------------  -----------------
         LI           0.000000000000     0.000000000000     1.690025376758     7.016003436600
         F            0.000000000000     0.000000000000    -0.624116866545    18.998403162730

  Nuclear repulsion =    6.174116880429367

  ==> Basis Set <==

  Basis Set: CC-PVDZ
    Blend: CC-PVDZ
    Number of shells: 12
    Number of basis functions: 28
    Number of Cartesian functions: 30
    Spherical Harmonics?: true
    Max angular momentum: 2

  ==> DFJKGrad: Density-Fitted SCF Gradients <==

    Gradient:                    1
    J tasked:                  Yes
    K tasked:                  Yes
    wK tasked:                  No
    OpenMP threads:              1
    Integrals threads:           1
    Memory [MiB]:              375
    Schwarz Cutoff:          1E-12
    Fitting Condition:       1E-10

   => Auxiliary Basis Set <=

  Basis Set: (CC-PVDZ AUX)
    Blend: CC-PVDZ-JKFIT + DEF2-UNIVERSAL-JKFIT
    Number of shells: 41
    Number of basis functions: 121
    Number of Cartesian functions: 141
    Spherical Harmonics?: true
    Max angular momentum: 3

  ==> DFT Potential <==

   => LibXC <=

    Version 6.2.2
    S. Lehtola, C. Steigemann, M. J.T. Oliveira, and M. A.L. Marques.,  SoftwareX 7, 1â€“5 (2018) (10.1016/j.softx.2017.11.002)

   => Composite Functional: B3LYP <=

    B3LYP Hyb-GGA Exchange-Correlation Functional

    P. J. Stephens, F. J. Devlin, C. F. Chabalowski, and M. J. Frisch.,  J. Phys. Chem. 98, 11623 (1994) (10.1021/j100096a001)

    Deriv               =              1
    GGA                 =           TRUE
    Meta                =          FALSE

    Exchange Hybrid     =           TRUE
    MP2 Hybrid          =          FALSE

   => Exchange Functionals <=

    0.0800   Slater exchange
    0.7200         Becke 88

   => Exact (HF) Exchange <=

    0.2000               HF

   => Correlation Functionals <=

    0.1900   Vosko, Wilk & Nusair (VWN5_RPA)
    0.8100   Lee, Yang & Parr

   => LibXC Density Thresholds  <==

    XC_HYB_GGA_XC_B3LYP:  1.00E-15

   => Molecular Quadrature <=

    Radial Scheme          =       TREUTLER
    Pruning Scheme         =           NONE
    Nuclear Scheme         =       TREUTLER

    Blocking Scheme        =         OCTREE
    BS radius alpha        =              1
    Pruning alpha          =              1
    Radial Points          =             75
    Spherical Points       =            302
    Total Points           =          44313
    Total Blocks           =            421
    Max Points             =            254
    Max Functions          =             28
    Weights Tolerance      =       1.00E-15

  -Total Gradient:
     Atom            X                  Y                   Z
    ------   -----------------  -----------------  -----------------
       1        0.000000000000     0.000000000000    -0.000095684775
       2        0.000000000000    -0.000000000000    -0.000074424647

*** tstop() called on Joses-MacBook-Pro-2.local at Thu Jul 17 12:50:07 2025
Module time:
	user time   =       0.42 seconds =       0.01 minutes
	system time =       1.27 seconds =       0.02 minutes
	total time  =          0 seconds =       0.00 minutes
Total time:
	user time   =      52.23 seconds =       0.87 minutes
	system time =      66.80 seconds =       1.11 minutes
	total time  =         11 seconds =       0.18 minutes

    			-----------------------------------------

    			 OPTKING 3.0: for geometry optimizations

    			     By R.A. King, Bethel University

    			        with contributions from

    			    A.V. Copan, J. Cayton, A. Heide

    			-----------------------------------------

	                            ===> Fragment 1 <==

	 Z (Atomic Numbers)          Masses                          Geom
	       3.000000             7.016003          0.00000000  0.00000000  3.19368511
	       9.000000            18.998403          0.00000000  0.00000000 -1.17940995

	 - Coordinate -           - BOHR/RAD -       - ANG/DEG -
	 R(1,2)           =         4.373095           2.314142

	        --- Internal Coordinate Step in ANG or DEG, aJ/ANG or AJ/DEG ---
	-------------------------------------------------------------------------------
	           Coordinate      Previous         Force          Change          New
	           ----------      --------        ------          ------        ------
	               R(1,2)       2.31414        0.00009        0.00088       2.31502
	-------------------------------------------------------------------------------

	                                 ==> Convergence Check <==

	Measures of convergence in internal coordinates in au.

	Criteria marked as inactive (o), active & met (*), and active & unmet ( ).

	----------------------------------------------------------------------------------------------
	   Step    Total Energy     Delta E     Max Force     RMS Force      Max Disp      RMS Disp
	----------------------------------------------------------------------------------------------
	  Convergence Criteria     1.00e-06 *    3.00e-04 *             o    1.20e-03 *             o
	----------------------------------------------------------------------------------------------
	    14    -107.01559555   -6.92e-07 *    1.06e-05 *    1.06e-05 o    1.66e-03      1.66e-03 o  ~
	----------------------------------------------------------------------------------------------

Next Geometry in Ang
	Fragment 1 (Ang)

	   Li   0.0000000000   0.0000000000   1.6904639983
	    F   0.0000000000   0.0000000000  -0.6245554881

    Final optimized geometry and variables:
    Molecular point group: c2v
    Full point group: C_inf_v

    Geometry (in Angstrom), charge = 1, multiplicity = 2:

    LI           0.000000000000     0.000000000000     1.690025376758
    F            0.000000000000     0.000000000000    -0.624116866545

    Psi4 stopped on: Thursday, 17 July 2025 12:50PM
    Psi4 wall time for execution: 0:00:11.82

*** Psi4 exiting successfully. Buy a developer a beer!
