                               Psi4 1.9.1 release

  ==> Input File <==

--------------------------------------------------------------------------
molecule {
1 2
O   0.00000        0.60000        0.00000
Ne   0.00000       -0.60000        0.00000
}

set {
basis              cc-pvdz
reference          uks
maxiter            500
geom_maxiter       500
DAMPING_PERCENTAGE 1
guess              SAP
}

optimize('b3lyp')
--------------------------------------------------------------------------

    Molecular point group: c2v
  Charge       = 1
  Multiplicity = 2
  Basis Set: CC-PVDZ
    Blend: CC-PVDZ
  Basis Set: (CC-PVDZ AUX)
    Blend: CC-PVDZ-JKFIT
  @DF-UKS Final Energy:  -203.30760308607773
    Total Energy =                       -203.3076030860777053
 Dipole X            :          0.0000000            0.0000000            0.0000000
 Dipole Y            :          0.0000000            0.0000000            0.0000000
 Dipole Z            :         -0.1727907           -0.0006065           -0.1733972
 Magnitude           :                                                    0.1733972
    Molecular point group: c2v
  Basis Set: CC-PVDZ
    Blend: CC-PVDZ
  Basis Set: (CC-PVDZ AUX)
    Blend: CC-PVDZ-JKFIT
  Basis Set: CC-PVDZ
    Blend: CC-PVDZ
  Basis Set: (CC-PVDZ AUX)
    Blend: CC-PVDZ-JKFIT
  @DF-UKS Final Energy:  -203.37469253549668
    Total Energy =                       -203.3746925354966777
  Basis Set: CC-PVDZ
    Blend: CC-PVDZ
  Basis Set: (CC-PVDZ AUX)
    Blend: CC-PVDZ-JKFIT
  Basis Set: CC-PVDZ
    Blend: CC-PVDZ
  @DF-UKS Final Energy:  -203.39092565425688
    Total Energy =                       -203.3909256542569040
  @DF-UKS Final Energy:  -203.39602179302418
    Total Energy =                       -203.3960217930241754
  @DF-UKS Final Energy:  -203.39864203048339
    Total Energy =                       -203.3986420304833871
  @DF-UKS Final Energy:  -203.39919927872285
    Total Energy =                       -203.3991992787228469
  @DF-UKS Final Energy:  -203.39933495682737
    Total Energy =                       -203.3993349568273743
  @DF-UKS Final Energy:  -203.39937680027896
    Total Energy =                       -203.3993768002789579
  Basis Set: (CC-PVDZ AUX)
    Blend: CC-PVDZ-JKFIT
  Basis Set: CC-PVDZ
    Blend: CC-PVDZ
  Basis Set: (CC-PVDZ AUX)
    Blend: CC-PVDZ-JKFIT
  @DF-UKS Final Energy:  -203.39938305997092
    Total Energy =                       -203.3993830599709440
  Basis Set: CC-PVDZ
    Blend: CC-PVDZ
  Basis Set: (CC-PVDZ AUX)
    Blend: CC-PVDZ-JKFIT
  Charge       = 1
  Multiplicity = 2
  Basis Set: CC-PVDZ
    Blend: CC-PVDZ
  Basis Set: (CC-PVDZ AUX)
    Blend: CC-PVDZ-JKFIT

    Orbital Energies [Eh]
    ---------------------

    Alpha Occupied:

       1A1   -31.499444     2A1   -19.849527     3A1    -1.936403
       4A1    -1.476551     5A1    -1.051349     1B1    -1.030524
       1B2    -1.023215     2B1    -0.916613     2B2    -0.837035

    Alpha Virtual:

       6A1    -0.693981     3B1     0.408135     3B2     0.452191
       7A1     0.501022     8A1     0.719786     4B1     0.971153
       4B2     0.977826     9A1     1.073584    10A1     1.545362
       5B1     2.003872     1A2     2.021942    11A1     2.022317
       5B2     2.062736    12A1     2.485228     6B1     4.232187
       6B2     4.234910     2A2     4.242945    13A1     4.242975
      14A1     4.359316

    Beta Occupied:

       1A1   -31.500591     2A1   -19.820444     3A1    -1.938427
       4A1    -1.394186     5A1    -1.049100     1B2    -1.023678
       1B1    -1.021218     2B2    -0.808284

    Beta Virtual:

       6A1    -0.660795     2B1    -0.643318     3B2     0.465583
       3B1     0.497010     7A1     0.521091     8A1     0.756424
       4B2     0.978022     4B1     0.978114     9A1     1.071595
      10A1     1.561372     5B2     2.078612     5B1     2.101131
       1A2     2.104278    11A1     2.115963    12A1     2.511828
       6B1     4.228975     6B2     4.229860     2A2     4.243988
      13A1     4.244033    14A1     4.355699

    Final Occupation by Irrep:
             A1    A2    B1    B2
    DOCC [     5,    0,    1,    2 ]
    SOCC [     0,    0,    1,    0 ]
    NA   [     5,    0,    2,    2 ]
    NB   [     5,    0,    1,    2 ]

  @DF-UKS Final Energy:  -203.39938352596107

   => Energetics <=

    Nuclear Repulsion Energy =             26.1908010292332420
    One-Electron Energy =                -329.1333744063947506
    Two-Electron Energy =                 116.0867461511410710
    DFT Exchange-Correlation Energy =     -16.5435562999406223
    Empirical Dispersion Energy =           0.0000000000000000
    VV10 Nonlocal Energy =                  0.0000000000000000
    Total Energy =                       -203.3993835259610705

  UHF NO Occupations:
  HONO-2 :    4 A1 1.9995590
  HONO-1 :    5 A1 1.9980437
  HONO-0 :    2 B1 1.0000000
  LUNO+0 :    6 A1 0.0019563
  LUNO+1 :    7 A1 0.0004410
  LUNO+2 :    3 B2 0.0000627
  LUNO+3 :    3 B1 0.0000175

Computation Completed

Properties will be evaluated at   0.000000,   0.000000,   0.000000 [a0]

Properties computed using the SCF density matrix

 Multipole Moments:

 ------------------------------------------------------------------------------------
     Multipole            Electronic (a.u.)      Nuclear  (a.u.)        Total (a.u.)
 ------------------------------------------------------------------------------------

 L = 1.  Multiply by 2.5417464519 to convert [e a0] to [Debye]
 Dipole X            :          0.0000000            0.0000000            0.0000000
 Dipole Y            :          0.0000000            0.0000000            0.0000000
 Dipole Z            :          0.5583935           -0.0008169            0.5575766
 Magnitude           :                                                    0.5575766

 ------------------------------------------------------------------------------------

*** tstop() called on Joses-MacBook-Pro-2.local at Thu Jul 17 14:04:49 2025
Module time:
	user time   =       3.02 seconds =       0.05 minutes
	system time =       4.25 seconds =       0.07 minutes
	total time  =          1 seconds =       0.02 minutes
Total time:
	user time   =      33.99 seconds =       0.57 minutes
	system time =      69.17 seconds =       1.15 minutes
	total time  =         11 seconds =       0.18 minutes

*** tstart() called on Joses-MacBook-Pro-2.local
*** at Thu Jul 17 14:04:49 2025

         ------------------------------------------------------------
                                   SCF GRAD
                          Rob Parrish, Justin Turney,
                       Andy Simmonett, and Alex Sokolov
         ------------------------------------------------------------

  ==> Geometry <==

    Molecular point group: c2v
    Full point group: C_inf_v

    Geometry (in Angstrom), charge = 1, multiplicity = 2:

       Center              X                  Y                   Z               Mass
    ------------   -----------------  -----------------  -----------------  -----------------
         O            0.000000000000     0.000000000000     0.897962536595    15.994914619570
         NE           0.000000000000     0.000000000000    -0.718413259103    19.992440176200

  Nuclear repulsion =   26.190801029233242

  ==> Basis Set <==

  Basis Set: CC-PVDZ
    Blend: CC-PVDZ
    Number of shells: 12
    Number of basis functions: 28
    Number of Cartesian functions: 30
    Spherical Harmonics?: true
    Max angular momentum: 2

  ==> DFJKGrad: Density-Fitted SCF Gradients <==

    Gradient:                    1
    J tasked:                  Yes
    K tasked:                  Yes
    wK tasked:                  No
    OpenMP threads:              1
    Integrals threads:           1
    Memory [MiB]:              375
    Schwarz Cutoff:          1E-12
    Fitting Condition:       1E-10

   => Auxiliary Basis Set <=

  Basis Set: (CC-PVDZ AUX)
    Blend: CC-PVDZ-JKFIT
    Number of shells: 48
    Number of basis functions: 140
    Number of Cartesian functions: 162
    Spherical Harmonics?: true
    Max angular momentum: 3

  ==> DFT Potential <==

   => LibXC <=

    Version 6.2.2
    S. Lehtola, C. Steigemann, M. J.T. Oliveira, and M. A.L. Marques.,  SoftwareX 7, 1â€“5 (2018) (10.1016/j.softx.2017.11.002)

   => Composite Functional: B3LYP <=

    B3LYP Hyb-GGA Exchange-Correlation Functional

    P. J. Stephens, F. J. Devlin, C. F. Chabalowski, and M. J. Frisch.,  J. Phys. Chem. 98, 11623 (1994) (10.1021/j100096a001)

    Deriv               =              1
    GGA                 =           TRUE
    Meta                =          FALSE

    Exchange Hybrid     =           TRUE
    MP2 Hybrid          =          FALSE

   => Exchange Functionals <=

    0.0800   Slater exchange
    0.7200         Becke 88

   => Exact (HF) Exchange <=

    0.2000               HF

   => Correlation Functionals <=

    0.1900   Vosko, Wilk & Nusair (VWN5_RPA)
    0.8100   Lee, Yang & Parr

   => LibXC Density Thresholds  <==

    XC_HYB_GGA_XC_B3LYP:  1.00E-15

   => Molecular Quadrature <=

    Radial Scheme          =       TREUTLER
    Pruning Scheme         =           NONE
    Nuclear Scheme         =       TREUTLER

    Blocking Scheme        =         OCTREE
    BS radius alpha        =              1
    Pruning alpha          =              1
    Radial Points          =             75
    Spherical Points       =            302
    Total Points           =          42298
    Total Blocks           =            371
    Max Points             =            253
    Max Functions          =             28
    Weights Tolerance      =       1.00E-15

  -Total Gradient:
     Atom            X                  Y                   Z
    ------   -----------------  -----------------  -----------------
       1        0.000000000000     0.000000000000    -0.000036351558
       2        0.000000000000     0.000000000000     0.000066302614

*** tstop() called on Joses-MacBook-Pro-2.local at Thu Jul 17 14:04:49 2025
Module time:
	user time   =       0.60 seconds =       0.01 minutes
	system time =       1.39 seconds =       0.02 minutes
	total time  =          0 seconds =       0.00 minutes
Total time:
	user time   =      34.59 seconds =       0.58 minutes
	system time =      70.57 seconds =       1.18 minutes
	total time  =         11 seconds =       0.18 minutes

    			-----------------------------------------

    			 OPTKING 3.0: for geometry optimizations

    			     By R.A. King, Bethel University

    			        with contributions from

    			    A.V. Copan, J. Cayton, A. Heide

    			-----------------------------------------

	                            ===> Fragment 1 <==

	 Z (Atomic Numbers)          Masses                          Geom
	       8.000000            15.994915          0.00000000  0.00000000  1.69690327
	      10.000000            19.992440          0.00000000  0.00000000 -1.35760430

	 - Coordinate -           - BOHR/RAD -       - ANG/DEG -
	 R(1,2)           =         3.054508           1.616376

	        --- Internal Coordinate Step in ANG or DEG, aJ/ANG or AJ/DEG ---
	-------------------------------------------------------------------------------
	           Coordinate      Previous         Force          Change          New
	           ----------      --------        ------          ------        ------
	               R(1,2)       1.61638        0.00042        0.00020       1.61658
	-------------------------------------------------------------------------------

	                                 ==> Convergence Check <==

	Measures of convergence in internal coordinates in au.

	Criteria marked as inactive (o), active & met (*), and active & unmet ( ).

	----------------------------------------------------------------------------------------------
	   Step    Total Energy     Delta E     Max Force     RMS Force      Max Disp      RMS Disp
	----------------------------------------------------------------------------------------------
	  Convergence Criteria     1.00e-06 *    3.00e-04 *             o    1.20e-03 *             o
	----------------------------------------------------------------------------------------------
	    10    -203.39938353   -4.66e-07 *    5.13e-05 *    5.13e-05 o    3.80e-04 *    3.80e-04 o  ~
	----------------------------------------------------------------------------------------------

Next Geometry in Ang
	Fragment 1 (Ang)

	    O   0.0000000000   0.0000000000   0.8980631908
	   Ne   0.0000000000   0.0000000000  -0.7185139133

    Final optimized geometry and variables:
    Molecular point group: c2v
    Full point group: C_inf_v

    Geometry (in Angstrom), charge = 1, multiplicity = 2:

    O            0.000000000000     0.000000000000     0.897962536595
    NE           0.000000000000     0.000000000000    -0.718413259103

    Psi4 stopped on: Thursday, 17 July 2025 02:04PM
    Psi4 wall time for execution: 0:00:11.59

*** Psi4 exiting successfully. Buy a developer a beer!
