                               Psi4 1.9.1 release

  ==> Input File <==

--------------------------------------------------------------------------
molecule {
1 2
Na   0.00000        0.60000        0.00000
Cl   0.00000       -0.60000        0.00000
}

set {
basis              cc-pvdz
reference          uks
maxiter            500
geom_maxiter       500
DAMPING_PERCENTAGE 1
guess              SAP
}

optimize('b3lyp')
--------------------------------------------------------------------------

    Molecular point group: c2v
  Charge       = 1
  Multiplicity = 2
  Basis Set: CC-PVDZ
    Blend: CC-PVDZ
  Basis Set: (CC-PVDZ AUX)
    Blend: CC-PVDZ-JKFIT + DEF2-UNIVERSAL-JKFIT
  @DF-UKS Final Energy:  -621.24381948376060
    Total Energy =                       -621.2438194837606034
 Dipole X            :          0.0000000            0.0000000            0.0000000
 Dipole Y            :          0.0000000            0.0000000            0.0000000
 Dipole Z            :          1.7301526           -0.2413546            1.4887979
 Magnitude           :                                                    1.4887979
    Molecular point group: c2v
  Basis Set: CC-PVDZ
    Blend: CC-PVDZ
  Basis Set: (CC-PVDZ AUX)
    Blend: CC-PVDZ-JKFIT + DEF2-UNIVERSAL-JKFIT
  Basis Set: CC-PVDZ
    Blend: CC-PVDZ
  Basis Set: (CC-PVDZ AUX)
    Blend: CC-PVDZ-JKFIT + DEF2-UNIVERSAL-JKFIT
  @DF-UKS Final Energy:  -621.25924153974029
    Total Energy =                       -621.2592415397402874
  Basis Set: CC-PVDZ
    Blend: CC-PVDZ
  Basis Set: (CC-PVDZ AUX)
    Blend: CC-PVDZ-JKFIT + DEF2-UNIVERSAL-JKFIT
  Basis Set: CC-PVDZ
    Blend: CC-PVDZ
  @DF-UKS Final Energy:  -621.28891413423321
    Total Energy =                       -621.2889141342332096
  @DF-UKS Final Energy:  -621.39554039574864
    Total Energy =                       -621.3955403957486396
  @DF-UKS Final Energy:  -621.83588273281418
    Total Energy =                       -621.8358827328142979
  @DF-UKS Final Energy:  -622.02384235292925
    Total Energy =                       -622.0238423529293641
  @DF-UKS Final Energy:  -622.13396786998669
    Total Energy =                       -622.1339678699865772
  @DF-UKS Final Energy:  -622.18900057935423
    Total Energy =                       -622.1890005793543423
  @DF-UKS Final Energy:  -622.21785092449375
    Total Energy =                       -622.2178509244936322
  @DF-UKS Final Energy:  -622.23311621192533
    Total Energy =                       -622.2331162119253349
  @DF-UKS Final Energy:  -622.24131368887038
    Total Energy =                       -622.2413136888702638
  @DF-UKS Final Energy:  -622.24565295053594
    Total Energy =                       -622.2456529505359413
  @DF-UKS Final Energy:  -622.24786265039938
    Total Energy =                       -622.2478626503993837
  @DF-UKS Final Energy:  -622.24892693277354
    Total Energy =                       -622.2489269327735428
  @DF-UKS Final Energy:  -622.24941622290874
    Total Energy =                       -622.2494162229088488
  @DF-UKS Final Energy:  -622.24961883974697
    Total Energy =                       -622.2496188397468586
  @DF-UKS Final Energy:  -622.24970324389483
    Total Energy =                       -622.2497032438947144
  @DF-UKS Final Energy:  -622.24972064768656
    Total Energy =                       -622.2497206476865586
  @DF-UKS Final Energy:  -622.24972840349278
    Total Energy =                       -622.2497284034927816
  Basis Set: (CC-PVDZ AUX)
    Blend: CC-PVDZ-JKFIT + DEF2-UNIVERSAL-JKFIT
  Basis Set: CC-PVDZ
    Blend: CC-PVDZ
  Basis Set: (CC-PVDZ AUX)
    Blend: CC-PVDZ-JKFIT + DEF2-UNIVERSAL-JKFIT
  @DF-UKS Final Energy:  -622.24973033363744
    Total Energy =                       -622.2497303336374443
  Basis Set: CC-PVDZ
    Blend: CC-PVDZ
  Basis Set: (CC-PVDZ AUX)
    Blend: CC-PVDZ-JKFIT + DEF2-UNIVERSAL-JKFIT
  Charge       = 1
  Multiplicity = 2
  Basis Set: CC-PVDZ
    Blend: CC-PVDZ
  Basis Set: (CC-PVDZ AUX)
    Blend: CC-PVDZ-JKFIT + DEF2-UNIVERSAL-JKFIT

    Orbital Energies [Eh]
    ---------------------

    Alpha Occupied:

       1A1  -101.744019     2A1   -38.773032     3A1    -9.658157
       4A1    -7.432167     1B2    -7.408156     1B1    -7.408156
       5A1    -2.510095     6A1    -1.441363     2B1    -1.441189
       2B2    -1.441189     7A1    -0.994933     8A1    -0.561228
       3B2    -0.498921     3B1    -0.498921

    Alpha Virtual:

       9A1    -0.256045     4B2    -0.150749     4B1    -0.150749
      10A1    -0.150010    11A1    -0.074299    12A1    -0.052330
       5B1    -0.048021     5B2    -0.048021     6B2     0.000846
       6B1     0.000846     1A2     0.010968    13A1     0.010968
      14A1     0.013948    15A1     0.407769     7B2     0.408584
       7B1     0.408584    16A1     0.505357     8B2     0.521216
       8B1     0.521216    17A1     0.561925     2A2     0.561994
      18A1     0.609981

    Beta Occupied:

       1A1  -101.737413     2A1   -38.773012     3A1    -9.651622
       4A1    -7.410649     1B2    -7.404231     1B1    -7.404231
       5A1    -2.510057     6A1    -1.441335     2B1    -1.441175
       2B2    -1.441175     7A1    -0.942185     3B2    -0.483203
       3B1    -0.483203

    Beta Virtual:

       8A1    -0.404169     9A1    -0.254135     4B2    -0.150893
       4B1    -0.150893    10A1    -0.146385    11A1    -0.073442
      12A1    -0.051121     5B1    -0.048422     5B2    -0.048422
       6B2     0.001820     6B1     0.001820     1A2     0.010359
      13A1     0.010361    14A1     0.018668     7B2     0.415440
       7B1     0.415440    15A1     0.449041    16A1     0.567851
      17A1     0.570158     2A2     0.570225     8B2     0.577367
       8B1     0.577367    18A1     0.642685

    Final Occupation by Irrep:
             A1    A2    B1    B2
    DOCC [     7,    0,    3,    3 ]
    SOCC [     1,    0,    0,    0 ]
    NA   [     8,    0,    3,    3 ]
    NB   [     7,    0,    3,    3 ]

  @DF-UKS Final Energy:  -622.24973075992534

   => Energetics <=

    Nuclear Repulsion Energy =             27.4890779913022776
    One-Electron Energy =                -912.1675988712015624
    Two-Electron Energy =                 296.6613393778882255
    DFT Exchange-Correlation Energy =     -34.2325492579141226
    Empirical Dispersion Energy =           0.0000000000000000
    VV10 Nonlocal Energy =                  0.0000000000000000
    Total Energy =                       -622.2497307599252281

  UHF NO Occupations:
  HONO-2 :    3 B1 1.9999670
  HONO-1 :    7 A1 1.9991485
  HONO-0 :    8 A1 1.0000000
  LUNO+0 :    9 A1 0.0008515
  LUNO+1 :    4 B2 0.0000330
  LUNO+2 :    4 B1 0.0000330
  LUNO+3 :   10 A1 0.0000001

Computation Completed

Properties will be evaluated at   0.000000,   0.000000,   0.000000 [a0]

Properties computed using the SCF density matrix

 Multipole Moments:

 ------------------------------------------------------------------------------------
     Multipole            Electronic (a.u.)      Nuclear  (a.u.)        Total (a.u.)
 ------------------------------------------------------------------------------------

 L = 1.  Multiply by 2.5417464519 to convert [e a0] to [Debye]
 Dipole X            :          0.0000000            0.0000000            0.0000000
 Dipole Y            :          0.0000000            0.0000000            0.0000000
 Dipole Z            :          4.5824364           -0.7240306            3.8584059
 Magnitude           :                                                    3.8584059

 ------------------------------------------------------------------------------------

*** tstop() called on Joses-MacBook-Pro-2.local at Thu Jul 17 15:00:18 2025
Module time:
	user time   =       6.82 seconds =       0.11 minutes
	system time =       2.09 seconds =       0.03 minutes
	total time  =          1 seconds =       0.02 minutes
Total time:
	user time   =     235.23 seconds =       3.92 minutes
	system time =      72.71 seconds =       1.21 minutes
	total time  =         29 seconds =       0.48 minutes

*** tstart() called on Joses-MacBook-Pro-2.local
*** at Thu Jul 17 15:00:18 2025

         ------------------------------------------------------------
                                   SCF GRAD
                          Rob Parrish, Justin Turney,
                       Andy Simmonett, and Alex Sokolov
         ------------------------------------------------------------

  ==> Geometry <==

    Molecular point group: c2v
    Full point group: C_inf_v

    Geometry (in Angstrom), charge = 1, multiplicity = 2:

       Center              X                  Y                   Z               Mass
    ------------   -----------------  -----------------  -----------------  -----------------
         NA           0.000000000000     0.000000000000     2.171930370959    22.989769282000
         CL           0.000000000000     0.000000000000    -1.427904386198    34.968852682000

  Nuclear repulsion =   27.489077991302278

  ==> Basis Set <==

  Basis Set: CC-PVDZ
    Blend: CC-PVDZ
    Number of shells: 16
    Number of basis functions: 36
    Number of Cartesian functions: 38
    Spherical Harmonics?: true
    Max angular momentum: 2

  ==> DFJKGrad: Density-Fitted SCF Gradients <==

    Gradient:                    1
    J tasked:                  Yes
    K tasked:                  Yes
    wK tasked:                  No
    OpenMP threads:              1
    Integrals threads:           1
    Memory [MiB]:              375
    Schwarz Cutoff:          1E-12
    Fitting Condition:       1E-10

   => Auxiliary Basis Set <=

  Basis Set: (CC-PVDZ AUX)
    Blend: CC-PVDZ-JKFIT + DEF2-UNIVERSAL-JKFIT
    Number of shells: 70
    Number of basis functions: 224
    Number of Cartesian functions: 267
    Spherical Harmonics?: true
    Max angular momentum: 4

  ==> DFT Potential <==

   => LibXC <=

    Version 6.2.2
    S. Lehtola, C. Steigemann, M. J.T. Oliveira, and M. A.L. Marques.,  SoftwareX 7, 1â€“5 (2018) (10.1016/j.softx.2017.11.002)

   => Composite Functional: B3LYP <=

    B3LYP Hyb-GGA Exchange-Correlation Functional

    P. J. Stephens, F. J. Devlin, C. F. Chabalowski, and M. J. Frisch.,  J. Phys. Chem. 98, 11623 (1994) (10.1021/j100096a001)

    Deriv               =              1
    GGA                 =           TRUE
    Meta                =          FALSE

    Exchange Hybrid     =           TRUE
    MP2 Hybrid          =          FALSE

   => Exchange Functionals <=

    0.0800   Slater exchange
    0.7200         Becke 88

   => Exact (HF) Exchange <=

    0.2000               HF

   => Correlation Functionals <=

    0.1900   Vosko, Wilk & Nusair (VWN5_RPA)
    0.8100   Lee, Yang & Parr

   => LibXC Density Thresholds  <==

    XC_HYB_GGA_XC_B3LYP:  1.00E-15

   => Molecular Quadrature <=

    Radial Scheme          =       TREUTLER
    Pruning Scheme         =           NONE
    Nuclear Scheme         =       TREUTLER

    Blocking Scheme        =         OCTREE
    BS radius alpha        =              1
    Pruning alpha          =              1
    Radial Points          =             75
    Spherical Points       =            302
    Total Points           =          43892
    Total Blocks           =            453
    Max Points             =            256
    Max Functions          =             36
    Weights Tolerance      =       1.00E-15

  -Total Gradient:
     Atom            X                  Y                   Z
    ------   -----------------  -----------------  -----------------
       1        0.000000000000     0.000000000000     0.000003477379
       2        0.000000000000     0.000000000000     0.000019134610

*** tstop() called on Joses-MacBook-Pro-2.local at Thu Jul 17 15:00:19 2025
Module time:
	user time   =       2.17 seconds =       0.04 minutes
	system time =       1.70 seconds =       0.03 minutes
	total time  =          1 seconds =       0.02 minutes
Total time:
	user time   =     237.41 seconds =       3.96 minutes
	system time =      74.41 seconds =       1.24 minutes
	total time  =         30 seconds =       0.50 minutes

    			-----------------------------------------

    			 OPTKING 3.0: for geometry optimizations

    			     By R.A. King, Bethel University

    			        with contributions from

    			    A.V. Copan, J. Cayton, A. Heide

    			-----------------------------------------

	                            ===> Fragment 1 <==

	 Z (Atomic Numbers)          Masses                          Geom
	      11.000000            22.989769          0.00000000  0.00000000  4.10435356
	      17.000000            34.968853          0.00000000  0.00000000 -2.69834822

	 - Coordinate -           - BOHR/RAD -       - ANG/DEG -
	 R(1,2)           =         6.802702           3.599835

	        --- Internal Coordinate Step in ANG or DEG, aJ/ANG or AJ/DEG ---
	-------------------------------------------------------------------------------
	           Coordinate      Previous         Force          Change          New
	           ----------      --------        ------          ------        ------
	               R(1,2)       3.59983        0.00006        0.00598       3.60582
	-------------------------------------------------------------------------------

	                                 ==> Convergence Check <==

	Measures of convergence in internal coordinates in au.

	Criteria marked as inactive (o), active & met (*), and active & unmet ( ).

	----------------------------------------------------------------------------------------------
	   Step    Total Energy     Delta E     Max Force     RMS Force      Max Disp      RMS Disp
	----------------------------------------------------------------------------------------------
	  Convergence Criteria     1.00e-06 *    3.00e-04 *             o    1.20e-03 *             o
	----------------------------------------------------------------------------------------------
	    21    -622.24973076   -4.26e-07 *    7.83e-06 *    7.83e-06 o    1.13e-02      1.13e-02 o  ~
	----------------------------------------------------------------------------------------------

Next Geometry in Ang
	Fragment 1 (Ang)

	   Na   0.0000000000   0.0000000000   2.1749225078
	   Cl   0.0000000000   0.0000000000  -1.4308965230

    Final optimized geometry and variables:
    Molecular point group: c2v
    Full point group: C_inf_v

    Geometry (in Angstrom), charge = 1, multiplicity = 2:

    NA           0.000000000000     0.000000000000     2.171930370959
    CL           0.000000000000     0.000000000000    -1.427904386198

    Psi4 stopped on: Thursday, 17 July 2025 03:00PM
    Psi4 wall time for execution: 0:00:30.13

*** Psi4 exiting successfully. Buy a developer a beer!
