                               Psi4 1.9.1 release

  ==> Input File <==

--------------------------------------------------------------------------
molecule {
1 2
Li   0.00000        0.60000        0.00000
Al   0.00000       -0.60000        0.00000
}

set {
basis              cc-pvdz
reference          uks
maxiter            500
geom_maxiter       500
DAMPING_PERCENTAGE 1
guess              SAP
}

optimize('b3lyp')
--------------------------------------------------------------------------

    Molecular point group: c2v
  Charge       = 1
  Multiplicity = 2
  Basis Set: CC-PVDZ
    Blend: CC-PVDZ
  Basis Set: (CC-PVDZ AUX)
    Blend: CC-PVDZ-JKFIT + DEF2-UNIVERSAL-JKFIT
  @DF-UKS Final Energy:  -249.25714134901460
    Total Energy =                       -249.2571413490146028
 Dipole X            :          0.0000000            0.0000000            0.0000000
 Dipole Y            :          0.0000000            0.0000000            0.0000000
 Dipole Z            :          1.4728521           -0.6845814            0.7882707
 Magnitude           :                                                    0.7882707
    Molecular point group: c2v
  Basis Set: CC-PVDZ
    Blend: CC-PVDZ
  Basis Set: (CC-PVDZ AUX)
    Blend: CC-PVDZ-JKFIT + DEF2-UNIVERSAL-JKFIT
  Basis Set: CC-PVDZ
    Blend: CC-PVDZ
  Basis Set: (CC-PVDZ AUX)
    Blend: CC-PVDZ-JKFIT + DEF2-UNIVERSAL-JKFIT
  @DF-UKS Final Energy:  -249.33346375681595
    Total Energy =                       -249.3334637568159451
  Basis Set: CC-PVDZ
    Blend: CC-PVDZ
  Basis Set: (CC-PVDZ AUX)
    Blend: CC-PVDZ-JKFIT + DEF2-UNIVERSAL-JKFIT
  Basis Set: CC-PVDZ
    Blend: CC-PVDZ
  @DF-UKS Final Energy:  -249.42764173393829
    Total Energy =                       -249.4276417339382874
  @DF-UKS Final Energy:  -249.55134821000945
    Total Energy =                       -249.5513482100094507
  @DF-UKS Final Energy:  -249.61921543472738
    Total Energy =                       -249.6192154347273799
  @DF-UKS Final Energy:  -249.65201621442861
    Total Energy =                       -249.6520162144286132
  @DF-UKS Final Energy:  -249.66732692433374
    Total Energy =                       -249.6673269243337359
  @DF-UKS Final Energy:  -249.67414553582145
    Total Energy =                       -249.6741455358214239
  @DF-UKS Final Energy:  -249.67685755956509
    Total Energy =                       -249.6768575595650930
  @DF-UKS Final Energy:  -249.67771689994575
    Total Energy =                       -249.6777168999457501
  @DF-UKS Final Energy:  -249.67789547824879
    Total Energy =                       -249.6778954782487858
  @DF-UKS Final Energy:  -249.67791123166867
    Total Energy =                       -249.6779112316686735
  Basis Set: (CC-PVDZ AUX)
    Blend: CC-PVDZ-JKFIT + DEF2-UNIVERSAL-JKFIT
  Basis Set: CC-PVDZ
    Blend: CC-PVDZ
  Basis Set: (CC-PVDZ AUX)
    Blend: CC-PVDZ-JKFIT + DEF2-UNIVERSAL-JKFIT
  @DF-UKS Final Energy:  -249.67791271018567
    Total Energy =                       -249.6779127101856659
  Basis Set: CC-PVDZ
    Blend: CC-PVDZ
  Basis Set: (CC-PVDZ AUX)
    Blend: CC-PVDZ-JKFIT + DEF2-UNIVERSAL-JKFIT
  Charge       = 1
  Multiplicity = 2
  Basis Set: CC-PVDZ
    Blend: CC-PVDZ
  Basis Set: (CC-PVDZ AUX)
    Blend: CC-PVDZ-JKFIT + DEF2-UNIVERSAL-JKFIT

    Orbital Energies [Eh]
    ---------------------

    Alpha Occupied:

       1A1   -56.270894     2A1    -4.349040     1B2    -2.902619
       3A1    -2.902532     1B1    -2.899554     4A1    -2.300405
       5A1    -0.514043     2B1    -0.312189

    Alpha Virtual:

       6A1    -0.293998     2B2    -0.254398     7A1    -0.205523
       3B1    -0.172434     3B2    -0.157731     8A1    -0.106345
       4B1    -0.065317     9A1    -0.061998     4B2    -0.060961
      10A1    -0.042636     5B1     0.030248    11A1     0.032755
       1A2     0.036317     5B2     0.042666    12A1     0.042774
       6B1     0.074809     6B2     0.083360    13A1     0.111089
       2A2     0.112460    14A1     0.118394    15A1     0.210323
       7B1     0.223569     7B2     0.234650    16A1     0.372425

    Beta Occupied:

       1A1   -56.268878     2A1    -4.346578     1B2    -2.901450
       3A1    -2.901380     1B1    -2.891708     4A1    -2.300252
       5A1    -0.489877

    Beta Virtual:

       6A1    -0.287345     2B2    -0.249477     2B1    -0.229186
       7A1    -0.205470     3B2    -0.158993     3B1    -0.153780
       8A1    -0.103856     4B2    -0.061368     4B1    -0.059903
       9A1    -0.057508    10A1    -0.040023    11A1     0.033862
       5B2     0.040651     5B1     0.049321     1A2     0.051631
      12A1     0.053250     6B2     0.085085     6B1     0.100513
      13A1     0.117736     2A2     0.138122    14A1     0.140336
      15A1     0.213408     7B2     0.233330     7B1     0.244937
      16A1     0.377217

    Final Occupation by Irrep:
             A1    A2    B1    B2
    DOCC [     5,    0,    1,    1 ]
    SOCC [     0,    0,    1,    0 ]
    NA   [     5,    0,    2,    1 ]
    NB   [     5,    0,    1,    1 ]

  @DF-UKS Final Energy:  -249.67791284580841

   => Energetics <=

    Nuclear Repulsion Energy =              7.2799359501237166
    One-Electron Energy =                -357.6944140748098562
    Two-Electron Energy =                 117.0724852268362639
    DFT Exchange-Correlation Energy =     -16.3359199479585264
    Empirical Dispersion Energy =           0.0000000000000000
    VV10 Nonlocal Energy =                  0.0000000000000000
    Total Energy =                       -249.6779128458084074

  UHF NO Occupations:
  HONO-2 :    4 A1 2.0000000
  HONO-1 :    5 A1 1.9979195
  HONO-0 :    2 B1 1.0000000
  LUNO+0 :    6 A1 0.0020805
  LUNO+1 :    7 A1 0.0000000
  LUNO+2 :    3 B1 0.0000000
  LUNO+3 :    8 A1 0.0000000

Computation Completed

Properties will be evaluated at   0.000000,   0.000000,   0.000000 [a0]

Properties computed using the SCF density matrix

 Multipole Moments:

 ------------------------------------------------------------------------------------
     Multipole            Electronic (a.u.)      Nuclear  (a.u.)        Total (a.u.)
 ------------------------------------------------------------------------------------

 L = 1.  Multiply by 2.5417464519 to convert [e a0] to [Debye]
 Dipole X            :          0.0000000            0.0000000            0.0000000
 Dipole Y            :          0.0000000            0.0000000            0.0000000
 Dipole Z            :          4.2492557           -1.6172681            2.6319876
 Magnitude           :                                                    2.6319876

 ------------------------------------------------------------------------------------

*** tstop() called on Joses-MacBook-Pro-2.local at Thu Jul 17 12:53:04 2025
Module time:
	user time   =       3.58 seconds =       0.06 minutes
	system time =       2.63 seconds =       0.04 minutes
	total time  =          0 seconds =       0.00 minutes
Total time:
	user time   =      79.15 seconds =       1.32 minutes
	system time =      69.74 seconds =       1.16 minutes
	total time  =         15 seconds =       0.25 minutes

*** tstart() called on Joses-MacBook-Pro-2.local
*** at Thu Jul 17 12:53:04 2025

         ------------------------------------------------------------
                                   SCF GRAD
                          Rob Parrish, Justin Turney,
                       Andy Simmonett, and Alex Sokolov
         ------------------------------------------------------------

  ==> Geometry <==

    Molecular point group: c2v
    Full point group: C_inf_v

    Geometry (in Angstrom), charge = 1, multiplicity = 2:

       Center              X                  Y                   Z               Mass
    ------------   -----------------  -----------------  -----------------  -----------------
         LI           0.000000000000     0.000000000000     2.249869732104     7.016003436600
         AL           0.000000000000     0.000000000000    -0.585033123845    26.981538530000

  Nuclear repulsion =    7.279935950123717

  ==> Basis Set <==

  Basis Set: CC-PVDZ
    Blend: CC-PVDZ
    Number of shells: 14
    Number of basis functions: 32
    Number of Cartesian functions: 34
    Spherical Harmonics?: true
    Max angular momentum: 2

  ==> DFJKGrad: Density-Fitted SCF Gradients <==

    Gradient:                    1
    J tasked:                  Yes
    K tasked:                  Yes
    wK tasked:                  No
    OpenMP threads:              1
    Integrals threads:           1
    Memory [MiB]:              375
    Schwarz Cutoff:          1E-12
    Fitting Condition:       1E-10

   => Auxiliary Basis Set <=

  Basis Set: (CC-PVDZ AUX)
    Blend: CC-PVDZ-JKFIT + DEF2-UNIVERSAL-JKFIT
    Number of shells: 53
    Number of basis functions: 163
    Number of Cartesian functions: 190
    Spherical Harmonics?: true
    Max angular momentum: 3

  ==> DFT Potential <==

   => LibXC <=

    Version 6.2.2
    S. Lehtola, C. Steigemann, M. J.T. Oliveira, and M. A.L. Marques.,  SoftwareX 7, 1â€“5 (2018) (10.1016/j.softx.2017.11.002)

   => Composite Functional: B3LYP <=

    B3LYP Hyb-GGA Exchange-Correlation Functional

    P. J. Stephens, F. J. Devlin, C. F. Chabalowski, and M. J. Frisch.,  J. Phys. Chem. 98, 11623 (1994) (10.1021/j100096a001)

    Deriv               =              1
    GGA                 =           TRUE
    Meta                =          FALSE

    Exchange Hybrid     =           TRUE
    MP2 Hybrid          =          FALSE

   => Exchange Functionals <=

    0.0800   Slater exchange
    0.7200         Becke 88

   => Exact (HF) Exchange <=

    0.2000               HF

   => Correlation Functionals <=

    0.1900   Vosko, Wilk & Nusair (VWN5_RPA)
    0.8100   Lee, Yang & Parr

   => LibXC Density Thresholds  <==

    XC_HYB_GGA_XC_B3LYP:  1.00E-15

   => Molecular Quadrature <=

    Radial Scheme          =       TREUTLER
    Pruning Scheme         =           NONE
    Nuclear Scheme         =       TREUTLER

    Blocking Scheme        =         OCTREE
    BS radius alpha        =              1
    Pruning alpha          =              1
    Radial Points          =             75
    Spherical Points       =            302
    Total Points           =          44332
    Total Blocks           =            454
    Max Points             =            255
    Max Functions          =             32
    Weights Tolerance      =       1.00E-15

  -Total Gradient:
     Atom            X                  Y                   Z
    ------   -----------------  -----------------  -----------------
       1        0.000000000000     0.000000000000    -0.000015025161
       2       -0.000000000000     0.000000000000     0.000022316477

*** tstop() called on Joses-MacBook-Pro-2.local at Thu Jul 17 12:53:05 2025
Module time:
	user time   =       1.28 seconds =       0.02 minutes
	system time =       1.23 seconds =       0.02 minutes
	total time  =          1 seconds =       0.02 minutes
Total time:
	user time   =      80.43 seconds =       1.34 minutes
	system time =      70.99 seconds =       1.18 minutes
	total time  =         16 seconds =       0.27 minutes

    			-----------------------------------------

    			 OPTKING 3.0: for geometry optimizations

    			     By R.A. King, Bethel University

    			        with contributions from

    			    A.V. Copan, J. Cayton, A. Heide

    			-----------------------------------------

	                            ===> Fragment 1 <==

	 Z (Atomic Numbers)          Masses                          Geom
	       3.000000             7.016003          0.00000000  0.00000000  4.25163761
	      13.000000            26.981539          0.00000000  0.00000000 -1.10555238

	 - Coordinate -           - BOHR/RAD -       - ANG/DEG -
	 R(1,2)           =         5.357190           2.834903

	        --- Internal Coordinate Step in ANG or DEG, aJ/ANG or AJ/DEG ---
	-------------------------------------------------------------------------------
	           Coordinate      Previous         Force          Change          New
	           ----------      --------        ------          ------        ------
	               R(1,2)       2.83490        0.00015        0.00083       2.83573
	-------------------------------------------------------------------------------

	                                 ==> Convergence Check <==

	Measures of convergence in internal coordinates in au.

	Criteria marked as inactive (o), active & met (*), and active & unmet ( ).

	----------------------------------------------------------------------------------------------
	   Step    Total Energy     Delta E     Max Force     RMS Force      Max Disp      RMS Disp
	----------------------------------------------------------------------------------------------
	  Convergence Criteria     1.00e-06 *    3.00e-04 *             o    1.20e-03 *             o
	----------------------------------------------------------------------------------------------
	    14    -249.67791285   -1.36e-07 *    1.87e-05 *    1.87e-05 o    1.57e-03      1.57e-03 o  ~
	----------------------------------------------------------------------------------------------

Next Geometry in Ang
	Fragment 1 (Ang)

	   Li   0.0000000000   0.0000000000   2.2502855228
	   Al   0.0000000000   0.0000000000  -0.5854489145

    Final optimized geometry and variables:
    Molecular point group: c2v
    Full point group: C_inf_v

    Geometry (in Angstrom), charge = 1, multiplicity = 2:

    LI           0.000000000000     0.000000000000     2.249869732104
    AL           0.000000000000     0.000000000000    -0.585033123845

    Psi4 stopped on: Thursday, 17 July 2025 12:53PM
    Psi4 wall time for execution: 0:00:16.59

*** Psi4 exiting successfully. Buy a developer a beer!
