                               Psi4 1.9.1 release

  ==> Input File <==

--------------------------------------------------------------------------
molecule {
1 2
N   0.00000        0.60000        0.00000
P   0.00000       -0.60000        0.00000
}

set {
basis              cc-pvdz
reference          uks
maxiter            500
geom_maxiter       500
DAMPING_PERCENTAGE 1
guess              SAP
}

optimize('b3lyp')
--------------------------------------------------------------------------

    Molecular point group: c2v
  Charge       = 1
  Multiplicity = 2
  Basis Set: CC-PVDZ
    Blend: CC-PVDZ
  Basis Set: (CC-PVDZ AUX)
    Blend: CC-PVDZ-JKFIT
  @DF-UKS Final Energy:  -395.45863787554646
    Total Energy =                       -395.4586378755464011
 Dipole X            :          0.0000000            0.0000000            0.0000000
 Dipole Y            :          0.0000000            0.0000000            0.0000000
 Dipole Z            :         -0.8983785            0.3413456           -0.5570330
 Magnitude           :                                                    0.5570330
    Molecular point group: c2v
  Basis Set: CC-PVDZ
    Blend: CC-PVDZ
  Basis Set: (CC-PVDZ AUX)
    Blend: CC-PVDZ-JKFIT
  Basis Set: CC-PVDZ
    Blend: CC-PVDZ
  Basis Set: (CC-PVDZ AUX)
    Blend: CC-PVDZ-JKFIT
  @DF-UKS Final Energy:  -395.58742585722933
    Total Energy =                       -395.5874258572293343
  Basis Set: CC-PVDZ
    Blend: CC-PVDZ
  Basis Set: (CC-PVDZ AUX)
    Blend: CC-PVDZ-JKFIT
  Basis Set: CC-PVDZ
    Blend: CC-PVDZ
  @DF-UKS Final Energy:  -395.63330111894561
    Total Energy =                       -395.6333011189456101
  @DF-UKS Final Energy:  -395.64366762149223
    Total Energy =                       -395.6436676214922272
  @DF-UKS Final Energy:  -395.64651632245955
    Total Energy =                       -395.6465163224595472
  @DF-UKS Final Energy:  -395.64760071876498
    Total Energy =                       -395.6476007187649770
  @DF-UKS Final Energy:  -395.64778542934465
    Total Energy =                       -395.6477854293447081
  Basis Set: (CC-PVDZ AUX)
    Blend: CC-PVDZ-JKFIT
  Basis Set: CC-PVDZ
    Blend: CC-PVDZ
  Basis Set: (CC-PVDZ AUX)
    Blend: CC-PVDZ-JKFIT
  @DF-UKS Final Energy:  -395.64782375263587
    Total Energy =                       -395.6478237526358157
  Basis Set: CC-PVDZ
    Blend: CC-PVDZ
  Basis Set: (CC-PVDZ AUX)
    Blend: CC-PVDZ-JKFIT
  Charge       = 1
  Multiplicity = 2
  Basis Set: CC-PVDZ
    Blend: CC-PVDZ
  Basis Set: (CC-PVDZ AUX)
    Blend: CC-PVDZ-JKFIT

    Orbital Energies [Eh]
    ---------------------

    Alpha Occupied:

       1A1   -77.515884     2A1   -14.752119     3A1    -6.977912
       4A1    -5.142240     1B1    -5.137098     1B2    -5.137098
       5A1    -1.218655     6A1    -0.851789     7A1    -0.708277
       2B1    -0.670369     2B2    -0.670369

    Alpha Virtual:

       3B1    -0.400395     3B2    -0.400395     8A1    -0.208218
       9A1     0.067296     4B1     0.124087     4B2     0.124087
       1A2     0.144426    10A1     0.144426    11A1     0.158918
       5B1     0.225424     5B2     0.225424    12A1     0.334400
       6B2     0.479267     6B1     0.479267    13A1     0.715390
      14A1     0.912060     2A2     1.430845    15A1     1.430848
       7B2     1.629893     7B1     1.629893    16A1     2.114187

    Beta Occupied:

       1A1   -77.515213     2A1   -14.729793     3A1    -6.977324
       1B1    -5.138536     1B2    -5.138536     4A1    -5.135959
       5A1    -1.174361     6A1    -0.792848     2B1    -0.648380
       2B2    -0.648380

    Beta Virtual:

       7A1    -0.541839     3B1    -0.385420     3B2    -0.385420
       8A1    -0.191454     9A1     0.074181     4B1     0.121578
       4B2     0.121578     1A2     0.133565    10A1     0.133565
      11A1     0.187323     5B1     0.243860     5B2     0.243860
      12A1     0.371721     6B2     0.500140     6B1     0.500140
      13A1     0.763110    14A1     0.946520     2A2     1.460758
      15A1     1.460761     7B2     1.692127     7B1     1.692127
      16A1     2.180338

    Final Occupation by Irrep:
             A1    A2    B1    B2
    DOCC [     6,    0,    2,    2 ]
    SOCC [     1,    0,    0,    0 ]
    NA   [     7,    0,    2,    2 ]
    NB   [     6,    0,    2,    2 ]

  @DF-UKS Final Energy:  -395.64782648351877

   => Energetics <=

    Nuclear Repulsion Energy =             37.1081975087923936
    One-Electron Energy =                -611.7256062186090730
    Two-Electron Energy =                 202.9362607246646633
    DFT Exchange-Correlation Energy =     -23.9666784983667576
    Empirical Dispersion Energy =           0.0000000000000000
    VV10 Nonlocal Energy =                  0.0000000000000000
    Total Energy =                       -395.6478264835188270

  UHF NO Occupations:
  HONO-2 :    2 B2 1.9925238
  HONO-1 :    2 B1 1.9925238
  HONO-0 :    7 A1 1.0000000
  LUNO+0 :    3 B2 0.0074762
  LUNO+1 :    3 B1 0.0074762
  LUNO+2 :    8 A1 0.0018999
  LUNO+3 :    9 A1 0.0002387

Computation Completed

Properties will be evaluated at   0.000000,   0.000000,   0.000000 [a0]

Properties computed using the SCF density matrix

 Multipole Moments:

 ------------------------------------------------------------------------------------
     Multipole            Electronic (a.u.)      Nuclear  (a.u.)        Total (a.u.)
 ------------------------------------------------------------------------------------

 L = 1.  Multiply by 2.5417464519 to convert [e a0] to [Debye]
 Dipole X            :          0.0000000            0.0000000            0.0000000
 Dipole Y            :          0.0000000            0.0000000            0.0000000
 Dipole Z            :         -1.1905396            0.4259254           -0.7646142
 Magnitude           :                                                    0.7646142

 ------------------------------------------------------------------------------------

*** tstop() called on Joses-MacBook-Pro-2.local at Thu Jul 17 13:56:16 2025
Module time:
	user time   =       2.23 seconds =       0.04 minutes
	system time =       6.35 seconds =       0.11 minutes
	total time  =          0 seconds =       0.00 minutes
Total time:
	user time   =      34.30 seconds =       0.57 minutes
	system time =      79.23 seconds =       1.32 minutes
	total time  =         11 seconds =       0.18 minutes

*** tstart() called on Joses-MacBook-Pro-2.local
*** at Thu Jul 17 13:56:16 2025

         ------------------------------------------------------------
                                   SCF GRAD
                          Rob Parrish, Justin Turney,
                       Andy Simmonett, and Alex Sokolov
         ------------------------------------------------------------

  ==> Geometry <==

    Molecular point group: c2v
    Full point group: C_inf_v

    Geometry (in Angstrom), charge = 1, multiplicity = 2:

       Center              X                  Y                   Z               Mass
    ------------   -----------------  -----------------  -----------------  -----------------
         N            0.000000000000     0.000000000000     1.031158980707    14.003074004430
         P            0.000000000000     0.000000000000    -0.466181522216    30.973761998420

  Nuclear repulsion =   37.108197508792394

  ==> Basis Set <==

  Basis Set: CC-PVDZ
    Blend: CC-PVDZ
    Number of shells: 14
    Number of basis functions: 32
    Number of Cartesian functions: 34
    Spherical Harmonics?: true
    Max angular momentum: 2

  ==> DFJKGrad: Density-Fitted SCF Gradients <==

    Gradient:                    1
    J tasked:                  Yes
    K tasked:                  Yes
    wK tasked:                  No
    OpenMP threads:              1
    Integrals threads:           1
    Memory [MiB]:              375
    Schwarz Cutoff:          1E-12
    Fitting Condition:       1E-10

   => Auxiliary Basis Set <=

  Basis Set: (CC-PVDZ AUX)
    Blend: CC-PVDZ-JKFIT
    Number of shells: 60
    Number of basis functions: 182
    Number of Cartesian functions: 211
    Spherical Harmonics?: true
    Max angular momentum: 3

  ==> DFT Potential <==

   => LibXC <=

    Version 6.2.2
    S. Lehtola, C. Steigemann, M. J.T. Oliveira, and M. A.L. Marques.,  SoftwareX 7, 1â€“5 (2018) (10.1016/j.softx.2017.11.002)

   => Composite Functional: B3LYP <=

    B3LYP Hyb-GGA Exchange-Correlation Functional

    P. J. Stephens, F. J. Devlin, C. F. Chabalowski, and M. J. Frisch.,  J. Phys. Chem. 98, 11623 (1994) (10.1021/j100096a001)

    Deriv               =              1
    GGA                 =           TRUE
    Meta                =          FALSE

    Exchange Hybrid     =           TRUE
    MP2 Hybrid          =          FALSE

   => Exchange Functionals <=

    0.0800   Slater exchange
    0.7200         Becke 88

   => Exact (HF) Exchange <=

    0.2000               HF

   => Correlation Functionals <=

    0.1900   Vosko, Wilk & Nusair (VWN5_RPA)
    0.8100   Lee, Yang & Parr

   => LibXC Density Thresholds  <==

    XC_HYB_GGA_XC_B3LYP:  1.00E-15

   => Molecular Quadrature <=

    Radial Scheme          =       TREUTLER
    Pruning Scheme         =           NONE
    Nuclear Scheme         =       TREUTLER

    Blocking Scheme        =         OCTREE
    BS radius alpha        =              1
    Pruning alpha          =              1
    Radial Points          =             75
    Spherical Points       =            302
    Total Points           =          42135
    Total Blocks           =            377
    Max Points             =            253
    Max Functions          =             32
    Weights Tolerance      =       1.00E-15

  -Total Gradient:
     Atom            X                  Y                   Z
    ------   -----------------  -----------------  -----------------
       1        0.000000000000     0.000000000000    -0.000307686005
       2        0.000000000000     0.000000000000     0.000289662827

*** tstop() called on Joses-MacBook-Pro-2.local at Thu Jul 17 13:56:17 2025
Module time:
	user time   =       0.74 seconds =       0.01 minutes
	system time =       2.25 seconds =       0.04 minutes
	total time  =          1 seconds =       0.02 minutes
Total time:
	user time   =      35.04 seconds =       0.58 minutes
	system time =      81.48 seconds =       1.36 minutes
	total time  =         12 seconds =       0.20 minutes

    			-----------------------------------------

    			 OPTKING 3.0: for geometry optimizations

    			     By R.A. King, Bethel University

    			        with contributions from

    			    A.V. Copan, J. Cayton, A. Heide

    			-----------------------------------------

	                            ===> Fragment 1 <==

	 Z (Atomic Numbers)          Masses                          Geom
	       7.000000            14.003074          0.00000000  0.00000000  1.94860807
	      15.000000            30.973762          0.00000000  0.00000000 -0.88095540

	 - Coordinate -           - BOHR/RAD -       - ANG/DEG -
	 R(1,2)           =         2.829563           1.497341

	        --- Internal Coordinate Step in ANG or DEG, aJ/ANG or AJ/DEG ---
	-------------------------------------------------------------------------------
	           Coordinate      Previous         Force          Change          New
	           ----------      --------        ------          ------        ------
	               R(1,2)       1.49734        0.00246        0.00022       1.49756
	-------------------------------------------------------------------------------

	                                 ==> Convergence Check <==

	Measures of convergence in internal coordinates in au.

	Criteria marked as inactive (o), active & met (*), and active & unmet ( ).

	----------------------------------------------------------------------------------------------
	   Step    Total Energy     Delta E     Max Force     RMS Force      Max Disp      RMS Disp
	----------------------------------------------------------------------------------------------
	  Convergence Criteria     1.00e-06 *    3.00e-04 *             o    1.20e-03 *             o
	----------------------------------------------------------------------------------------------
	     9    -395.64782648   -2.73e-06      2.99e-04 *    2.99e-04 o    4.22e-04 *    4.22e-04 o  ~
	----------------------------------------------------------------------------------------------

Next Geometry in Ang
	Fragment 1 (Ang)

	    N   0.0000000000   0.0000000000   1.0312706065
	    P   0.0000000000   0.0000000000  -0.4662931480

    Final optimized geometry and variables:
    Molecular point group: c2v
    Full point group: C_inf_v

    Geometry (in Angstrom), charge = 1, multiplicity = 2:

    N            0.000000000000     0.000000000000     1.031158980707
    P            0.000000000000     0.000000000000    -0.466181522216

    Psi4 stopped on: Thursday, 17 July 2025 01:56PM
    Psi4 wall time for execution: 0:00:12.83

*** Psi4 exiting successfully. Buy a developer a beer!
