                               Psi4 1.9.1 release

  ==> Input File <==

--------------------------------------------------------------------------
molecule {
1 2
Al   0.00000        0.60000        0.00000
Cl   0.00000       -0.60000        0.00000
}

set {
basis              cc-pvdz
reference          uks
maxiter            500
geom_maxiter       500
DAMPING_PERCENTAGE 1
guess              SAP
}

optimize('b3lyp')
--------------------------------------------------------------------------

    Molecular point group: c2v
  Charge       = 1
  Multiplicity = 2
  Basis Set: CC-PVDZ
    Blend: CC-PVDZ
  Basis Set: (CC-PVDZ AUX)
    Blend: CC-PVDZ-JKFIT
  @DF-UKS Final Energy:  -701.21729496638693
    Total Energy =                       -701.2172949663868167
 Dipole X            :          0.0000000            0.0000000            0.0000000
 Dipole Y            :          0.0000000            0.0000000            0.0000000
 Dipole Z            :          0.8567858           -0.1497521            0.7070337
 Magnitude           :                                                    0.7070337
    Molecular point group: c2v
  Basis Set: CC-PVDZ
    Blend: CC-PVDZ
  Basis Set: (CC-PVDZ AUX)
    Blend: CC-PVDZ-JKFIT
  Basis Set: CC-PVDZ
    Blend: CC-PVDZ
  Basis Set: (CC-PVDZ AUX)
    Blend: CC-PVDZ-JKFIT
  @DF-UKS Final Energy:  -701.24869578428900
    Total Energy =                       -701.2486957842889979
  Basis Set: CC-PVDZ
    Blend: CC-PVDZ
  Basis Set: (CC-PVDZ AUX)
    Blend: CC-PVDZ-JKFIT
  Basis Set: CC-PVDZ
    Blend: CC-PVDZ
  @DF-UKS Final Energy:  -701.30802166812418
    Total Energy =                       -701.3080216681242973
  @DF-UKS Final Energy:  -701.51010122145453
    Total Energy =                       -701.5101012214546472
  @DF-UKS Final Energy:  -702.05689302926555
    Total Energy =                       -702.0568930292655523
  @DF-UKS Final Energy:  -702.22894388424311
    Total Energy =                       -702.2289438842431082
  @DF-UKS Final Energy:  -702.32444171554050
    Total Energy =                       -702.3244417155406154
  @DF-UKS Final Energy:  -702.36308569189555
    Total Energy =                       -702.3630856918955487
  @DF-UKS Final Energy:  -702.37630024576913
    Total Energy =                       -702.3763002457691300
  @DF-UKS Final Energy:  -702.37897200972134
    Total Energy =                       -702.3789720097213376
  @DF-UKS Final Energy:  -702.37973362827734
    Total Energy =                       -702.3797336282773358
  @DF-UKS Final Energy:  -702.37983027608266
    Total Energy =                       -702.3798302760826573
  Basis Set: (CC-PVDZ AUX)
    Blend: CC-PVDZ-JKFIT
  Basis Set: CC-PVDZ
    Blend: CC-PVDZ
  Basis Set: (CC-PVDZ AUX)
    Blend: CC-PVDZ-JKFIT
  @DF-UKS Final Energy:  -702.37984357663515
    Total Energy =                       -702.3798435766351531
  Basis Set: CC-PVDZ
    Blend: CC-PVDZ
  Basis Set: (CC-PVDZ AUX)
    Blend: CC-PVDZ-JKFIT
  Charge       = 1
  Multiplicity = 2
  Basis Set: CC-PVDZ
    Blend: CC-PVDZ
  Basis Set: (CC-PVDZ AUX)
    Blend: CC-PVDZ-JKFIT

    Orbital Energies [Eh]
    ---------------------

    Alpha Occupied:

       1A1  -101.781865     2A1   -56.425089     3A1    -9.700781
       4A1    -7.462894     1B2    -7.454185     1B1    -7.454185
       5A1    -4.497858     2B2    -3.050641     2B1    -3.050641
       6A1    -3.049081     7A1    -1.060741     8A1    -0.671729
       3B2    -0.568061     3B1    -0.568061     9A1    -0.536845

    Alpha Virtual:

       4B1    -0.312023     4B2    -0.312023    10A1    -0.207708
      11A1    -0.061431     5B1    -0.013507     5B2    -0.013507
      12A1    -0.009785     1A2     0.000856    13A1     0.000856
       6B1     0.018439     6B2     0.018439    14A1     0.106983
       7B1     0.373495     7B2     0.373495    15A1     0.411245
      16A1     0.510273     2A2     0.510275    17A1     0.561406
       8B1     0.615164     8B2     0.615164    18A1     0.979435

    Beta Occupied:

       1A1  -101.780207     2A1   -56.421481     3A1    -9.699167
       4A1    -7.457395     1B2    -7.453290     1B1    -7.453290
       5A1    -4.492124     2B2    -3.046907     2B1    -3.046907
       6A1    -3.042591     7A1    -1.049530     8A1    -0.648068
       3B2    -0.564995     3B1    -0.564995

    Beta Virtual:

       9A1    -0.431372     4B1    -0.283547     4B2    -0.283547
      10A1    -0.182227    11A1    -0.053027     5B1    -0.008015
       5B2    -0.008015    12A1     0.013285     1A2     0.022423
      13A1     0.022423     6B1     0.049863     6B2     0.049863
      14A1     0.125567     7B1     0.376835     7B2     0.376835
      15A1     0.427044    16A1     0.512059     2A2     0.512061
      17A1     0.571912     8B1     0.627843     8B2     0.627843
      18A1     0.986900

    Final Occupation by Irrep:
             A1    A2    B1    B2
    DOCC [     8,    0,    3,    3 ]
    SOCC [     1,    0,    0,    0 ]
    NA   [     9,    0,    3,    3 ]
    NB   [     8,    0,    3,    3 ]

  @DF-UKS Final Energy:  -702.37984568283184

   => Energetics <=

    Nuclear Repulsion Energy =             56.3816809273364825
    One-Electron Energy =               -1076.7267612036378068
    Two-Electron Energy =                 355.5441284153244510
    DFT Exchange-Correlation Energy =     -37.5788938218548552
    Empirical Dispersion Energy =           0.0000000000000000
    VV10 Nonlocal Energy =                  0.0000000000000000
    Total Energy =                       -702.3798456828318422

  UHF NO Occupations:
  HONO-2 :    3 B2 1.9999021
  HONO-1 :    8 A1 1.9991096
  HONO-0 :    9 A1 1.0000000
  LUNO+0 :   10 A1 0.0008904
  LUNO+1 :    4 B1 0.0000979
  LUNO+2 :    4 B2 0.0000979
  LUNO+3 :   11 A1 0.0000426

Computation Completed

Properties will be evaluated at   0.000000,   0.000000,   0.000000 [a0]

Properties computed using the SCF density matrix

 Multipole Moments:

 ------------------------------------------------------------------------------------
     Multipole            Electronic (a.u.)      Nuclear  (a.u.)        Total (a.u.)
 ------------------------------------------------------------------------------------

 L = 1.  Multiply by 2.5417464519 to convert [e a0] to [Debye]
 Dipole X            :          0.0000000            0.0000000            0.0000000
 Dipole Y            :          0.0000000            0.0000000            0.0000000
 Dipole Z            :          2.5497824           -0.2588494            2.2909330
 Magnitude           :                                                    2.2909330

 ------------------------------------------------------------------------------------

*** tstop() called on Joses-MacBook-Pro-2.local at Thu Jul 17 15:21:16 2025
Module time:
	user time   =       8.46 seconds =       0.14 minutes
	system time =       1.38 seconds =       0.02 minutes
	total time  =          1 seconds =       0.02 minutes
Total time:
	user time   =     160.73 seconds =       2.68 minutes
	system time =      40.52 seconds =       0.68 minutes
	total time  =         19 seconds =       0.32 minutes

*** tstart() called on Joses-MacBook-Pro-2.local
*** at Thu Jul 17 15:21:16 2025

         ------------------------------------------------------------
                                   SCF GRAD
                          Rob Parrish, Justin Turney,
                       Andy Simmonett, and Alex Sokolov
         ------------------------------------------------------------

  ==> Geometry <==

    Molecular point group: c2v
    Full point group: C_inf_v

    Geometry (in Angstrom), charge = 1, multiplicity = 2:

       Center              X                  Y                   Z               Mass
    ------------   -----------------  -----------------  -----------------  -----------------
         AL           0.000000000000     0.000000000000     1.170826968129    26.981538530000
         CL           0.000000000000     0.000000000000    -0.903395751637    34.968852682000

  Nuclear repulsion =   56.381680927336483

  ==> Basis Set <==

  Basis Set: CC-PVDZ
    Blend: CC-PVDZ
    Number of shells: 16
    Number of basis functions: 36
    Number of Cartesian functions: 38
    Spherical Harmonics?: true
    Max angular momentum: 2

  ==> DFJKGrad: Density-Fitted SCF Gradients <==

    Gradient:                    1
    J tasked:                  Yes
    K tasked:                  Yes
    wK tasked:                  No
    OpenMP threads:              1
    Integrals threads:           1
    Memory [MiB]:              375
    Schwarz Cutoff:          1E-12
    Fitting Condition:       1E-10

   => Auxiliary Basis Set <=

  Basis Set: (CC-PVDZ AUX)
    Blend: CC-PVDZ-JKFIT
    Number of shells: 72
    Number of basis functions: 224
    Number of Cartesian functions: 260
    Spherical Harmonics?: true
    Max angular momentum: 3

  ==> DFT Potential <==

   => LibXC <=

    Version 6.2.2
    S. Lehtola, C. Steigemann, M. J.T. Oliveira, and M. A.L. Marques.,  SoftwareX 7, 1â€“5 (2018) (10.1016/j.softx.2017.11.002)

   => Composite Functional: B3LYP <=

    B3LYP Hyb-GGA Exchange-Correlation Functional

    P. J. Stephens, F. J. Devlin, C. F. Chabalowski, and M. J. Frisch.,  J. Phys. Chem. 98, 11623 (1994) (10.1021/j100096a001)

    Deriv               =              1
    GGA                 =           TRUE
    Meta                =          FALSE

    Exchange Hybrid     =           TRUE
    MP2 Hybrid          =          FALSE

   => Exchange Functionals <=

    0.0800   Slater exchange
    0.7200         Becke 88

   => Exact (HF) Exchange <=

    0.2000               HF

   => Correlation Functionals <=

    0.1900   Vosko, Wilk & Nusair (VWN5_RPA)
    0.8100   Lee, Yang & Parr

   => LibXC Density Thresholds  <==

    XC_HYB_GGA_XC_B3LYP:  1.00E-15

   => Molecular Quadrature <=

    Radial Scheme          =       TREUTLER
    Pruning Scheme         =           NONE
    Nuclear Scheme         =       TREUTLER

    Blocking Scheme        =         OCTREE
    BS radius alpha        =              1
    Pruning alpha          =              1
    Radial Points          =             75
    Spherical Points       =            302
    Total Points           =          42653
    Total Blocks           =            399
    Max Points             =            256
    Max Functions          =             36
    Weights Tolerance      =       1.00E-15

  -Total Gradient:
     Atom            X                  Y                   Z
    ------   -----------------  -----------------  -----------------
       1        0.000000000000     0.000000000000    -0.000169275256
       2        0.000000000000     0.000000000000     0.000203545442

*** tstop() called on Joses-MacBook-Pro-2.local at Thu Jul 17 15:21:16 2025
Module time:
	user time   =       2.36 seconds =       0.04 minutes
	system time =       1.39 seconds =       0.02 minutes
	total time  =          0 seconds =       0.00 minutes
Total time:
	user time   =     163.09 seconds =       2.72 minutes
	system time =      41.92 seconds =       0.70 minutes
	total time  =         19 seconds =       0.32 minutes

    			-----------------------------------------

    			 OPTKING 3.0: for geometry optimizations

    			     By R.A. King, Bethel University

    			        with contributions from

    			    A.V. Copan, J. Cayton, A. Heide

    			-----------------------------------------

	                            ===> Fragment 1 <==

	 Z (Atomic Numbers)          Masses                          Geom
	      13.000000            26.981539          0.00000000  0.00000000  2.21254231
	      17.000000            34.968853          0.00000000  0.00000000 -1.70717055

	 - Coordinate -           - BOHR/RAD -       - ANG/DEG -
	 R(1,2)           =         3.919713           2.074223

	        --- Internal Coordinate Step in ANG or DEG, aJ/ANG or AJ/DEG ---
	-------------------------------------------------------------------------------
	           Coordinate      Previous         Force          Change          New
	           ----------      --------        ------          ------        ------
	               R(1,2)       2.07422        0.00154        0.00050       2.07473
	-------------------------------------------------------------------------------

	                                 ==> Convergence Check <==

	Measures of convergence in internal coordinates in au.

	Criteria marked as inactive (o), active & met (*), and active & unmet ( ).

	----------------------------------------------------------------------------------------------
	   Step    Total Energy     Delta E     Max Force     RMS Force      Max Disp      RMS Disp
	----------------------------------------------------------------------------------------------
	  Convergence Criteria     1.00e-06 *    3.00e-04 *             o    1.20e-03 *             o
	----------------------------------------------------------------------------------------------
	    14    -702.37984568   -2.11e-06      1.86e-04 *    1.86e-04 o    9.49e-04 *    9.49e-04 o  ~
	----------------------------------------------------------------------------------------------

Next Geometry in Ang
	Fragment 1 (Ang)

	   Al   0.0000000000   0.0000000000   1.1710781701
	   Cl   0.0000000000   0.0000000000  -0.9036469536

    Final optimized geometry and variables:
    Molecular point group: c2v
    Full point group: C_inf_v

    Geometry (in Angstrom), charge = 1, multiplicity = 2:

    AL           0.000000000000     0.000000000000     1.170826968129
    CL           0.000000000000     0.000000000000    -0.903395751637

    Psi4 stopped on: Thursday, 17 July 2025 03:21PM
    Psi4 wall time for execution: 0:00:19.99

*** Psi4 exiting successfully. Buy a developer a beer!
