                               Psi4 1.9.1 release

  ==> Input File <==

--------------------------------------------------------------------------
molecule {
1 2
C   0.00000        0.60000        0.00000
C   0.00000       -0.60000        0.00000
}

set {
basis              cc-pvdz
reference          uks
maxiter            500
geom_maxiter       500
DAMPING_PERCENTAGE 1
guess              SAP
}

optimize('b3lyp')
--------------------------------------------------------------------------

    Molecular point group: d2h
  Charge       = 1
  Multiplicity = 2
  Basis Set: CC-PVDZ
    Blend: CC-PVDZ
  Basis Set: (CC-PVDZ AUX)
    Blend: CC-PVDZ-JKFIT
  @DF-UKS Final Energy:   -75.41588668473869
    Total Energy =                        -75.4158866847386946
 Dipole X            :          0.0000000            0.0000000            0.0000000
 Dipole Y            :          0.0000000            0.0000000            0.0000000
 Dipole Z            :          0.0000000            0.0000000            0.0000000
 Magnitude           :                                                    0.0000000
    Molecular point group: d2h
  Basis Set: CC-PVDZ
    Blend: CC-PVDZ
  Basis Set: (CC-PVDZ AUX)
    Blend: CC-PVDZ-JKFIT
  Basis Set: CC-PVDZ
    Blend: CC-PVDZ
  Basis Set: (CC-PVDZ AUX)
    Blend: CC-PVDZ-JKFIT
  @DF-UKS Final Energy:   -75.43856443645790
    Total Energy =                        -75.4385644364578951
  Basis Set: CC-PVDZ
    Blend: CC-PVDZ
  Basis Set: (CC-PVDZ AUX)
    Blend: CC-PVDZ-JKFIT
  Basis Set: CC-PVDZ
    Blend: CC-PVDZ
  @DF-UKS Final Energy:   -75.43912188217709
    Total Energy =                        -75.4391218821771048
  @DF-UKS Final Energy:   -75.43918345954576
    Total Energy =                        -75.4391834595457595
  @DF-UKS Final Energy:   -75.43919069131101
    Total Energy =                        -75.4391906913110120
  Basis Set: (CC-PVDZ AUX)
    Blend: CC-PVDZ-JKFIT
  Basis Set: CC-PVDZ
    Blend: CC-PVDZ
  Basis Set: (CC-PVDZ AUX)
    Blend: CC-PVDZ-JKFIT
  @DF-UKS Final Energy:   -75.43919155805588
    Total Energy =                        -75.4391915580558532
  Basis Set: CC-PVDZ
    Blend: CC-PVDZ
  Basis Set: (CC-PVDZ AUX)
    Blend: CC-PVDZ-JKFIT
  Charge       = 1
  Multiplicity = 2
  Basis Set: CC-PVDZ
    Blend: CC-PVDZ
  Basis Set: (CC-PVDZ AUX)
    Blend: CC-PVDZ-JKFIT

    Orbital Energies [Eh]
    ---------------------

    Alpha Occupied:

       1Ag   -10.734391     1B2u  -10.733626     2Ag    -1.184385
       2B2u   -0.786083     1B3u   -0.722876     1B1u   -0.686158

    Alpha Virtual:

       3Ag    -0.620170     1B1g   -0.404849     1B3g   -0.373199
       3B2u   -0.021611     2B3u    0.119400     4Ag     0.130464
       2B1u    0.138354     5Ag     0.208751     4B2u    0.211999
       2B1g    0.222476     2B3g    0.238594     1B2g    0.627933
       6Ag     0.628187     3B3u    0.669361     5B2u    0.678665
       3B1u    0.698992     1Au     0.962633     6B2u    0.962893
       7Ag     1.354859     3B1g    1.399075     3B3g    1.424077
       7B2u    1.573167

    Beta Occupied:

       1Ag   -10.726227     1B2u  -10.725551     2Ag    -1.143228
       2B2u   -0.761161     1B1u   -0.674783

    Beta Virtual:

       3Ag    -0.609407     1B3u   -0.572953     1B3g   -0.363854
       1B1g   -0.330833     3B2u   -0.008345     4Ag     0.137786
       2B1u    0.142035     2B3u    0.153406     5Ag     0.221582
       4B2u    0.223091     2B3g    0.242015     2B1g    0.252518
       1B2g    0.664660     6Ag     0.668505     5B2u    0.695051
       3B1u    0.703896     3B3u    0.715430     1Au     0.994692
       6B2u    0.998682     7Ag     1.373412     3B3g    1.427684
       3B1g    1.435115     7B2u    1.581712

    Final Occupation by Irrep:
             Ag   B1g   B2g   B3g    Au   B1u   B2u   B3u
    DOCC [     2,    0,    0,    0,    0,    1,    2,    0 ]
    SOCC [     0,    0,    0,    0,    0,    0,    0,    1 ]
    NA   [     2,    0,    0,    0,    0,    1,    2,    1 ]
    NB   [     2,    0,    0,    0,    0,    1,    2,    0 ]

  @DF-UKS Final Energy:   -75.43919167622290

   => Energetics <=

    Nuclear Repulsion Energy =             14.3267592042560050
    One-Electron Energy =                -124.7081753602234642
    Two-Electron Energy =                  43.1794869281578428
    DFT Exchange-Correlation Energy =      -8.2372624484132846
    Empirical Dispersion Energy =           0.0000000000000000
    VV10 Nonlocal Energy =                  0.0000000000000000
    Total Energy =                        -75.4391916762229044

  UHF NO Occupations:
  HONO-2 :    2 Ag 1.9997110
  HONO-1 :    2B2u 1.9995293
  HONO-0 :    1B3u 1.0000000
  LUNO+0 :    3B2u 0.0004707
  LUNO+1 :    3 Ag 0.0002890
  LUNO+2 :    2B1u 0.0000116
  LUNO+3 :    4 Ag 0.0000000

Computation Completed

Properties will be evaluated at   0.000000,   0.000000,   0.000000 [a0]

Properties computed using the SCF density matrix

 Multipole Moments:

 ------------------------------------------------------------------------------------
     Multipole            Electronic (a.u.)      Nuclear  (a.u.)        Total (a.u.)
 ------------------------------------------------------------------------------------

 L = 1.  Multiply by 2.5417464519 to convert [e a0] to [Debye]
 Dipole X            :          0.0000000            0.0000000            0.0000000
 Dipole Y            :          0.0000000            0.0000000            0.0000000
 Dipole Z            :          0.0000000            0.0000000            0.0000000
 Magnitude           :                                                    0.0000000

 ------------------------------------------------------------------------------------

*** tstop() called on Joses-MacBook-Pro-2.local at Thu Jul 17 13:40:29 2025
Module time:
	user time   =       2.73 seconds =       0.05 minutes
	system time =       2.73 seconds =       0.05 minutes
	total time  =          1 seconds =       0.02 minutes
Total time:
	user time   =      21.25 seconds =       0.35 minutes
	system time =      33.89 seconds =       0.56 minutes
	total time  =          5 seconds =       0.08 minutes

*** tstart() called on Joses-MacBook-Pro-2.local
*** at Thu Jul 17 13:40:29 2025

         ------------------------------------------------------------
                                   SCF GRAD
                          Rob Parrish, Justin Turney,
                       Andy Simmonett, and Alex Sokolov
         ------------------------------------------------------------

  ==> Geometry <==

    Molecular point group: d2h
    Full point group: D_inf_h

    Geometry (in Angstrom), charge = 1, multiplicity = 2:

       Center              X                  Y                   Z               Mass
    ------------   -----------------  -----------------  -----------------  -----------------
         C           -0.000000000000     0.664853066647     0.000000000000    12.000000000000
         C            0.000000000000    -0.664853066647     0.000000000000    12.000000000000

  Nuclear repulsion =   14.326759204256005

  ==> Basis Set <==

  Basis Set: CC-PVDZ
    Blend: CC-PVDZ
    Number of shells: 12
    Number of basis functions: 28
    Number of Cartesian functions: 30
    Spherical Harmonics?: true
    Max angular momentum: 2

  ==> DFJKGrad: Density-Fitted SCF Gradients <==

    Gradient:                    1
    J tasked:                  Yes
    K tasked:                  Yes
    wK tasked:                  No
    OpenMP threads:              1
    Integrals threads:           1
    Memory [MiB]:              375
    Schwarz Cutoff:          1E-12
    Fitting Condition:       1E-10

   => Auxiliary Basis Set <=

  Basis Set: (CC-PVDZ AUX)
    Blend: CC-PVDZ-JKFIT
    Number of shells: 48
    Number of basis functions: 140
    Number of Cartesian functions: 162
    Spherical Harmonics?: true
    Max angular momentum: 3

  ==> DFT Potential <==

   => LibXC <=

    Version 6.2.2
    S. Lehtola, C. Steigemann, M. J.T. Oliveira, and M. A.L. Marques.,  SoftwareX 7, 1â€“5 (2018) (10.1016/j.softx.2017.11.002)

   => Composite Functional: B3LYP <=

    B3LYP Hyb-GGA Exchange-Correlation Functional

    P. J. Stephens, F. J. Devlin, C. F. Chabalowski, and M. J. Frisch.,  J. Phys. Chem. 98, 11623 (1994) (10.1021/j100096a001)

    Deriv               =              1
    GGA                 =           TRUE
    Meta                =          FALSE

    Exchange Hybrid     =           TRUE
    MP2 Hybrid          =          FALSE

   => Exchange Functionals <=

    0.0800   Slater exchange
    0.7200         Becke 88

   => Exact (HF) Exchange <=

    0.2000               HF

   => Correlation Functionals <=

    0.1900   Vosko, Wilk & Nusair (VWN5_RPA)
    0.8100   Lee, Yang & Parr

   => LibXC Density Thresholds  <==

    XC_HYB_GGA_XC_B3LYP:  1.00E-15

   => Molecular Quadrature <=

    Radial Scheme          =       TREUTLER
    Pruning Scheme         =           NONE
    Nuclear Scheme         =       TREUTLER

    Blocking Scheme        =         OCTREE
    BS radius alpha        =              1
    Pruning alpha          =              1
    Radial Points          =             75
    Spherical Points       =            302
    Total Points           =          42422
    Total Blocks           =            390
    Max Points             =            248
    Max Functions          =             28
    Weights Tolerance      =       1.00E-15

  -Total Gradient:
     Atom            X                  Y                   Z
    ------   -----------------  -----------------  -----------------
       1        0.000000000000    -0.000028372877     0.000000000000
       2       -0.000000000000     0.000028372877     0.000000000000

*** tstop() called on Joses-MacBook-Pro-2.local at Thu Jul 17 13:40:29 2025
Module time:
	user time   =       0.67 seconds =       0.01 minutes
	system time =       1.22 seconds =       0.02 minutes
	total time  =          0 seconds =       0.00 minutes
Total time:
	user time   =      21.93 seconds =       0.37 minutes
	system time =      35.11 seconds =       0.59 minutes
	total time  =          5 seconds =       0.08 minutes

    			-----------------------------------------

    			 OPTKING 3.0: for geometry optimizations

    			     By R.A. King, Bethel University

    			        with contributions from

    			    A.V. Copan, J. Cayton, A. Heide

    			-----------------------------------------

	                            ===> Fragment 1 <==

	 Z (Atomic Numbers)          Masses                          Geom
	       6.000000            12.000000         -0.00000000  1.25639021  0.00000000
	       6.000000            12.000000          0.00000000 -1.25639021  0.00000000

	 - Coordinate -           - BOHR/RAD -       - ANG/DEG -
	 R(1,2)           =         2.512780           1.329706

	        --- Internal Coordinate Step in ANG or DEG, aJ/ANG or AJ/DEG ---
	-------------------------------------------------------------------------------
	           Coordinate      Previous         Force          Change          New
	           ----------      --------        ------          ------        ------
	               R(1,2)       1.32971        0.00023        0.00003       1.32973
	-------------------------------------------------------------------------------

	                                 ==> Convergence Check <==

	Measures of convergence in internal coordinates in au.

	Criteria marked as inactive (o), active & met (*), and active & unmet ( ).

	----------------------------------------------------------------------------------------------
	   Step    Total Energy     Delta E     Max Force     RMS Force      Max Disp      RMS Disp
	----------------------------------------------------------------------------------------------
	  Convergence Criteria     1.00e-06 *    3.00e-04 *             o    1.20e-03 *             o
	----------------------------------------------------------------------------------------------
	     7     -75.43919168   -1.18e-07 *    2.84e-05 *    2.84e-05 o    4.76e-05 *    4.76e-05 o  ~
	----------------------------------------------------------------------------------------------

Next Geometry in Ang
	Fragment 1 (Ang)

	    C  -0.0000000000   0.6648656676   0.0000000000
	    C   0.0000000000  -0.6648656676   0.0000000000

    Final optimized geometry and variables:
    Molecular point group: d2h
    Full point group: D_inf_h

    Geometry (in Angstrom), charge = 1, multiplicity = 2:

    C           -0.000000000000     0.664853066647     0.000000000000
    C            0.000000000000    -0.664853066647     0.000000000000

    Psi4 stopped on: Thursday, 17 July 2025 01:40PM
    Psi4 wall time for execution: 0:00:06.13

*** Psi4 exiting successfully. Buy a developer a beer!
