                               Psi4 1.9.1 release

  ==> Input File <==

--------------------------------------------------------------------------
molecule {
1 2
Na   0.00000        0.60000        0.00000
Na   0.00000       -0.60000        0.00000
}

set {
basis              cc-pvdz
reference          uks
maxiter            500
geom_maxiter       500
DAMPING_PERCENTAGE 1
guess              SAP
}

optimize('b3lyp')
--------------------------------------------------------------------------

    Molecular point group: d2h
  Charge       = 1
  Multiplicity = 2
  Basis Set: CC-PVDZ
    Blend: CC-PVDZ
  Basis Set: (CC-PVDZ AUX)
    Blend: DEF2-UNIVERSAL-JKFIT
  @DF-UKS Final Energy:  -323.83205941721911
    Total Energy =                       -323.8320594172191704
 Dipole X            :          0.0000000            0.0000000            0.0000000
 Dipole Y            :          0.0000000            0.0000000            0.0000000
 Dipole Z            :          0.0000000            0.0000000            0.0000000
 Magnitude           :                                                    0.0000000
    Molecular point group: d2h
  Basis Set: CC-PVDZ
    Blend: CC-PVDZ
  Basis Set: (CC-PVDZ AUX)
    Blend: DEF2-UNIVERSAL-JKFIT
  Basis Set: CC-PVDZ
    Blend: CC-PVDZ
  Basis Set: (CC-PVDZ AUX)
    Blend: DEF2-UNIVERSAL-JKFIT
  @DF-UKS Final Energy:  -323.83940055546969
    Total Energy =                       -323.8394005554696946
  Basis Set: CC-PVDZ
    Blend: CC-PVDZ
  Basis Set: (CC-PVDZ AUX)
    Blend: DEF2-UNIVERSAL-JKFIT
  Basis Set: CC-PVDZ
    Blend: CC-PVDZ
  @DF-UKS Final Energy:  -323.85352310744230
    Total Energy =                       -323.8535231074422995
  @DF-UKS Final Energy:  -323.90430486248766
    Total Energy =                       -323.9043048624876064
  @DF-UKS Final Energy:  -324.12413987825892
    Total Energy =                       -324.1241398782589158
  @DF-UKS Final Energy:  -324.21568309059290
    Total Energy =                       -324.2156830905928473
  @DF-UKS Final Energy:  -324.27857153635512
    Total Energy =                       -324.2785715363551162
  @DF-UKS Final Energy:  -324.31558992072650
    Total Energy =                       -324.3155899207264952
  @DF-UKS Final Energy:  -324.35403691811655
    Total Energy =                       -324.3540369181165488
  @DF-UKS Final Energy:  -324.38124284672648
    Total Energy =                       -324.3812428467264795
  @DF-UKS Final Energy:  -324.40065248293570
    Total Energy =                       -324.4006524829356977
  @DF-UKS Final Energy:  -324.40203146123150
    Total Energy =                       -324.4020314612314451
  @DF-UKS Final Energy:  -324.41322720664624
    Total Energy =                       -324.4132272066461837
  @DF-UKS Final Energy:  -324.41365592228442
    Total Energy =                       -324.4136559222844198
  @DF-UKS Final Energy:  -324.41859504805666
    Total Energy =                       -324.4185950480566589
  @DF-UKS Final Energy:  -324.41868238620839
    Total Energy =                       -324.4186823862083315
  @DF-UKS Final Energy:  -324.42012125737159
    Total Energy =                       -324.4201212573715907
  @DF-UKS Final Energy:  -324.42033566589106
    Total Energy =                       -324.4203356658910593
  Basis Set: (CC-PVDZ AUX)
    Blend: DEF2-UNIVERSAL-JKFIT
  Basis Set: CC-PVDZ
    Blend: CC-PVDZ
  Basis Set: (CC-PVDZ AUX)
    Blend: DEF2-UNIVERSAL-JKFIT
  @DF-UKS Final Energy:  -324.42035874761120
    Total Energy =                       -324.4203587476112034
  Basis Set: CC-PVDZ
    Blend: CC-PVDZ
  Basis Set: (CC-PVDZ AUX)
    Blend: DEF2-UNIVERSAL-JKFIT
  Charge       = 1
  Multiplicity = 2
  Basis Set: CC-PVDZ
    Blend: CC-PVDZ
  Basis Set: (CC-PVDZ AUX)
    Blend: DEF2-UNIVERSAL-JKFIT

    Orbital Energies [Eh]
    ---------------------

    Alpha Occupied:

       1B2u  -38.674535     1Ag   -38.674532     2B2u   -2.415523
       2Ag    -2.415479     1B1u   -1.346627     1B3u   -1.346627
       1B3g   -1.346577     1B1g   -1.346577     3Ag    -1.346514
       3B2u   -1.346047     4Ag    -0.305418

    Alpha Virtual:

       4B2u   -0.203544     2B1u   -0.160740     2B3u   -0.160740
       5Ag    -0.146553     2B1g   -0.109388     2B3g   -0.109388
       5B2u   -0.075266     6Ag    -0.068814     3B1u   -0.046409
       3B3u   -0.046409     7Ag    -0.038944     6B2u   -0.019842
       3B1g   -0.017153     3B3g   -0.017153     4B3u    0.007732
       4B1u    0.007732     8Ag     0.007806     1B2g    0.007806
       7B2u    0.035001     8B2u    0.054214     1Au     0.054214
       9Ag     0.082939     4B1g    0.122641     4B3g    0.122641
       9B2u    0.223396

    Beta Occupied:

       1B2u  -38.673667     1Ag   -38.673665     2B2u   -2.413826
       2Ag    -2.413774     1B1u   -1.345580     1B3u   -1.345580
       1B3g   -1.345555     1B1g   -1.345555     3Ag    -1.344994
       3B2u   -1.344616

    Beta Virtual:

       4Ag    -0.238044     4B2u   -0.195934     2B1u   -0.139301
       2B3u   -0.139301     5Ag    -0.127786     2B1g   -0.102622
       2B3g   -0.102622     5B2u   -0.068682     6Ag    -0.051965
       3B1u   -0.033550     3B3u   -0.033550     7Ag    -0.030991
       6B2u   -0.014086     3B1g   -0.012461     3B3g   -0.012461
       8Ag     0.020497     1B2g    0.020501     4B3u    0.022491
       4B1u    0.022491     7B2u    0.042216     1Au     0.060613
       8B2u    0.060614     9Ag     0.096699     4B1g    0.131393
       4B3g    0.131393     9B2u    0.230834

    Final Occupation by Irrep:
             Ag   B1g   B2g   B3g    Au   B1u   B2u   B3u
    DOCC [     3,    1,    0,    1,    0,    1,    3,    1 ]
    SOCC [     1,    0,    0,    0,    0,    0,    0,    0 ]
    NA   [     4,    1,    0,    1,    0,    1,    3,    1 ]
    NB   [     3,    1,    0,    1,    0,    1,    3,    1 ]

  @DF-UKS Final Energy:  -324.42035917967934

   => Energetics <=

    Nuclear Repulsion Energy =             17.8162051186800667
    One-Electron Energy =                -487.0987112848114293
    Two-Electron Energy =                 168.0342270945684788
    DFT Exchange-Correlation Energy =     -23.1720801081164787
    Empirical Dispersion Energy =           0.0000000000000000
    VV10 Nonlocal Energy =                  0.0000000000000000
    Total Energy =                       -324.4203591796793944

  UHF NO Occupations:
  HONO-2 :    1B3u 1.9999997
  HONO-1 :    3 Ag 1.9999991
  HONO-0 :    4 Ag 1.0000000
  LUNO+0 :    5 Ag 0.0000009
  LUNO+1 :    2B1u 0.0000003
  LUNO+2 :    2B3u 0.0000003
  LUNO+3 :    4B2u 0.0000001

Computation Completed

Properties will be evaluated at   0.000000,   0.000000,   0.000000 [a0]

Properties computed using the SCF density matrix

 Multipole Moments:

 ------------------------------------------------------------------------------------
     Multipole            Electronic (a.u.)      Nuclear  (a.u.)        Total (a.u.)
 ------------------------------------------------------------------------------------

 L = 1.  Multiply by 2.5417464519 to convert [e a0] to [Debye]
 Dipole X            :          0.0000000            0.0000000            0.0000000
 Dipole Y            :          0.0000000            0.0000000            0.0000000
 Dipole Z            :          0.0000000            0.0000000            0.0000000
 Magnitude           :                                                    0.0000000

 ------------------------------------------------------------------------------------

*** tstop() called on Joses-MacBook-Pro-2.local at Thu Jul 17 14:44:34 2025
Module time:
	user time   =       6.61 seconds =       0.11 minutes
	system time =       3.19 seconds =       0.05 minutes
	total time  =          1 seconds =       0.02 minutes
Total time:
	user time   =     193.05 seconds =       3.22 minutes
	system time =      99.22 seconds =       1.65 minutes
	total time  =         29 seconds =       0.48 minutes

*** tstart() called on Joses-MacBook-Pro-2.local
*** at Thu Jul 17 14:44:34 2025

         ------------------------------------------------------------
                                   SCF GRAD
                          Rob Parrish, Justin Turney,
                       Andy Simmonett, and Alex Sokolov
         ------------------------------------------------------------

  ==> Geometry <==

    Molecular point group: d2h
    Full point group: D_inf_h

    Geometry (in Angstrom), charge = 1, multiplicity = 2:

       Center              X                  Y                   Z               Mass
    ------------   -----------------  -----------------  -----------------  -----------------
         NA          -0.000000000000     1.796971971992     0.000000000000    22.989769282000
         NA           0.000000000000    -1.796971971992     0.000000000000    22.989769282000

  Nuclear repulsion =   17.816205118680067

  ==> Basis Set <==

  Basis Set: CC-PVDZ
    Blend: CC-PVDZ
    Number of shells: 16
    Number of basis functions: 36
    Number of Cartesian functions: 38
    Spherical Harmonics?: true
    Max angular momentum: 2

  ==> DFJKGrad: Density-Fitted SCF Gradients <==

    Gradient:                    1
    J tasked:                  Yes
    K tasked:                  Yes
    wK tasked:                  No
    OpenMP threads:              1
    Integrals threads:           1
    Memory [MiB]:              375
    Schwarz Cutoff:          1E-12
    Fitting Condition:       1E-10

   => Auxiliary Basis Set <=

  Basis Set: (CC-PVDZ AUX)
    Blend: DEF2-UNIVERSAL-JKFIT
    Number of shells: 68
    Number of basis functions: 224
    Number of Cartesian functions: 274
    Spherical Harmonics?: true
    Max angular momentum: 4

  ==> DFT Potential <==

   => LibXC <=

    Version 6.2.2
    S. Lehtola, C. Steigemann, M. J.T. Oliveira, and M. A.L. Marques.,  SoftwareX 7, 1â€“5 (2018) (10.1016/j.softx.2017.11.002)

   => Composite Functional: B3LYP <=

    B3LYP Hyb-GGA Exchange-Correlation Functional

    P. J. Stephens, F. J. Devlin, C. F. Chabalowski, and M. J. Frisch.,  J. Phys. Chem. 98, 11623 (1994) (10.1021/j100096a001)

    Deriv               =              1
    GGA                 =           TRUE
    Meta                =          FALSE

    Exchange Hybrid     =           TRUE
    MP2 Hybrid          =          FALSE

   => Exchange Functionals <=

    0.0800   Slater exchange
    0.7200         Becke 88

   => Exact (HF) Exchange <=

    0.2000               HF

   => Correlation Functionals <=

    0.1900   Vosko, Wilk & Nusair (VWN5_RPA)
    0.8100   Lee, Yang & Parr

   => LibXC Density Thresholds  <==

    XC_HYB_GGA_XC_B3LYP:  1.00E-15

   => Molecular Quadrature <=

    Radial Scheme          =       TREUTLER
    Pruning Scheme         =           NONE
    Nuclear Scheme         =       TREUTLER

    Blocking Scheme        =         OCTREE
    BS radius alpha        =              1
    Pruning alpha          =              1
    Radial Points          =             75
    Spherical Points       =            302
    Total Points           =          43118
    Total Blocks           =            452
    Max Points             =            256
    Max Functions          =             36
    Weights Tolerance      =       1.00E-15

  -Total Gradient:
     Atom            X                  Y                   Z
    ------   -----------------  -----------------  -----------------
       1        0.000000000000    -0.000009634118     0.000000000000
       2       -0.000000000000     0.000009634118     0.000000000000

*** tstop() called on Joses-MacBook-Pro-2.local at Thu Jul 17 14:44:35 2025
Module time:
	user time   =       2.41 seconds =       0.04 minutes
	system time =       2.07 seconds =       0.03 minutes
	total time  =          1 seconds =       0.02 minutes
Total time:
	user time   =     195.46 seconds =       3.26 minutes
	system time =     101.30 seconds =       1.69 minutes
	total time  =         30 seconds =       0.50 minutes

    			-----------------------------------------

    			 OPTKING 3.0: for geometry optimizations

    			     By R.A. King, Bethel University

    			        with contributions from

    			    A.V. Copan, J. Cayton, A. Heide

    			-----------------------------------------

	                            ===> Fragment 1 <==

	 Z (Atomic Numbers)          Masses                          Geom
	      11.000000            22.989769         -0.00000000  3.39578488  0.00000000
	      11.000000            22.989769          0.00000000 -3.39578488  0.00000000

	 - Coordinate -           - BOHR/RAD -       - ANG/DEG -
	 R(1,2)           =         6.791570           3.593944

	        --- Internal Coordinate Step in ANG or DEG, aJ/ANG or AJ/DEG ---
	-------------------------------------------------------------------------------
	           Coordinate      Previous         Force          Change          New
	           ----------      --------        ------          ------        ------
	               R(1,2)       3.59394        0.00008        0.00086       3.59481
	-------------------------------------------------------------------------------

	                                 ==> Convergence Check <==

	Measures of convergence in internal coordinates in au.

	Criteria marked as inactive (o), active & met (*), and active & unmet ( ).

	----------------------------------------------------------------------------------------------
	   Step    Total Energy     Delta E     Max Force     RMS Force      Max Disp      RMS Disp
	----------------------------------------------------------------------------------------------
	  Convergence Criteria     1.00e-06 *    3.00e-04 *             o    1.20e-03 *             o
	----------------------------------------------------------------------------------------------
	    20    -324.42035918   -4.32e-07 *    9.63e-06 *    9.63e-06 o    1.63e-03      1.63e-03 o  ~
	----------------------------------------------------------------------------------------------

Next Geometry in Ang
	Fragment 1 (Ang)

	   Na  -0.0000000000   1.7974043142   0.0000000000
	   Na   0.0000000000  -1.7974043142   0.0000000000

    Final optimized geometry and variables:
    Molecular point group: d2h
    Full point group: D_inf_h

    Geometry (in Angstrom), charge = 1, multiplicity = 2:

    NA          -0.000000000000     1.796971971992     0.000000000000
    NA           0.000000000000    -1.796971971992     0.000000000000

    Psi4 stopped on: Thursday, 17 July 2025 02:44PM
    Psi4 wall time for execution: 0:00:29.89

*** Psi4 exiting successfully. Buy a developer a beer!
