                               Psi4 1.9.1 release

  ==> Input File <==

--------------------------------------------------------------------------
molecule {
1 2
N   0.00000        0.60000        0.00000
Na   0.00000       -0.60000        0.00000
}

set {
basis              cc-pvdz
reference          uks
maxiter            500
geom_maxiter       500
DAMPING_PERCENTAGE 1
guess              SAP
}

optimize('b3lyp')
--------------------------------------------------------------------------

    Molecular point group: c2v
  Charge       = 1
  Multiplicity = 2
  Basis Set: CC-PVDZ
    Blend: CC-PVDZ
  Basis Set: (CC-PVDZ AUX)
    Blend: CC-PVDZ-JKFIT + DEF2-UNIVERSAL-JKFIT
  @DF-UKS Final Energy:  -216.19144735800154
    Total Energy =                       -216.1914473580015397
 Dipole X            :          0.0000000            0.0000000            0.0000000
 Dipole Y            :          0.0000000            0.0000000            0.0000000
 Dipole Z            :         -1.6074437            0.4226391           -1.1848046
 Magnitude           :                                                    1.1848046
    Molecular point group: c2v
  Basis Set: CC-PVDZ
    Blend: CC-PVDZ
  Basis Set: (CC-PVDZ AUX)
    Blend: CC-PVDZ-JKFIT + DEF2-UNIVERSAL-JKFIT
  Basis Set: CC-PVDZ
    Blend: CC-PVDZ
  Basis Set: (CC-PVDZ AUX)
    Blend: CC-PVDZ-JKFIT + DEF2-UNIVERSAL-JKFIT
  @DF-UKS Final Energy:  -216.30073934599363
    Total Energy =                       -216.3007393459936338
  Basis Set: CC-PVDZ
    Blend: CC-PVDZ
  Basis Set: (CC-PVDZ AUX)
    Blend: CC-PVDZ-JKFIT + DEF2-UNIVERSAL-JKFIT
  Basis Set: CC-PVDZ
    Blend: CC-PVDZ
  @DF-UKS Final Energy:  -216.40449142164519
    Total Energy =                       -216.4044914216451900
  @DF-UKS Final Energy:  -216.48346660694025
    Total Energy =                       -216.4834666069402545
  @DF-UKS Final Energy:  -216.52765838172976
    Total Energy =                       -216.5276583817297649
  @DF-UKS Final Energy:  -216.54951585124070
    Total Energy =                       -216.5495158512406988
  @DF-UKS Final Energy:  -216.56098587423909
    Total Energy =                       -216.5609858742390657
  @DF-UKS Final Energy:  -216.56712364957374
    Total Energy =                       -216.5671236495737446
  @DF-UKS Final Energy:  -216.57049452846707
    Total Energy =                       -216.5704945284670941
  @DF-UKS Final Energy:  -216.57234631374016
    Total Energy =                       -216.5723463137401268
  @DF-UKS Final Energy:  -216.57334299896121
    Total Energy =                       -216.5733429989612091
  @DF-UKS Final Energy:  -216.57384138343548
    Total Energy =                       -216.5738413834355072
  @DF-UKS Final Energy:  -216.57407850343176
    Total Energy =                       -216.5740785034317639
  @DF-UKS Final Energy:  -216.57418479844452
    Total Energy =                       -216.5741847984444917
  @DF-UKS Final Energy:  -216.57423512385986
    Total Energy =                       -216.5742351238598928
  Basis Set: (CC-PVDZ AUX)
    Blend: CC-PVDZ-JKFIT + DEF2-UNIVERSAL-JKFIT
  Basis Set: CC-PVDZ
    Blend: CC-PVDZ
  Basis Set: (CC-PVDZ AUX)
    Blend: CC-PVDZ-JKFIT + DEF2-UNIVERSAL-JKFIT
  @DF-UKS Final Energy:  -216.57425931256270
    Total Energy =                       -216.5742593125627025
  Basis Set: CC-PVDZ
    Blend: CC-PVDZ
  Basis Set: (CC-PVDZ AUX)
    Blend: CC-PVDZ-JKFIT + DEF2-UNIVERSAL-JKFIT
  Charge       = 1
  Multiplicity = 2
  Basis Set: CC-PVDZ
    Blend: CC-PVDZ
  Basis Set: (CC-PVDZ AUX)
    Blend: CC-PVDZ-JKFIT + DEF2-UNIVERSAL-JKFIT

    Orbital Energies [Eh]
    ---------------------

    Alpha Occupied:

       1A1   -38.775670     2A1   -14.603107     3A1    -2.512821
       4A1    -1.444108     1B1    -1.443927     1B2    -1.443888
       5A1    -0.900643     2B1    -0.486784     2B2    -0.420392

    Alpha Virtual:

       6A1    -0.359314     7A1    -0.255314     3B2    -0.151477
       3B1    -0.150213     8A1    -0.146502     9A1    -0.070444
      10A1    -0.050544     4B2    -0.050298     4B1    -0.048851
       5B2     0.006198     5B1     0.006708     1A2     0.009959
      11A1     0.010178    12A1     0.014967     6B1     0.526910
       6B2     0.568658    13A1     0.596189    14A1     0.760622
       7B1     1.535049    15A1     1.546322     2A2     1.577091
       7B2     1.584260    16A1     1.603362

    Beta Occupied:

       1A1   -38.775670     2A1   -14.583128     3A1    -2.512821
       4A1    -1.444109     1B1    -1.443926     1B2    -1.443889
       5A1    -0.830919     2B2    -0.398835

    Beta Virtual:

       6A1    -0.337906     2B1    -0.265565     7A1    -0.254224
       3B2    -0.151700     3B1    -0.148681     8A1    -0.145246
       9A1    -0.069700     4B2    -0.050641    10A1    -0.050122
       4B1    -0.047516     5B2     0.005980     5B1     0.008320
       1A2     0.009590    11A1     0.010399    12A1     0.016340
       6B2     0.581053    13A1     0.611269     6B1     0.613237
      14A1     0.793144     7B2     1.593235    15A1     1.599908
       7B1     1.616485     2A2     1.643947    16A1     1.654786

    Final Occupation by Irrep:
             A1    A2    B1    B2
    DOCC [     5,    0,    1,    2 ]
    SOCC [     0,    0,    1,    0 ]
    NA   [     5,    0,    2,    2 ]
    NB   [     5,    0,    1,    2 ]

  @DF-UKS Final Energy:  -216.57428559841571

   => Energetics <=

    Nuclear Repulsion Energy =             10.9364140035858330
    One-Electron Energy =                -319.4005725379527689
    Two-Electron Energy =                 108.8484608868156158
    DFT Exchange-Correlation Energy =     -16.9585879508643558
    Empirical Dispersion Energy =           0.0000000000000000
    VV10 Nonlocal Energy =                  0.0000000000000000
    Total Energy =                       -216.5742855984157131

  UHF NO Occupations:
  HONO-2 :    2 B2 1.9998972
  HONO-1 :    5 A1 1.9993177
  HONO-0 :    2 B1 1.0000000
  LUNO+0 :    6 A1 0.0006823
  LUNO+1 :    3 B2 0.0001028
  LUNO+2 :    7 A1 0.0000001
  LUNO+3 :    8 A1 0.0000000

Computation Completed

Properties will be evaluated at   0.000000,   0.000000,   0.000000 [a0]

Properties computed using the SCF density matrix

 Multipole Moments:

 ------------------------------------------------------------------------------------
     Multipole            Electronic (a.u.)      Nuclear  (a.u.)        Total (a.u.)
 ------------------------------------------------------------------------------------

 L = 1.  Multiply by 2.5417464519 to convert [e a0] to [Debye]
 Dipole X            :          0.0000000            0.0000000            0.0000000
 Dipole Y            :          0.0000000            0.0000000            0.0000000
 Dipole Z            :         -3.8495756            1.3122160           -2.5373596
 Magnitude           :                                                    2.5373596

 ------------------------------------------------------------------------------------

*** tstop() called on Joses-MacBook-Pro-2.local at Thu Jul 17 13:53:08 2025
Module time:
	user time   =       2.54 seconds =       0.04 minutes
	system time =       4.74 seconds =       0.08 minutes
	total time  =          1 seconds =       0.02 minutes
Total time:
	user time   =      63.07 seconds =       1.05 minutes
	system time =     135.93 seconds =       2.27 minutes
	total time  =         21 seconds =       0.35 minutes

*** tstart() called on Joses-MacBook-Pro-2.local
*** at Thu Jul 17 13:53:08 2025

         ------------------------------------------------------------
                                   SCF GRAD
                          Rob Parrish, Justin Turney,
                       Andy Simmonett, and Alex Sokolov
         ------------------------------------------------------------

  ==> Geometry <==

    Molecular point group: c2v
    Full point group: C_inf_v

    Geometry (in Angstrom), charge = 1, multiplicity = 2:

       Center              X                  Y                   Z               Mass
    ------------   -----------------  -----------------  -----------------  -----------------
         N            0.000000000000     0.000000000000     2.315441515273    14.003074004430
         NA           0.000000000000     0.000000000000    -1.410335984393    22.989769282000

  Nuclear repulsion =   10.936414003585833

  ==> Basis Set <==

  Basis Set: CC-PVDZ
    Blend: CC-PVDZ
    Number of shells: 14
    Number of basis functions: 32
    Number of Cartesian functions: 34
    Spherical Harmonics?: true
    Max angular momentum: 2

  ==> DFJKGrad: Density-Fitted SCF Gradients <==

    Gradient:                    1
    J tasked:                  Yes
    K tasked:                  Yes
    wK tasked:                  No
    OpenMP threads:              1
    Integrals threads:           1
    Memory [MiB]:              375
    Schwarz Cutoff:          1E-12
    Fitting Condition:       1E-10

   => Auxiliary Basis Set <=

  Basis Set: (CC-PVDZ AUX)
    Blend: CC-PVDZ-JKFIT + DEF2-UNIVERSAL-JKFIT
    Number of shells: 58
    Number of basis functions: 182
    Number of Cartesian functions: 218
    Spherical Harmonics?: true
    Max angular momentum: 4

  ==> DFT Potential <==

   => LibXC <=

    Version 6.2.2
    S. Lehtola, C. Steigemann, M. J.T. Oliveira, and M. A.L. Marques.,  SoftwareX 7, 1â€“5 (2018) (10.1016/j.softx.2017.11.002)

   => Composite Functional: B3LYP <=

    B3LYP Hyb-GGA Exchange-Correlation Functional

    P. J. Stephens, F. J. Devlin, C. F. Chabalowski, and M. J. Frisch.,  J. Phys. Chem. 98, 11623 (1994) (10.1021/j100096a001)

    Deriv               =              1
    GGA                 =           TRUE
    Meta                =          FALSE

    Exchange Hybrid     =           TRUE
    MP2 Hybrid          =          FALSE

   => Exchange Functionals <=

    0.0800   Slater exchange
    0.7200         Becke 88

   => Exact (HF) Exchange <=

    0.2000               HF

   => Correlation Functionals <=

    0.1900   Vosko, Wilk & Nusair (VWN5_RPA)
    0.8100   Lee, Yang & Parr

   => LibXC Density Thresholds  <==

    XC_HYB_GGA_XC_B3LYP:  1.00E-15

   => Molecular Quadrature <=

    Radial Scheme          =       TREUTLER
    Pruning Scheme         =           NONE
    Nuclear Scheme         =       TREUTLER

    Blocking Scheme        =         OCTREE
    BS radius alpha        =              1
    Pruning alpha          =              1
    Radial Points          =             75
    Spherical Points       =            302
    Total Points           =          43900
    Total Blocks           =            432
    Max Points             =            256
    Max Functions          =             32
    Weights Tolerance      =       1.00E-15

  -Total Gradient:
     Atom            X                  Y                   Z
    ------   -----------------  -----------------  -----------------
       1       -0.000000000000    -0.000000000000    -0.000074550771
       2        0.000000000000     0.000000000000     0.000093092154

*** tstop() called on Joses-MacBook-Pro-2.local at Thu Jul 17 13:53:08 2025
Module time:
	user time   =       1.16 seconds =       0.02 minutes
	system time =       1.50 seconds =       0.03 minutes
	total time  =          0 seconds =       0.00 minutes
Total time:
	user time   =      64.24 seconds =       1.07 minutes
	system time =     137.44 seconds =       2.29 minutes
	total time  =         21 seconds =       0.35 minutes

    			-----------------------------------------

    			 OPTKING 3.0: for geometry optimizations

    			     By R.A. King, Bethel University

    			        with contributions from

    			    A.V. Copan, J. Cayton, A. Heide

    			-----------------------------------------

	                            ===> Fragment 1 <==

	 Z (Atomic Numbers)          Masses                          Geom
	       7.000000            14.003074          0.00000000  0.00000000  4.37555032
	      11.000000            22.989769          0.00000000  0.00000000 -2.66514876

	 - Coordinate -           - BOHR/RAD -       - ANG/DEG -
	 R(1,2)           =         7.040699           3.725777

	        --- Internal Coordinate Step in ANG or DEG, aJ/ANG or AJ/DEG ---
	-------------------------------------------------------------------------------
	           Coordinate      Previous         Force          Change          New
	           ----------      --------        ------          ------        ------
	               R(1,2)       3.72578        0.00069        0.00028       3.72606
	-------------------------------------------------------------------------------

	                                 ==> Convergence Check <==

	Measures of convergence in internal coordinates in au.

	Criteria marked as inactive (o), active & met (*), and active & unmet ( ).

	----------------------------------------------------------------------------------------------
	   Step    Total Energy     Delta E     Max Force     RMS Force      Max Disp      RMS Disp
	----------------------------------------------------------------------------------------------
	  Convergence Criteria     1.00e-06 *    3.00e-04 *             o    1.20e-03 *             o
	----------------------------------------------------------------------------------------------
	    17    -216.57428560   -2.63e-05      8.38e-05 *    8.38e-05 o    5.38e-04 *    5.38e-04 o  ~
	----------------------------------------------------------------------------------------------

Next Geometry in Ang
	Fragment 1 (Ang)

	    N   0.0000000000   0.0000000000   2.3155839623
	   Na   0.0000000000   0.0000000000  -1.4104784314

    Final optimized geometry and variables:
    Molecular point group: c2v
    Full point group: C_inf_v

    Geometry (in Angstrom), charge = 1, multiplicity = 2:

    N            0.000000000000     0.000000000000     2.315441515273
    NA           0.000000000000     0.000000000000    -1.410335984393

    Psi4 stopped on: Thursday, 17 July 2025 01:53PM
    Psi4 wall time for execution: 0:00:22.16

*** Psi4 exiting successfully. Buy a developer a beer!
