                               Psi4 1.9.1 release

  ==> Input File <==

--------------------------------------------------------------------------
molecule {
1 2
He   0.00000        0.60000        0.00000
Mg   0.00000       -0.60000        0.00000
}

set {
basis              cc-pvdz
reference          uks
maxiter            500
geom_maxiter       500
DAMPING_PERCENTAGE 1
guess              SAP
}

optimize('b3lyp')
--------------------------------------------------------------------------

    Molecular point group: c2v
  Charge       = 1
  Multiplicity = 2
  Basis Set: CC-PVDZ
    Blend: CC-PVDZ
  Basis Set: (CC-PVDZ AUX)
    Blend: DEF2-UNIVERSAL-JKFIT
  @DF-UKS Final Energy:  -202.55709730399468
    Total Energy =                       -202.5570973039946807
 Dipole X            :          0.0000000            0.0000000            0.0000000
 Dipole Y            :          0.0000000            0.0000000            0.0000000
 Dipole Z            :          0.5811955           -0.0049551            0.5762404
 Magnitude           :                                                    0.5762404
    Molecular point group: c2v
  Basis Set: CC-PVDZ
    Blend: CC-PVDZ
  Basis Set: (CC-PVDZ AUX)
    Blend: DEF2-UNIVERSAL-JKFIT
  Basis Set: CC-PVDZ
    Blend: CC-PVDZ
  Basis Set: (CC-PVDZ AUX)
    Blend: DEF2-UNIVERSAL-JKFIT
  @DF-UKS Final Energy:  -202.66002089670107
    Total Energy =                       -202.6600208967010985
  Basis Set: CC-PVDZ
    Blend: CC-PVDZ
  Basis Set: (CC-PVDZ AUX)
    Blend: DEF2-UNIVERSAL-JKFIT
  Basis Set: CC-PVDZ
    Blend: CC-PVDZ
  @DF-UKS Final Energy:  -202.68001517555689
    Total Energy =                       -202.6800151755568891
  @DF-UKS Final Energy:  -202.69631120196732
    Total Energy =                       -202.6963112019673190
  @DF-UKS Final Energy:  -202.70434203015239
    Total Energy =                       -202.7043420301523895
  @DF-UKS Final Energy:  -202.70902796581913
    Total Energy =                       -202.7090279658191321
  @DF-UKS Final Energy:  -202.71166060099384
    Total Energy =                       -202.7116606009938664
  @DF-UKS Final Energy:  -202.71310393186718
    Total Energy =                       -202.7131039318672094
  @DF-UKS Final Energy:  -202.71382360372073
    Total Energy =                       -202.7138236037207264
  @DF-UKS Final Energy:  -202.71413329203310
    Total Energy =                       -202.7141332920330967
  @DF-UKS Final Energy:  -202.71423953370808
    Total Energy =                       -202.7142395337080814
  @DF-UKS Final Energy:  -202.71426451440419
    Total Energy =                       -202.7142645144042206
  Basis Set: (CC-PVDZ AUX)
    Blend: DEF2-UNIVERSAL-JKFIT
  Basis Set: CC-PVDZ
    Blend: CC-PVDZ
  Basis Set: (CC-PVDZ AUX)
    Blend: DEF2-UNIVERSAL-JKFIT
  @DF-UKS Final Energy:  -202.71426776136863
    Total Energy =                       -202.7142677613686317
  Basis Set: CC-PVDZ
    Blend: CC-PVDZ
  Basis Set: (CC-PVDZ AUX)
    Blend: DEF2-UNIVERSAL-JKFIT
  Charge       = 1
  Multiplicity = 2
  Basis Set: CC-PVDZ
    Blend: CC-PVDZ
  Basis Set: (CC-PVDZ AUX)
    Blend: DEF2-UNIVERSAL-JKFIT

    Orbital Energies [Eh]
    ---------------------

    Alpha Occupied:

       1A1   -47.168159     2A1    -3.438579     3A1    -2.181437
       1B2    -2.181419     1B1    -2.181419     4A1    -0.833421
       5A1    -0.461971

    Alpha Virtual:

       2B2    -0.255941     2B1    -0.255941     6A1    -0.249283
       7A1    -0.076577     3B1    -0.031842     3B2    -0.031842
       8A1    -0.027948     9A1     0.054055     1A2     0.054055
       4B2     0.054184     4B1     0.054184    10A1     0.058187
      11A1     1.045208     5B1     2.010120     5B2     2.010120
      12A1     2.017871

    Beta Occupied:

       1A1   -47.164793     2A1    -3.432361     3A1    -2.177319
       1B2    -2.177296     1B1    -2.177296     4A1    -0.832544

    Beta Virtual:

       5A1    -0.368626     2B1    -0.214213     2B2    -0.214213
       6A1    -0.211241     7A1    -0.062229     8A1    -0.015637
       3B1    -0.015442     3B2    -0.015442     9A1     0.096093
       4B2     0.096649     4B1     0.096649    10A1     0.097055
       1A2     0.097057    11A1     1.046465     5B1     2.010624
       5B2     2.010624    12A1     2.018639

    Final Occupation by Irrep:
             A1    A2    B1    B2
    DOCC [     4,    0,    1,    1 ]
    SOCC [     1,    0,    0,    0 ]
    NA   [     5,    0,    1,    1 ]
    NB   [     4,    0,    1,    1 ]

  @DF-UKS Final Energy:  -202.71426821527049

   => Energetics <=

    Nuclear Repulsion Energy =              4.1649296477410642
    One-Electron Energy =                -287.3610769995894998
    Two-Electron Energy =                  94.4591826430805810
    DFT Exchange-Correlation Energy =     -13.9773035065026239
    Empirical Dispersion Energy =           0.0000000000000000
    VV10 Nonlocal Energy =                  0.0000000000000000
    Total Energy =                       -202.7142682152704936

  UHF NO Occupations:
  HONO-2 :    1 B1 1.9999985
  HONO-1 :    4 A1 1.9999974
  HONO-0 :    5 A1 1.0000000
  LUNO+0 :    6 A1 0.0000026
  LUNO+1 :    2 B1 0.0000015
  LUNO+2 :    2 B2 0.0000015
  LUNO+3 :    7 A1 0.0000009

Computation Completed

Properties will be evaluated at   0.000000,   0.000000,   0.000000 [a0]

Properties computed using the SCF density matrix

 Multipole Moments:

 ------------------------------------------------------------------------------------
     Multipole            Electronic (a.u.)      Nuclear  (a.u.)        Total (a.u.)
 ------------------------------------------------------------------------------------

 L = 1.  Multiply by 2.5417464519 to convert [e a0] to [Debye]
 Dipole X            :          0.0000000            0.0000000            0.0000000
 Dipole Y            :          0.0000000            0.0000000            0.0000000
 Dipole Z            :         -0.7231920           -0.0125914           -0.7357834
 Magnitude           :                                                    0.7357834

 ------------------------------------------------------------------------------------

*** tstop() called on Joses-MacBook-Pro-2.local at Thu Jul 17 12:30:18 2025
Module time:
	user time   =       2.00 seconds =       0.03 minutes
	system time =       2.27 seconds =       0.04 minutes
	total time  =          0 seconds =       0.00 minutes
Total time:
	user time   =      46.25 seconds =       0.77 minutes
	system time =      58.64 seconds =       0.98 minutes
	total time  =         10 seconds =       0.17 minutes

*** tstart() called on Joses-MacBook-Pro-2.local
*** at Thu Jul 17 12:30:18 2025

         ------------------------------------------------------------
                                   SCF GRAD
                          Rob Parrish, Justin Turney,
                       Andy Simmonett, and Alex Sokolov
         ------------------------------------------------------------

  ==> Geometry <==

    Molecular point group: c2v
    Full point group: C_inf_v

    Geometry (in Angstrom), charge = 1, multiplicity = 2:

       Center              X                  Y                   Z               Mass
    ------------   -----------------  -----------------  -----------------  -----------------
         HE           0.000000000000     0.000000000000     2.613237168184     4.002603254130
         MG           0.000000000000     0.000000000000    -0.436094784630    23.985041697000

  Nuclear repulsion =    4.164929647741064

  ==> Basis Set <==

  Basis Set: CC-PVDZ
    Blend: CC-PVDZ
    Number of shells: 11
    Number of basis functions: 23
    Number of Cartesian functions: 24
    Spherical Harmonics?: true
    Max angular momentum: 2

  ==> DFJKGrad: Density-Fitted SCF Gradients <==

    Gradient:                    1
    J tasked:                  Yes
    K tasked:                  Yes
    wK tasked:                  No
    OpenMP threads:              1
    Integrals threads:           1
    Memory [MiB]:              375
    Schwarz Cutoff:          1E-12
    Fitting Condition:       1E-10

   => Auxiliary Basis Set <=

  Basis Set: (CC-PVDZ AUX)
    Blend: DEF2-UNIVERSAL-JKFIT
    Number of shells: 43
    Number of basis functions: 135
    Number of Cartesian functions: 162
    Spherical Harmonics?: true
    Max angular momentum: 4

  ==> DFT Potential <==

   => LibXC <=

    Version 6.2.2
    S. Lehtola, C. Steigemann, M. J.T. Oliveira, and M. A.L. Marques.,  SoftwareX 7, 1â€“5 (2018) (10.1016/j.softx.2017.11.002)

   => Composite Functional: B3LYP <=

    B3LYP Hyb-GGA Exchange-Correlation Functional

    P. J. Stephens, F. J. Devlin, C. F. Chabalowski, and M. J. Frisch.,  J. Phys. Chem. 98, 11623 (1994) (10.1021/j100096a001)

    Deriv               =              1
    GGA                 =           TRUE
    Meta                =          FALSE

    Exchange Hybrid     =           TRUE
    MP2 Hybrid          =          FALSE

   => Exchange Functionals <=

    0.0800   Slater exchange
    0.7200         Becke 88

   => Exact (HF) Exchange <=

    0.2000               HF

   => Correlation Functionals <=

    0.1900   Vosko, Wilk & Nusair (VWN5_RPA)
    0.8100   Lee, Yang & Parr

   => LibXC Density Thresholds  <==

    XC_HYB_GGA_XC_B3LYP:  1.00E-15

   => Molecular Quadrature <=

    Radial Scheme          =       TREUTLER
    Pruning Scheme         =           NONE
    Nuclear Scheme         =       TREUTLER

    Blocking Scheme        =         OCTREE
    BS radius alpha        =              1
    Pruning alpha          =              1
    Radial Points          =             75
    Spherical Points       =            302
    Total Points           =          43529
    Total Blocks           =            405
    Max Points             =            255
    Max Functions          =             23
    Weights Tolerance      =       1.00E-15

  -Total Gradient:
     Atom            X                  Y                   Z
    ------   -----------------  -----------------  -----------------
       1       -0.000000000000     0.000000000000    -0.000023585764
       2        0.000000000000    -0.000000000000    -0.000004195548

*** tstop() called on Joses-MacBook-Pro-2.local at Thu Jul 17 12:30:18 2025
Module time:
	user time   =       0.70 seconds =       0.01 minutes
	system time =       1.16 seconds =       0.02 minutes
	total time  =          0 seconds =       0.00 minutes
Total time:
	user time   =      46.95 seconds =       0.78 minutes
	system time =      59.80 seconds =       1.00 minutes
	total time  =         10 seconds =       0.17 minutes

    			-----------------------------------------

    			 OPTKING 3.0: for geometry optimizations

    			     By R.A. King, Bethel University

    			        with contributions from

    			    A.V. Copan, J. Cayton, A. Heide

    			-----------------------------------------

	                            ===> Fragment 1 <==

	 Z (Atomic Numbers)          Masses                          Geom
	       2.000000             4.002603          0.00000000  0.00000000  4.93830255
	      12.000000            23.985042          0.00000000  0.00000000 -0.82409971

	 - Coordinate -           - BOHR/RAD -       - ANG/DEG -
	 R(1,2)           =         5.762402           3.049332

	        --- Internal Coordinate Step in ANG or DEG, aJ/ANG or AJ/DEG ---
	-------------------------------------------------------------------------------
	           Coordinate      Previous         Force          Change          New
	           ----------      --------        ------          ------        ------
	               R(1,2)       3.04933        0.00008        0.00371       3.05304
	-------------------------------------------------------------------------------

	                                 ==> Convergence Check <==

	Measures of convergence in internal coordinates in au.

	Criteria marked as inactive (o), active & met (*), and active & unmet ( ).

	----------------------------------------------------------------------------------------------
	   Step    Total Energy     Delta E     Max Force     RMS Force      Max Disp      RMS Disp
	----------------------------------------------------------------------------------------------
	  Convergence Criteria     1.00e-06 *    3.00e-04 *             o    1.20e-03 *             o
	----------------------------------------------------------------------------------------------
	    14    -202.71426822   -4.54e-07 *    9.70e-06 *    9.70e-06 o    7.01e-03      7.01e-03 o  ~
	----------------------------------------------------------------------------------------------

Next Geometry in Ang
	Fragment 1 (Ang)

	   He   0.0000000000   0.0000000000   2.6150907028
	   Mg   0.0000000000   0.0000000000  -0.4379483193

    Final optimized geometry and variables:
    Molecular point group: c2v
    Full point group: C_inf_v

    Geometry (in Angstrom), charge = 1, multiplicity = 2:

    HE           0.000000000000     0.000000000000     2.613237168184
    MG           0.000000000000     0.000000000000    -0.436094784630

    Psi4 stopped on: Thursday, 17 July 2025 12:30PM
    Psi4 wall time for execution: 0:00:10.78

*** Psi4 exiting successfully. Buy a developer a beer!
