                               Psi4 1.9.1 release

  ==> Input File <==

--------------------------------------------------------------------------
molecule {
1 2
Li   0.00000        0.60000        0.00000
Li   0.00000       -0.60000        0.00000
}

set {
basis              cc-pvdz
reference          uks
maxiter            500
geom_maxiter       500
DAMPING_PERCENTAGE 1
guess              SAP
}

optimize('b3lyp')
--------------------------------------------------------------------------

    Molecular point group: d2h
  Charge       = 1
  Multiplicity = 2
  Basis Set: CC-PVDZ
    Blend: CC-PVDZ
  Basis Set: (CC-PVDZ AUX)
    Blend: DEF2-UNIVERSAL-JKFIT
  @DF-UKS Final Energy:   -14.60049770345621
    Total Energy =                        -14.6004977034562096
 Dipole X            :          0.0000000            0.0000000            0.0000000
 Dipole Y            :          0.0000000            0.0000000            0.0000000
 Dipole Z            :          0.0000000            0.0000000            0.0000000
 Magnitude           :                                                    0.0000000
    Molecular point group: d2h
  Basis Set: CC-PVDZ
    Blend: CC-PVDZ
  Basis Set: (CC-PVDZ AUX)
    Blend: DEF2-UNIVERSAL-JKFIT
  Basis Set: CC-PVDZ
    Blend: CC-PVDZ
  Basis Set: (CC-PVDZ AUX)
    Blend: DEF2-UNIVERSAL-JKFIT
  @DF-UKS Final Energy:   -14.64057290202373
    Total Energy =                        -14.6405729020237327
  Basis Set: CC-PVDZ
    Blend: CC-PVDZ
  Basis Set: (CC-PVDZ AUX)
    Blend: DEF2-UNIVERSAL-JKFIT
  Basis Set: CC-PVDZ
    Blend: CC-PVDZ
  @DF-UKS Final Energy:   -14.72098661339671
    Total Energy =                        -14.7209866133967093
  @DF-UKS Final Energy:   -14.77113461528629
    Total Energy =                        -14.7711346152862859
  @DF-UKS Final Energy:   -14.79669184130442
    Total Energy =                        -14.7966918413044226
  @DF-UKS Final Energy:   -14.81262050185398
    Total Energy =                        -14.8126205018539814
  @DF-UKS Final Energy:   -14.81687909802726
    Total Energy =                        -14.8168790980272576
  @DF-UKS Final Energy:   -14.82159143971322
    Total Energy =                        -14.8215914397132185
  @DF-UKS Final Energy:   -14.82294125977518
    Total Energy =                        -14.8229412597751811
  @DF-UKS Final Energy:   -14.82323398492110
    Total Energy =                        -14.8232339849211012
  @DF-UKS Final Energy:   -14.82325678615414
    Total Energy =                        -14.8232567861541416
  Basis Set: (CC-PVDZ AUX)
    Blend: DEF2-UNIVERSAL-JKFIT
  Basis Set: CC-PVDZ
    Blend: CC-PVDZ
  Basis Set: (CC-PVDZ AUX)
    Blend: DEF2-UNIVERSAL-JKFIT
  @DF-UKS Final Energy:   -14.82325855673937
    Total Energy =                        -14.8232585567393720
  Basis Set: CC-PVDZ
    Blend: CC-PVDZ
  Basis Set: (CC-PVDZ AUX)
    Blend: DEF2-UNIVERSAL-JKFIT
  Charge       = 1
  Multiplicity = 2
  Basis Set: CC-PVDZ
    Blend: CC-PVDZ
  Basis Set: (CC-PVDZ AUX)
    Blend: DEF2-UNIVERSAL-JKFIT

    Orbital Energies [Eh]
    ---------------------

    Alpha Occupied:

       1Ag    -2.234643     1B2u   -2.234584     2Ag    -0.333645

    Alpha Virtual:

       2B2u   -0.198547     1B1u   -0.188731     1B3u   -0.188731
       3Ag    -0.168416     1B1g   -0.126059     1B3g   -0.126059
       3B2u   -0.069734     4Ag    -0.058642     2B1u   -0.054384
       2B3u   -0.054384     5Ag    -0.029952     2B3g   -0.027530
       2B1g   -0.027530     4B2u   -0.021310     1B2g    0.052790
       6Ag     0.052790     3B1u    0.059010     3B3u    0.059010
       5B2u    0.095054     6B2u    0.119625     1Au     0.119625
       7Ag     0.169059     3B3g    0.213532     3B1g    0.213532
       7B2u    0.299988

    Beta Occupied:

       1Ag    -2.230773     1B2u   -2.230747

    Beta Virtual:

       2Ag    -0.236654     2B2u   -0.192548     1B3u   -0.158831
       1B1u   -0.158831     3Ag    -0.149328     1B1g   -0.116203
       1B3g   -0.116203     3B2u   -0.061995     2B3u   -0.046665
       2B1u   -0.046665     4Ag    -0.040715     2B3g   -0.025718
       2B1g   -0.025718     5Ag    -0.025512     4B2u   -0.013986
       1B2g    0.078848     6Ag     0.078860     3B3u    0.089159
       3B1u    0.089159     5B2u    0.104261     1Au     0.136444
       6B2u    0.136456     7Ag     0.193565     3B1g    0.228993
       3B3g    0.228993     7B2u    0.314479

    Final Occupation by Irrep:
             Ag   B1g   B2g   B3g    Au   B1u   B2u   B3u
    DOCC [     1,    0,    0,    0,    0,    0,    1,    0 ]
    SOCC [     1,    0,    0,    0,    0,    0,    0,    0 ]
    NA   [     2,    0,    0,    0,    0,    0,    1,    0 ]
    NB   [     1,    0,    0,    0,    0,    0,    1,    0 ]

  @DF-UKS Final Energy:   -14.82325858872200

   => Energetics <=

    Nuclear Repulsion Energy =              1.5434923467448487
    One-Electron Energy =                 -21.3898809213070891
    Two-Electron Energy =                   7.8984740205485124
    DFT Exchange-Correlation Energy =      -2.8753440347082679
    Empirical Dispersion Energy =           0.0000000000000000
    VV10 Nonlocal Energy =                  0.0000000000000000
    Total Energy =                        -14.8232585887219965

  UHF NO Occupations:
  HONO-2 :    1 Ag 1.9999995
  HONO-1 :    1B2u 1.9999994
  HONO-0 :    2 Ag 1.0000000
  LUNO+0 :    2B2u 0.0000006
  LUNO+1 :    3 Ag 0.0000005
  LUNO+2 :    4 Ag 0.0000000
  LUNO+3 :    3B2u 0.0000000

Computation Completed

Properties will be evaluated at   0.000000,   0.000000,   0.000000 [a0]

Properties computed using the SCF density matrix

 Multipole Moments:

 ------------------------------------------------------------------------------------
     Multipole            Electronic (a.u.)      Nuclear  (a.u.)        Total (a.u.)
 ------------------------------------------------------------------------------------

 L = 1.  Multiply by 2.5417464519 to convert [e a0] to [Debye]
 Dipole X            :          0.0000000            0.0000000            0.0000000
 Dipole Y            :          0.0000000            0.0000000            0.0000000
 Dipole Z            :          0.0000000            0.0000000            0.0000000
 Magnitude           :                                                    0.0000000

 ------------------------------------------------------------------------------------

*** tstop() called on Joses-MacBook-Pro-2.local at Thu Jul 17 12:42:43 2025
Module time:
	user time   =       0.66 seconds =       0.01 minutes
	system time =       3.05 seconds =       0.05 minutes
	total time  =          0 seconds =       0.00 minutes
Total time:
	user time   =      16.72 seconds =       0.28 minutes
	system time =      58.96 seconds =       0.98 minutes
	total time  =          8 seconds =       0.13 minutes

*** tstart() called on Joses-MacBook-Pro-2.local
*** at Thu Jul 17 12:42:43 2025

         ------------------------------------------------------------
                                   SCF GRAD
                          Rob Parrish, Justin Turney,
                       Andy Simmonett, and Alex Sokolov
         ------------------------------------------------------------

  ==> Geometry <==

    Molecular point group: d2h
    Full point group: D_inf_h

    Geometry (in Angstrom), charge = 1, multiplicity = 2:

       Center              X                  Y                   Z               Mass
    ------------   -----------------  -----------------  -----------------  -----------------
         LI          -0.000000000000     1.542798351438     0.000000000000     7.016003436600
         LI           0.000000000000    -1.542798351438     0.000000000000     7.016003436600

  Nuclear repulsion =    1.543492346744849

  ==> Basis Set <==

  Basis Set: CC-PVDZ
    Blend: CC-PVDZ
    Number of shells: 12
    Number of basis functions: 28
    Number of Cartesian functions: 30
    Spherical Harmonics?: true
    Max angular momentum: 2

  ==> DFJKGrad: Density-Fitted SCF Gradients <==

    Gradient:                    1
    J tasked:                  Yes
    K tasked:                  Yes
    wK tasked:                  No
    OpenMP threads:              1
    Integrals threads:           1
    Memory [MiB]:              375
    Schwarz Cutoff:          1E-12
    Fitting Condition:       1E-10

   => Auxiliary Basis Set <=

  Basis Set: (CC-PVDZ AUX)
    Blend: DEF2-UNIVERSAL-JKFIT
    Number of shells: 34
    Number of basis functions: 102
    Number of Cartesian functions: 120
    Spherical Harmonics?: true
    Max angular momentum: 3

  ==> DFT Potential <==

   => LibXC <=

    Version 6.2.2
    S. Lehtola, C. Steigemann, M. J.T. Oliveira, and M. A.L. Marques.,  SoftwareX 7, 1â€“5 (2018) (10.1016/j.softx.2017.11.002)

   => Composite Functional: B3LYP <=

    B3LYP Hyb-GGA Exchange-Correlation Functional

    P. J. Stephens, F. J. Devlin, C. F. Chabalowski, and M. J. Frisch.,  J. Phys. Chem. 98, 11623 (1994) (10.1021/j100096a001)

    Deriv               =              1
    GGA                 =           TRUE
    Meta                =          FALSE

    Exchange Hybrid     =           TRUE
    MP2 Hybrid          =          FALSE

   => Exchange Functionals <=

    0.0800   Slater exchange
    0.7200         Becke 88

   => Exact (HF) Exchange <=

    0.2000               HF

   => Correlation Functionals <=

    0.1900   Vosko, Wilk & Nusair (VWN5_RPA)
    0.8100   Lee, Yang & Parr

   => LibXC Density Thresholds  <==

    XC_HYB_GGA_XC_B3LYP:  1.00E-15

   => Molecular Quadrature <=

    Radial Scheme          =       TREUTLER
    Pruning Scheme         =           NONE
    Nuclear Scheme         =       TREUTLER

    Blocking Scheme        =         OCTREE
    BS radius alpha        =              1
    Pruning alpha          =              1
    Radial Points          =             75
    Spherical Points       =            302
    Total Points           =          44076
    Total Blocks           =            444
    Max Points             =            256
    Max Functions          =             28
    Weights Tolerance      =       1.00E-15

  -Total Gradient:
     Atom            X                  Y                   Z
    ------   -----------------  -----------------  -----------------
       1        0.000000000000    -0.000003217705     0.000000000000
       2       -0.000000000000     0.000003217705     0.000000000000

*** tstop() called on Joses-MacBook-Pro-2.local at Thu Jul 17 12:42:43 2025
Module time:
	user time   =       0.37 seconds =       0.01 minutes
	system time =       1.24 seconds =       0.02 minutes
	total time  =          0 seconds =       0.00 minutes
Total time:
	user time   =      17.10 seconds =       0.29 minutes
	system time =      60.20 seconds =       1.00 minutes
	total time  =          8 seconds =       0.13 minutes

    			-----------------------------------------

    			 OPTKING 3.0: for geometry optimizations

    			     By R.A. King, Bethel University

    			        with contributions from

    			    A.V. Copan, J. Cayton, A. Heide

    			-----------------------------------------

	                            ===> Fragment 1 <==

	 Z (Atomic Numbers)          Masses                          Geom
	       3.000000             7.016003         -0.00000000  2.91546635  0.00000000
	       3.000000             7.016003          0.00000000 -2.91546635  0.00000000

	 - Coordinate -           - BOHR/RAD -       - ANG/DEG -
	 R(1,2)           =         5.830933           3.085597

	        --- Internal Coordinate Step in ANG or DEG, aJ/ANG or AJ/DEG ---
	-------------------------------------------------------------------------------
	           Coordinate      Previous         Force          Change          New
	           ----------      --------        ------          ------        ------
	               R(1,2)       3.08560        0.00003        0.00018       3.08577
	-------------------------------------------------------------------------------

	                                 ==> Convergence Check <==

	Measures of convergence in internal coordinates in au.

	Criteria marked as inactive (o), active & met (*), and active & unmet ( ).

	----------------------------------------------------------------------------------------------
	   Step    Total Energy     Delta E     Max Force     RMS Force      Max Disp      RMS Disp
	----------------------------------------------------------------------------------------------
	  Convergence Criteria     1.00e-06 *    3.00e-04 *             o    1.20e-03 *             o
	----------------------------------------------------------------------------------------------
	    13     -14.82325859   -3.20e-08 *    3.22e-06 *    3.22e-06 o    3.36e-04 *    3.36e-04 o  ~
	----------------------------------------------------------------------------------------------

Next Geometry in Ang
	Fragment 1 (Ang)

	   Li  -0.0000000000   1.5428872398   0.0000000000
	   Li   0.0000000000  -1.5428872398   0.0000000000

    Final optimized geometry and variables:
    Molecular point group: d2h
    Full point group: D_inf_h

    Geometry (in Angstrom), charge = 1, multiplicity = 2:

    LI          -0.000000000000     1.542798351438     0.000000000000
    LI           0.000000000000    -1.542798351438     0.000000000000

    Psi4 stopped on: Thursday, 17 July 2025 12:42PM
    Psi4 wall time for execution: 0:00:09.19

*** Psi4 exiting successfully. Buy a developer a beer!
