                               Psi4 1.9.1 release

  ==> Input File <==

--------------------------------------------------------------------------
molecule {
1 2
O   0.00000        0.60000        0.00000
S   0.00000       -0.60000        0.00000
}

set {
basis              cc-pvdz
reference          uks
maxiter            500
geom_maxiter       500
DAMPING_PERCENTAGE 1
guess              SAP
}

optimize('b3lyp')
--------------------------------------------------------------------------

    Molecular point group: c2v
  Charge       = 1
  Multiplicity = 2
  Basis Set: CC-PVDZ
    Blend: CC-PVDZ
  Basis Set: (CC-PVDZ AUX)
    Blend: CC-PVDZ-JKFIT
  @DF-UKS Final Energy:  -472.84956999190308
    Total Energy =                       -472.8495699919030812
 Dipole X            :          0.0000000            0.0000000            0.0000000
 Dipole Y            :          0.0000000            0.0000000            0.0000000
 Dipole Z            :         -0.7398926           -0.0067162           -0.7466087
 Magnitude           :                                                    0.7466087
    Molecular point group: c2v
  Basis Set: CC-PVDZ
    Blend: CC-PVDZ
  Basis Set: (CC-PVDZ AUX)
    Blend: CC-PVDZ-JKFIT
  Basis Set: CC-PVDZ
    Blend: CC-PVDZ
  Basis Set: (CC-PVDZ AUX)
    Blend: CC-PVDZ-JKFIT
  @DF-UKS Final Energy:  -472.94416689418364
    Total Energy =                       -472.9441668941836383
  Basis Set: CC-PVDZ
    Blend: CC-PVDZ
  Basis Set: (CC-PVDZ AUX)
    Blend: CC-PVDZ-JKFIT
  Basis Set: CC-PVDZ
    Blend: CC-PVDZ
  @DF-UKS Final Energy:  -472.97970301759784
    Total Energy =                       -472.9797030175978421
  @DF-UKS Final Energy:  -472.98701103112609
    Total Energy =                       -472.9870110311260873
  @DF-UKS Final Energy:  -472.98883500608446
    Total Energy =                       -472.9888350060844573
  @DF-UKS Final Energy:  -472.98933923953325
    Total Energy =                       -472.9893392395332512
  @DF-UKS Final Energy:  -472.98951786884311
    Total Energy =                       -472.9895178688431088
  Basis Set: (CC-PVDZ AUX)
    Blend: CC-PVDZ-JKFIT
  Basis Set: CC-PVDZ
    Blend: CC-PVDZ
  Basis Set: (CC-PVDZ AUX)
    Blend: CC-PVDZ-JKFIT
  @DF-UKS Final Energy:  -472.98954833060645
    Total Energy =                       -472.9895483306065103
  Basis Set: CC-PVDZ
    Blend: CC-PVDZ
  Basis Set: (CC-PVDZ AUX)
    Blend: CC-PVDZ-JKFIT
  Charge       = 1
  Multiplicity = 2
  Basis Set: CC-PVDZ
    Blend: CC-PVDZ
  Basis Set: (CC-PVDZ AUX)
    Blend: CC-PVDZ-JKFIT

    Orbital Energies [Eh]
    ---------------------

    Alpha Occupied:

       1A1   -89.377870     2A1   -19.601527     3A1    -8.430094
       1B1    -6.393583     4A1    -6.390557     1B2    -6.389582
       5A1    -1.467827     6A1    -1.021262     2B2    -0.807659
       7A1    -0.798665     2B1    -0.785648     3B2    -0.593756

    Alpha Virtual:

       3B1    -0.509381     8A1    -0.284801     9A1     0.129359
       4B1     0.140981     4B2     0.141503     1A2     0.177692
      10A1     0.179064    11A1     0.180468     5B2     0.250510
       5B1     0.257676    12A1     0.473590     6B2     0.649538
       6B1     0.655383    13A1     0.777010    14A1     1.306269
       2A2     2.176855    15A1     2.178100     7B2     2.349017
       7B1     2.349251    16A1     2.869981

    Beta Occupied:

       1A1   -89.373767     2A1   -19.590022     3A1    -8.425969
       1B1    -6.391398     4A1    -6.388388     1B2    -6.375496
       5A1    -1.446788     6A1    -0.986614     7A1    -0.781414
       2B1    -0.775918     2B2    -0.744069

    Beta Virtual:

       3B1    -0.496992     3B2    -0.459954     8A1    -0.271926
       9A1     0.141178     4B1     0.144265     4B2     0.165662
      10A1     0.183879     1A2     0.215300    11A1     0.215462
       5B1     0.262675     5B2     0.293734    12A1     0.484512
       6B1     0.661329     6B2     0.681836    13A1     0.788955
      14A1     1.318401    15A1     2.210305     2A2     2.210410
       7B1     2.354901     7B2     2.381077    16A1     2.885885

    Final Occupation by Irrep:
             A1    A2    B1    B2
    DOCC [     7,    0,    2,    2 ]
    SOCC [     0,    0,    0,    1 ]
    NA   [     7,    0,    2,    3 ]
    NB   [     7,    0,    2,    2 ]

  @DF-UKS Final Energy:  -472.98954987624541

   => Energetics <=

    Nuclear Repulsion Energy =             46.6047319805124616
    One-Electron Energy =                -736.3799167598444910
    Two-Electron Energy =                 244.0930456727688522
    DFT Exchange-Correlation Energy =     -27.3074107696822246
    Empirical Dispersion Energy =           0.0000000000000000
    VV10 Nonlocal Energy =                  0.0000000000000000
    Total Energy =                       -472.9895498762453485

  UHF NO Occupations:
  HONO-2 :    7 A1 1.9994038
  HONO-1 :    2 B2 1.9992210
  HONO-0 :    3 B2 1.0000000
  LUNO+0 :    4 B2 0.0007790
  LUNO+1 :    8 A1 0.0005962
  LUNO+2 :    9 A1 0.0000820
  LUNO+3 :    3 B1 0.0000515

Computation Completed

Properties will be evaluated at   0.000000,   0.000000,   0.000000 [a0]

Properties computed using the SCF density matrix

 Multipole Moments:

 ------------------------------------------------------------------------------------
     Multipole            Electronic (a.u.)      Nuclear  (a.u.)        Total (a.u.)
 ------------------------------------------------------------------------------------

 L = 1.  Multiply by 2.5417464519 to convert [e a0] to [Debye]
 Dipole X            :          0.0000000            0.0000000            0.0000000
 Dipole Y            :          0.0000000            0.0000000            0.0000000
 Dipole Z            :         -0.9022062           -0.0081344           -0.9103406
 Magnitude           :                                                    0.9103406

 ------------------------------------------------------------------------------------

*** tstop() called on Joses-MacBook-Pro-2.local at Thu Jul 17 14:10:44 2025
Module time:
	user time   =       2.32 seconds =       0.04 minutes
	system time =       5.21 seconds =       0.09 minutes
	total time  =          1 seconds =       0.02 minutes
Total time:
	user time   =      33.87 seconds =       0.56 minutes
	system time =      70.26 seconds =       1.17 minutes
	total time  =         11 seconds =       0.18 minutes

*** tstart() called on Joses-MacBook-Pro-2.local
*** at Thu Jul 17 14:10:44 2025

         ------------------------------------------------------------
                                   SCF GRAD
                          Rob Parrish, Justin Turney,
                       Andy Simmonett, and Alex Sokolov
         ------------------------------------------------------------

  ==> Geometry <==

    Molecular point group: c2v
    Full point group: C_inf_v

    Geometry (in Angstrom), charge = 1, multiplicity = 2:

       Center              X                  Y                   Z               Mass
    ------------   -----------------  -----------------  -----------------  -----------------
         O            0.000000000000     0.000000000000     0.968744902263    15.994914619570
         S            0.000000000000     0.000000000000    -0.484641483353    31.972071174400

  Nuclear repulsion =   46.604731980512462

  ==> Basis Set <==

  Basis Set: CC-PVDZ
    Blend: CC-PVDZ
    Number of shells: 14
    Number of basis functions: 32
    Number of Cartesian functions: 34
    Spherical Harmonics?: true
    Max angular momentum: 2

  ==> DFJKGrad: Density-Fitted SCF Gradients <==

    Gradient:                    1
    J tasked:                  Yes
    K tasked:                  Yes
    wK tasked:                  No
    OpenMP threads:              1
    Integrals threads:           1
    Memory [MiB]:              375
    Schwarz Cutoff:          1E-12
    Fitting Condition:       1E-10

   => Auxiliary Basis Set <=

  Basis Set: (CC-PVDZ AUX)
    Blend: CC-PVDZ-JKFIT
    Number of shells: 60
    Number of basis functions: 182
    Number of Cartesian functions: 211
    Spherical Harmonics?: true
    Max angular momentum: 3

  ==> DFT Potential <==

   => LibXC <=

    Version 6.2.2
    S. Lehtola, C. Steigemann, M. J.T. Oliveira, and M. A.L. Marques.,  SoftwareX 7, 1â€“5 (2018) (10.1016/j.softx.2017.11.002)

   => Composite Functional: B3LYP <=

    B3LYP Hyb-GGA Exchange-Correlation Functional

    P. J. Stephens, F. J. Devlin, C. F. Chabalowski, and M. J. Frisch.,  J. Phys. Chem. 98, 11623 (1994) (10.1021/j100096a001)

    Deriv               =              1
    GGA                 =           TRUE
    Meta                =          FALSE

    Exchange Hybrid     =           TRUE
    MP2 Hybrid          =          FALSE

   => Exchange Functionals <=

    0.0800   Slater exchange
    0.7200         Becke 88

   => Exact (HF) Exchange <=

    0.2000               HF

   => Correlation Functionals <=

    0.1900   Vosko, Wilk & Nusair (VWN5_RPA)
    0.8100   Lee, Yang & Parr

   => LibXC Density Thresholds  <==

    XC_HYB_GGA_XC_B3LYP:  1.00E-15

   => Molecular Quadrature <=

    Radial Scheme          =       TREUTLER
    Pruning Scheme         =           NONE
    Nuclear Scheme         =       TREUTLER

    Blocking Scheme        =         OCTREE
    BS radius alpha        =              1
    Pruning alpha          =              1
    Radial Points          =             75
    Spherical Points       =            302
    Total Points           =          41831
    Total Blocks           =            376
    Max Points             =            256
    Max Functions          =             32
    Weights Tolerance      =       1.00E-15

  -Total Gradient:
     Atom            X                  Y                   Z
    ------   -----------------  -----------------  -----------------
       1        0.000000000000     0.000000000000    -0.000201900343
       2        0.000000000000     0.000000000000     0.000168884543

*** tstop() called on Joses-MacBook-Pro-2.local at Thu Jul 17 14:10:44 2025
Module time:
	user time   =       0.87 seconds =       0.01 minutes
	system time =       1.61 seconds =       0.03 minutes
	total time  =          0 seconds =       0.00 minutes
Total time:
	user time   =      34.74 seconds =       0.58 minutes
	system time =      71.88 seconds =       1.20 minutes
	total time  =         11 seconds =       0.18 minutes

    			-----------------------------------------

    			 OPTKING 3.0: for geometry optimizations

    			     By R.A. King, Bethel University

    			        with contributions from

    			    A.V. Copan, J. Cayton, A. Heide

    			-----------------------------------------

	                            ===> Fragment 1 <==

	 Z (Atomic Numbers)          Masses                          Geom
	       8.000000            15.994915          0.00000000  0.00000000  1.83066255
	      16.000000            31.972071          0.00000000  0.00000000 -0.91583967

	 - Coordinate -           - BOHR/RAD -       - ANG/DEG -
	 R(1,2)           =         2.746502           1.453386

	        --- Internal Coordinate Step in ANG or DEG, aJ/ANG or AJ/DEG ---
	-------------------------------------------------------------------------------
	           Coordinate      Previous         Force          Change          New
	           ----------      --------        ------          ------        ------
	               R(1,2)       1.45339        0.00153        0.00013       1.45352
	-------------------------------------------------------------------------------

	                                 ==> Convergence Check <==

	Measures of convergence in internal coordinates in au.

	Criteria marked as inactive (o), active & met (*), and active & unmet ( ).

	----------------------------------------------------------------------------------------------
	   Step    Total Energy     Delta E     Max Force     RMS Force      Max Disp      RMS Disp
	----------------------------------------------------------------------------------------------
	  Convergence Criteria     1.00e-06 *    3.00e-04 *             o    1.20e-03 *             o
	----------------------------------------------------------------------------------------------
	     9    -472.98954988   -1.55e-06      1.85e-04 *    1.85e-04 o    2.46e-04 *    2.46e-04 o  ~
	----------------------------------------------------------------------------------------------

Next Geometry in Ang
	Fragment 1 (Ang)

	    O   0.0000000000   0.0000000000   0.9688100763
	    S   0.0000000000   0.0000000000  -0.4847066574

    Final optimized geometry and variables:
    Molecular point group: c2v
    Full point group: C_inf_v

    Geometry (in Angstrom), charge = 1, multiplicity = 2:

    O            0.000000000000     0.000000000000     0.968744902263
    S            0.000000000000     0.000000000000    -0.484641483353

    Psi4 stopped on: Thursday, 17 July 2025 02:10PM
    Psi4 wall time for execution: 0:00:11.87

*** Psi4 exiting successfully. Buy a developer a beer!
