                               Psi4 1.9.1 release

  ==> Input File <==

--------------------------------------------------------------------------
molecule {
1 2
N   0.00000        0.60000        0.00000
N   0.00000       -0.60000        0.00000
}

set {
basis              cc-pvdz
reference          uks
maxiter            500
geom_maxiter       500
DAMPING_PERCENTAGE 1
guess              SAP
}

optimize('b3lyp')
--------------------------------------------------------------------------

    Molecular point group: d2h
  Charge       = 1
  Multiplicity = 2
  Basis Set: CC-PVDZ
    Blend: CC-PVDZ
  Basis Set: (CC-PVDZ AUX)
    Blend: CC-PVDZ-JKFIT
  @DF-UKS Final Energy:  -108.94460253844984
    Total Energy =                       -108.9446025384498427
 Dipole X            :          0.0000000            0.0000000            0.0000000
 Dipole Y            :          0.0000000            0.0000000            0.0000000
 Dipole Z            :          0.0000000            0.0000000            0.0000000
 Magnitude           :                                                    0.0000000
    Molecular point group: d2h
  Basis Set: CC-PVDZ
    Blend: CC-PVDZ
  Basis Set: (CC-PVDZ AUX)
    Blend: CC-PVDZ-JKFIT
  Basis Set: CC-PVDZ
    Blend: CC-PVDZ
  Basis Set: (CC-PVDZ AUX)
    Blend: CC-PVDZ-JKFIT
  @DF-UKS Final Energy:  -108.95945479107847
    Total Energy =                       -108.9594547910784712
  Basis Set: CC-PVDZ
    Blend: CC-PVDZ
  Basis Set: (CC-PVDZ AUX)
    Blend: CC-PVDZ-JKFIT
  Basis Set: CC-PVDZ
    Blend: CC-PVDZ
  Basis Set: (CC-PVDZ AUX)
    Blend: CC-PVDZ-JKFIT
  @DF-UKS Final Energy:  -108.95945603219290
    Total Energy =                       -108.9594560321929038
  Basis Set: CC-PVDZ
    Blend: CC-PVDZ
  Basis Set: (CC-PVDZ AUX)
    Blend: CC-PVDZ-JKFIT
  Charge       = 1
  Multiplicity = 2
  Basis Set: CC-PVDZ
    Blend: CC-PVDZ
  Basis Set: (CC-PVDZ AUX)
    Blend: CC-PVDZ-JKFIT

    Orbital Energies [Eh]
    ---------------------

    Alpha Occupied:

       1Ag   -14.939949     1B2u  -14.938538     2Ag    -1.570522
       2B2u   -1.020911     3Ag    -0.906030     1B3u   -0.884159
       1B1u   -0.884159

    Alpha Virtual:

       1B1g   -0.455162     1B3g   -0.455162     3B2u    0.061184
       4Ag     0.269254     2B1u    0.276385     2B3u    0.276385
       4B2u    0.358528     5Ag     0.375216     2B3g    0.419714
       2B1g    0.419714     5B2u    1.010317     1B2g    1.075750
       6Ag     1.075750     3B1u    1.113405     3B3u    1.113405
       1Au     1.550778     6B2u    1.550778     7Ag     2.064662
       3B3g    2.186471     3B1g    2.186471     7B2u    2.391017

    Beta Occupied:

       1Ag   -14.927224     1B2u  -14.926058     2Ag    -1.542220
       2B2u   -0.929564     1B3u   -0.870596     1B1u   -0.870596

    Beta Virtual:

       3Ag    -0.725712     1B1g   -0.431587     1B3g   -0.431587
       3B2u    0.080327     2B1u    0.282967     2B3u    0.282967
       4Ag     0.293377     5Ag     0.413474     2B3g    0.428952
       2B1g    0.428952     4B2u    0.430139     5B2u    1.020230
       1B2g    1.084492     6Ag     1.084492     3B1u    1.157050
       3B3u    1.157050     1Au     1.563242     6B2u    1.563242
       7Ag     2.111381     3B3g    2.229353     3B1g    2.229353
       7B2u    2.448463

    Final Occupation by Irrep:
             Ag   B1g   B2g   B3g    Au   B1u   B2u   B3u
    DOCC [     2,    0,    0,    0,    0,    1,    2,    1 ]
    SOCC [     1,    0,    0,    0,    0,    0,    0,    0 ]
    NA   [     3,    0,    0,    0,    0,    1,    2,    1 ]
    NB   [     2,    0,    0,    0,    0,    1,    2,    1 ]

  @DF-UKS Final Energy:  -108.95945619199787

   => Energetics <=

    Nuclear Repulsion Energy =             23.2290702576477273
    One-Electron Energy =                -187.4523389007382548
    Two-Electron Energy =                  65.9808180400433884
    DFT Exchange-Correlation Energy =     -10.7170055889507196
    Empirical Dispersion Energy =           0.0000000000000000
    VV10 Nonlocal Energy =                  0.0000000000000000
    Total Energy =                       -108.9594561919978730

  UHF NO Occupations:
  HONO-2 :    2 Ag 1.9999148
  HONO-1 :    2B2u 1.9984416
  HONO-0 :    3 Ag 1.0000000
  LUNO+0 :    3B2u 0.0015584
  LUNO+1 :    4 Ag 0.0000852
  LUNO+2 :    2B3u 0.0000625
  LUNO+3 :    2B1u 0.0000625

Computation Completed

Properties will be evaluated at   0.000000,   0.000000,   0.000000 [a0]

Properties computed using the SCF density matrix

 Multipole Moments:

 ------------------------------------------------------------------------------------
     Multipole            Electronic (a.u.)      Nuclear  (a.u.)        Total (a.u.)
 ------------------------------------------------------------------------------------

 L = 1.  Multiply by 2.5417464519 to convert [e a0] to [Debye]
 Dipole X            :          0.0000000            0.0000000            0.0000000
 Dipole Y            :          0.0000000            0.0000000            0.0000000
 Dipole Z            :          0.0000000            0.0000000            0.0000000
 Magnitude           :                                                    0.0000000

 ------------------------------------------------------------------------------------

*** tstop() called on Joses-MacBook-Pro-2.local at Thu Jul 17 13:47:47 2025
Module time:
	user time   =       2.07 seconds =       0.03 minutes
	system time =       3.41 seconds =       0.06 minutes
	total time  =          0 seconds =       0.00 minutes
Total time:
	user time   =      11.27 seconds =       0.19 minutes
	system time =      19.27 seconds =       0.32 minutes
	total time  =          3 seconds =       0.05 minutes

*** tstart() called on Joses-MacBook-Pro-2.local
*** at Thu Jul 17 13:47:47 2025

         ------------------------------------------------------------
                                   SCF GRAD
                          Rob Parrish, Justin Turney,
                       Andy Simmonett, and Alex Sokolov
         ------------------------------------------------------------

  ==> Geometry <==

    Molecular point group: d2h
    Full point group: D_inf_h

    Geometry (in Angstrom), charge = 1, multiplicity = 2:

       Center              X                  Y                   Z               Mass
    ------------   -----------------  -----------------  -----------------  -----------------
         N           -0.000000000000     0.558130029210     0.000000000000    14.003074004430
         N            0.000000000000    -0.558130029210     0.000000000000    14.003074004430

  Nuclear repulsion =   23.229070257647727

  ==> Basis Set <==

  Basis Set: CC-PVDZ
    Blend: CC-PVDZ
    Number of shells: 12
    Number of basis functions: 28
    Number of Cartesian functions: 30
    Spherical Harmonics?: true
    Max angular momentum: 2

  ==> DFJKGrad: Density-Fitted SCF Gradients <==

    Gradient:                    1
    J tasked:                  Yes
    K tasked:                  Yes
    wK tasked:                  No
    OpenMP threads:              1
    Integrals threads:           1
    Memory [MiB]:              375
    Schwarz Cutoff:          1E-12
    Fitting Condition:       1E-10

   => Auxiliary Basis Set <=

  Basis Set: (CC-PVDZ AUX)
    Blend: CC-PVDZ-JKFIT
    Number of shells: 48
    Number of basis functions: 140
    Number of Cartesian functions: 162
    Spherical Harmonics?: true
    Max angular momentum: 3

  ==> DFT Potential <==

   => LibXC <=

    Version 6.2.2
    S. Lehtola, C. Steigemann, M. J.T. Oliveira, and M. A.L. Marques.,  SoftwareX 7, 1â€“5 (2018) (10.1016/j.softx.2017.11.002)

   => Composite Functional: B3LYP <=

    B3LYP Hyb-GGA Exchange-Correlation Functional

    P. J. Stephens, F. J. Devlin, C. F. Chabalowski, and M. J. Frisch.,  J. Phys. Chem. 98, 11623 (1994) (10.1021/j100096a001)

    Deriv               =              1
    GGA                 =           TRUE
    Meta                =          FALSE

    Exchange Hybrid     =           TRUE
    MP2 Hybrid          =          FALSE

   => Exchange Functionals <=

    0.0800   Slater exchange
    0.7200         Becke 88

   => Exact (HF) Exchange <=

    0.2000               HF

   => Correlation Functionals <=

    0.1900   Vosko, Wilk & Nusair (VWN5_RPA)
    0.8100   Lee, Yang & Parr

   => LibXC Density Thresholds  <==

    XC_HYB_GGA_XC_B3LYP:  1.00E-15

   => Molecular Quadrature <=

    Radial Scheme          =       TREUTLER
    Pruning Scheme         =           NONE
    Nuclear Scheme         =       TREUTLER

    Blocking Scheme        =         OCTREE
    BS radius alpha        =              1
    Pruning alpha          =              1
    Radial Points          =             75
    Spherical Points       =            302
    Total Points           =          41824
    Total Blocks           =            384
    Max Points             =            255
    Max Functions          =             28
    Weights Tolerance      =       1.00E-15

  -Total Gradient:
     Atom            X                  Y                   Z
    ------   -----------------  -----------------  -----------------
       1       -0.000000000000     0.000266837483     0.000000000000
       2        0.000000000000    -0.000266837483     0.000000000000

*** tstop() called on Joses-MacBook-Pro-2.local at Thu Jul 17 13:47:48 2025
Module time:
	user time   =       0.32 seconds =       0.01 minutes
	system time =       1.24 seconds =       0.02 minutes
	total time  =          1 seconds =       0.02 minutes
Total time:
	user time   =      11.60 seconds =       0.19 minutes
	system time =      20.51 seconds =       0.34 minutes
	total time  =          4 seconds =       0.07 minutes

    			-----------------------------------------

    			 OPTKING 3.0: for geometry optimizations

    			     By R.A. King, Bethel University

    			        with contributions from

    			    A.V. Copan, J. Cayton, A. Heide

    			-----------------------------------------

	                            ===> Fragment 1 <==

	 Z (Atomic Numbers)          Masses                          Geom
	       7.000000            14.003074         -0.00000000  1.05471290  0.00000000
	       7.000000            14.003074          0.00000000 -1.05471290  0.00000000

	 - Coordinate -           - BOHR/RAD -       - ANG/DEG -
	 R(1,2)           =         2.109426           1.116260

	        --- Internal Coordinate Step in ANG or DEG, aJ/ANG or AJ/DEG ---
	-------------------------------------------------------------------------------
	           Coordinate      Previous         Force          Change          New
	           ----------      --------        ------          ------        ------
	               R(1,2)       1.11626       -0.00220       -0.00013       1.11613
	-------------------------------------------------------------------------------

	                                 ==> Convergence Check <==

	Measures of convergence in internal coordinates in au.

	Criteria marked as inactive (o), active & met (*), and active & unmet ( ).

	----------------------------------------------------------------------------------------------
	   Step    Total Energy     Delta E     Max Force     RMS Force      Max Disp      RMS Disp
	----------------------------------------------------------------------------------------------
	  Convergence Criteria     1.00e-06 *    3.00e-04 *             o    1.20e-03 *             o
	----------------------------------------------------------------------------------------------
	     4    -108.95945619   -1.60e-07 *    2.67e-04 *    2.67e-04 o    2.51e-04 *    2.51e-04 o  ~
	----------------------------------------------------------------------------------------------

Next Geometry in Ang
	Fragment 1 (Ang)

	    N  -0.0000000000   0.5580637232   0.0000000000
	    N   0.0000000000  -0.5580637232   0.0000000000

    Final optimized geometry and variables:
    Molecular point group: d2h
    Full point group: D_inf_h

    Geometry (in Angstrom), charge = 1, multiplicity = 2:

    N           -0.000000000000     0.558130029210     0.000000000000
    N            0.000000000000    -0.558130029210     0.000000000000

    Psi4 stopped on: Thursday, 17 July 2025 01:47PM
    Psi4 wall time for execution: 0:00:03.69

*** Psi4 exiting successfully. Buy a developer a beer!
