                               Psi4 1.9.1 release

  ==> Input File <==

--------------------------------------------------------------------------
molecule {
1 2
O   0.00000        0.60000        0.00000
Mg   0.00000       -0.60000        0.00000
}

set {
basis              cc-pvdz
reference          uks
maxiter            500
geom_maxiter       500
DAMPING_PERCENTAGE 1
guess              SAP
}

optimize('b3lyp')
--------------------------------------------------------------------------

    Molecular point group: c2v
  Charge       = 1
  Multiplicity = 2
  Basis Set: CC-PVDZ
    Blend: CC-PVDZ
  Basis Set: (CC-PVDZ AUX)
    Blend: CC-PVDZ-JKFIT + DEF2-UNIVERSAL-JKFIT
  @DF-UKS Final Energy:  -274.56418027376355
    Total Energy =                       -274.5641802737635544
 Dipole X            :          0.0000000            0.0000000            0.0000000
 Dipole Y            :          0.0000000            0.0000000            0.0000000
 Dipole Z            :         -2.4951189           -0.0033262           -2.4984451
 Magnitude           :                                                    2.4984451
    Molecular point group: c2v
  Basis Set: CC-PVDZ
    Blend: CC-PVDZ
  Basis Set: (CC-PVDZ AUX)
    Blend: CC-PVDZ-JKFIT + DEF2-UNIVERSAL-JKFIT
  Basis Set: CC-PVDZ
    Blend: CC-PVDZ
  Basis Set: (CC-PVDZ AUX)
    Blend: CC-PVDZ-JKFIT + DEF2-UNIVERSAL-JKFIT
  @DF-UKS Final Energy:  -274.75969723399447
    Total Energy =                       -274.7596972339944728
  Basis Set: CC-PVDZ
    Blend: CC-PVDZ
  Basis Set: (CC-PVDZ AUX)
    Blend: CC-PVDZ-JKFIT + DEF2-UNIVERSAL-JKFIT
  Basis Set: CC-PVDZ
    Blend: CC-PVDZ
  @DF-UKS Final Energy:  -274.85841985281218
    Total Energy =                       -274.8584198528121760
  @DF-UKS Final Energy:  -274.88884756064039
    Total Energy =                       -274.8888475606403858
  @DF-UKS Final Energy:  -274.90397617462293
    Total Energy =                       -274.9039761746229260
  @DF-UKS Final Energy:  -274.91016394215364
    Total Energy =                       -274.9101639421536447
  @DF-UKS Final Energy:  -274.91149021762271
    Total Energy =                       -274.9114902176227133
  @DF-UKS Final Energy:  -274.91180778774475
    Total Energy =                       -274.9118077877447490
  @DF-UKS Final Energy:  -274.91189988653497
    Total Energy =                       -274.9118998865349681
  Basis Set: (CC-PVDZ AUX)
    Blend: CC-PVDZ-JKFIT + DEF2-UNIVERSAL-JKFIT
  Basis Set: CC-PVDZ
    Blend: CC-PVDZ
  Basis Set: (CC-PVDZ AUX)
    Blend: CC-PVDZ-JKFIT + DEF2-UNIVERSAL-JKFIT
  @DF-UKS Final Energy:  -274.91191482222894
    Total Energy =                       -274.9119148222289368
  Basis Set: CC-PVDZ
    Blend: CC-PVDZ
  Basis Set: (CC-PVDZ AUX)
    Blend: CC-PVDZ-JKFIT + DEF2-UNIVERSAL-JKFIT
  Charge       = 1
  Multiplicity = 2
  Basis Set: CC-PVDZ
    Blend: CC-PVDZ
  Basis Set: (CC-PVDZ AUX)
    Blend: CC-PVDZ-JKFIT + DEF2-UNIVERSAL-JKFIT

    Orbital Energies [Eh]
    ---------------------

    Alpha Occupied:

       1A1   -47.218657     2A1   -19.362295     3A1    -3.490873
       4A1    -2.235622     1B1    -2.233999     1B2    -2.233999
       5A1    -1.121575     6A1    -0.605472     2B2    -0.509572
       2B1    -0.509572

    Alpha Virtual:

       7A1    -0.381814     3B1    -0.228237     3B2    -0.228237
       8A1    -0.160288     9A1    -0.086440     4B1    -0.034075
       4B2    -0.034075    10A1     0.010878     1A2     0.059734
      11A1     0.059734     5B2     0.118778     5B1     0.118778
      12A1     0.298238    13A1     0.826743     6B1     0.844662
       6B2     0.844662    14A1     1.688317    15A1     2.396826
       7B1     2.417538     7B2     2.417538    16A1     2.420202
       2A2     2.420234

    Beta Occupied:

       1A1   -47.217623     2A1   -19.338902     3A1    -3.489205
       1B1    -2.233108     1B2    -2.233108     4A1    -2.233081
       5A1    -1.050602     2B2    -0.483185     2B1    -0.483185

    Beta Virtual:

       6A1    -0.417828     7A1    -0.336885     3B1    -0.225192
       3B2    -0.225192     8A1    -0.153563     9A1    -0.085769
       4B1    -0.033391     4B2    -0.033391    10A1     0.024528
       1A2     0.060820    11A1     0.060820     5B2     0.128823
       5B1     0.128823    12A1     0.312106     6B1     0.860098
       6B2     0.860098    13A1     0.915989    14A1     1.723693
      15A1     2.436007     2A2     2.436036     7B1     2.492703
       7B2     2.492703    16A1     2.494873

    Final Occupation by Irrep:
             A1    A2    B1    B2
    DOCC [     5,    0,    2,    2 ]
    SOCC [     1,    0,    0,    0 ]
    NA   [     6,    0,    2,    2 ]
    NB   [     5,    0,    2,    2 ]

  @DF-UKS Final Energy:  -274.91191573079499

   => Energetics <=

    Nuclear Repulsion Energy =             29.2433262763138657
    One-Electron Energy =                -435.6740170238153951
    Two-Electron Energy =                 151.5760184084289506
    DFT Exchange-Correlation Energy =     -20.0572433917223947
    Empirical Dispersion Energy =           0.0000000000000000
    VV10 Nonlocal Energy =                  0.0000000000000000
    Total Energy =                       -274.9119157307949877

  UHF NO Occupations:
  HONO-2 :    2 B2 1.9993965
  HONO-1 :    2 B1 1.9993965
  HONO-0 :    6 A1 1.0000000
  LUNO+0 :    3 B1 0.0006035
  LUNO+1 :    3 B2 0.0006035
  LUNO+2 :    7 A1 0.0003559
  LUNO+3 :    8 A1 0.0000008

Computation Completed

Properties will be evaluated at   0.000000,   0.000000,   0.000000 [a0]

Properties computed using the SCF density matrix

 Multipole Moments:

 ------------------------------------------------------------------------------------
     Multipole            Electronic (a.u.)      Nuclear  (a.u.)        Total (a.u.)
 ------------------------------------------------------------------------------------

 L = 1.  Multiply by 2.5417464519 to convert [e a0] to [Debye]
 Dipole X            :          0.0000000            0.0000000            0.0000000
 Dipole Y            :          0.0000000            0.0000000            0.0000000
 Dipole Z            :         -3.2767392           -0.0048152           -3.2815543
 Magnitude           :                                                    3.2815543

 ------------------------------------------------------------------------------------

*** tstop() called on Joses-MacBook-Pro-2.local at Thu Jul 17 14:07:02 2025
Module time:
	user time   =       2.02 seconds =       0.03 minutes
	system time =       4.61 seconds =       0.08 minutes
	total time  =          1 seconds =       0.02 minutes
Total time:
	user time   =      37.20 seconds =       0.62 minutes
	system time =      92.16 seconds =       1.54 minutes
	total time  =         14 seconds =       0.23 minutes

*** tstart() called on Joses-MacBook-Pro-2.local
*** at Thu Jul 17 14:07:02 2025

         ------------------------------------------------------------
                                   SCF GRAD
                          Rob Parrish, Justin Turney,
                       Andy Simmonett, and Alex Sokolov
         ------------------------------------------------------------

  ==> Geometry <==

    Molecular point group: c2v
    Full point group: C_inf_v

    Geometry (in Angstrom), charge = 1, multiplicity = 2:

       Center              X                  Y                   Z               Mass
    ------------   -----------------  -----------------  -----------------  -----------------
         O            0.000000000000     0.000000000000     1.042182457203    15.994914619570
         MG           0.000000000000     0.000000000000    -0.695000643800    23.985041697000

  Nuclear repulsion =   29.243326276313866

  ==> Basis Set <==

  Basis Set: CC-PVDZ
    Blend: CC-PVDZ
    Number of shells: 14
    Number of basis functions: 32
    Number of Cartesian functions: 34
    Spherical Harmonics?: true
    Max angular momentum: 2

  ==> DFJKGrad: Density-Fitted SCF Gradients <==

    Gradient:                    1
    J tasked:                  Yes
    K tasked:                  Yes
    wK tasked:                  No
    OpenMP threads:              1
    Integrals threads:           1
    Memory [MiB]:              375
    Schwarz Cutoff:          1E-12
    Fitting Condition:       1E-10

   => Auxiliary Basis Set <=

  Basis Set: (CC-PVDZ AUX)
    Blend: CC-PVDZ-JKFIT + DEF2-UNIVERSAL-JKFIT
    Number of shells: 58
    Number of basis functions: 182
    Number of Cartesian functions: 218
    Spherical Harmonics?: true
    Max angular momentum: 4

  ==> DFT Potential <==

   => LibXC <=

    Version 6.2.2
    S. Lehtola, C. Steigemann, M. J.T. Oliveira, and M. A.L. Marques.,  SoftwareX 7, 1â€“5 (2018) (10.1016/j.softx.2017.11.002)

   => Composite Functional: B3LYP <=

    B3LYP Hyb-GGA Exchange-Correlation Functional

    P. J. Stephens, F. J. Devlin, C. F. Chabalowski, and M. J. Frisch.,  J. Phys. Chem. 98, 11623 (1994) (10.1021/j100096a001)

    Deriv               =              1
    GGA                 =           TRUE
    Meta                =          FALSE

    Exchange Hybrid     =           TRUE
    MP2 Hybrid          =          FALSE

   => Exchange Functionals <=

    0.0800   Slater exchange
    0.7200         Becke 88

   => Exact (HF) Exchange <=

    0.2000               HF

   => Correlation Functionals <=

    0.1900   Vosko, Wilk & Nusair (VWN5_RPA)
    0.8100   Lee, Yang & Parr

   => LibXC Density Thresholds  <==

    XC_HYB_GGA_XC_B3LYP:  1.00E-15

   => Molecular Quadrature <=

    Radial Scheme          =       TREUTLER
    Pruning Scheme         =           NONE
    Nuclear Scheme         =       TREUTLER

    Blocking Scheme        =         OCTREE
    BS radius alpha        =              1
    Pruning alpha          =              1
    Radial Points          =             75
    Spherical Points       =            302
    Total Points           =          43420
    Total Blocks           =            407
    Max Points             =            255
    Max Functions          =             32
    Weights Tolerance      =       1.00E-15

  -Total Gradient:
     Atom            X                  Y                   Z
    ------   -----------------  -----------------  -----------------
       1        0.000000000000     0.000000000000    -0.000123530422
       2       -0.000000000000     0.000000000000     0.000080869904

*** tstop() called on Joses-MacBook-Pro-2.local at Thu Jul 17 14:07:02 2025
Module time:
	user time   =       0.88 seconds =       0.01 minutes
	system time =       2.15 seconds =       0.04 minutes
	total time  =          0 seconds =       0.00 minutes
Total time:
	user time   =      38.08 seconds =       0.63 minutes
	system time =      94.33 seconds =       1.57 minutes
	total time  =         14 seconds =       0.23 minutes

    			-----------------------------------------

    			 OPTKING 3.0: for geometry optimizations

    			     By R.A. King, Bethel University

    			        with contributions from

    			    A.V. Copan, J. Cayton, A. Heide

    			-----------------------------------------

	                            ===> Fragment 1 <==

	 Z (Atomic Numbers)          Masses                          Geom
	       8.000000            15.994915          0.00000000  0.00000000  1.96943942
	      12.000000            23.985042          0.00000000  0.00000000 -1.31336087

	 - Coordinate -           - BOHR/RAD -       - ANG/DEG -
	 R(1,2)           =         3.282800           1.737183

	        --- Internal Coordinate Step in ANG or DEG, aJ/ANG or AJ/DEG ---
	-------------------------------------------------------------------------------
	           Coordinate      Previous         Force          Change          New
	           ----------      --------        ------          ------        ------
	               R(1,2)       1.73718        0.00084        0.00021       1.73739
	-------------------------------------------------------------------------------

	                                 ==> Convergence Check <==

	Measures of convergence in internal coordinates in au.

	Criteria marked as inactive (o), active & met (*), and active & unmet ( ).

	----------------------------------------------------------------------------------------------
	   Step    Total Energy     Delta E     Max Force     RMS Force      Max Disp      RMS Disp
	----------------------------------------------------------------------------------------------
	  Convergence Criteria     1.00e-06 *    3.00e-04 *             o    1.20e-03 *             o
	----------------------------------------------------------------------------------------------
	    11    -274.91191573   -9.09e-07 *    1.02e-04 *    1.02e-04 o    3.97e-04 *    3.97e-04 o  ~
	----------------------------------------------------------------------------------------------

Next Geometry in Ang
	Fragment 1 (Ang)

	    O   0.0000000000   0.0000000000   1.0422874285
	   Mg   0.0000000000   0.0000000000  -0.6951056151

    Final optimized geometry and variables:
    Molecular point group: c2v
    Full point group: C_inf_v

    Geometry (in Angstrom), charge = 1, multiplicity = 2:

    O            0.000000000000     0.000000000000     1.042182457203
    MG           0.000000000000     0.000000000000    -0.695000643800

    Psi4 stopped on: Thursday, 17 July 2025 02:07PM
    Psi4 wall time for execution: 0:00:14.69

*** Psi4 exiting successfully. Buy a developer a beer!
