                               Psi4 1.9.1 release

  ==> Input File <==

--------------------------------------------------------------------------
molecule {
1 2
Al   0.00000        0.60000        0.00000
Al   0.00000       -0.60000        0.00000
}

set {
basis              cc-pvdz
reference          uks
maxiter            500
geom_maxiter       500
DAMPING_PERCENTAGE 1
guess              SAP
}

optimize('b3lyp')
--------------------------------------------------------------------------

    Molecular point group: d2h
  Charge       = 1
  Multiplicity = 2
  Basis Set: CC-PVDZ
    Blend: CC-PVDZ
  Basis Set: (CC-PVDZ AUX)
    Blend: CC-PVDZ-JKFIT
  @DF-UKS Final Energy:  -483.46896480829849
    Total Energy =                       -483.4689648082984945
 Dipole X            :          0.0000000            0.0000000            0.0000000
 Dipole Y            :          0.0000000            0.0000000            0.0000000
 Dipole Z            :          0.0000000            0.0000000            0.0000000
 Magnitude           :                                                    0.0000000
    Molecular point group: d2h
  Basis Set: CC-PVDZ
    Blend: CC-PVDZ
  Basis Set: (CC-PVDZ AUX)
    Blend: CC-PVDZ-JKFIT
  Basis Set: CC-PVDZ
    Blend: CC-PVDZ
  Basis Set: (CC-PVDZ AUX)
    Blend: CC-PVDZ-JKFIT
  @DF-UKS Final Energy:  -483.48049142899168
    Total Energy =                       -483.4804914289916837
  Basis Set: CC-PVDZ
    Blend: CC-PVDZ
  Basis Set: (CC-PVDZ AUX)
    Blend: CC-PVDZ-JKFIT
  Basis Set: CC-PVDZ
    Blend: CC-PVDZ
  @DF-UKS Final Energy:  -483.50279766982095
    Total Energy =                       -483.5027976698209500
  @DF-UKS Final Energy:  -483.58426579458103
    Total Energy =                       -483.5842657945810288
  @DF-UKS Final Energy:  -483.95655466302219
    Total Energy =                       -483.9565546630221888
  @DF-UKS Final Energy:  -484.23484364465014
    Total Energy =                       -484.2348436446501410
  @DF-UKS Final Energy:  -484.43514470927852
    Total Energy =                       -484.4351447092785179
  @DF-UKS Final Energy:  -484.51291524818248
    Total Energy =                       -484.5129152481824804
  @DF-UKS Final Energy:  -484.55072727041227
    Total Energy =                       -484.5507272704122670
  @DF-UKS Final Energy:  -484.56767861119317
    Total Energy =                       -484.5676786111931733
  @DF-UKS Final Energy:  -484.57485380265126
    Total Energy =                       -484.5748538026512620
  @DF-UKS Final Energy:  -484.57751051746487
    Total Energy =                       -484.5775105174648729
  @DF-UKS Final Energy:  -484.57828882691422
    Total Energy =                       -484.5782888269142177
  @DF-UKS Final Energy:  -484.57841719173683
    Total Energy =                       -484.5784171917368326
  @DF-UKS Final Energy:  -484.57844186627034
    Total Energy =                       -484.5784418662703388
  Basis Set: (CC-PVDZ AUX)
    Blend: CC-PVDZ-JKFIT
  Basis Set: CC-PVDZ
    Blend: CC-PVDZ
  Basis Set: (CC-PVDZ AUX)
    Blend: CC-PVDZ-JKFIT
  @DF-UKS Final Energy:  -484.57844785453119
    Total Energy =                       -484.5784478545311913
  Basis Set: CC-PVDZ
    Blend: CC-PVDZ
  Basis Set: (CC-PVDZ AUX)
    Blend: CC-PVDZ-JKFIT
  Charge       = 1
  Multiplicity = 2
  Basis Set: CC-PVDZ
    Blend: CC-PVDZ
  Basis Set: (CC-PVDZ AUX)
    Blend: CC-PVDZ-JKFIT

    Orbital Energies [Eh]
    ---------------------

    Alpha Occupied:

       1B2u  -56.307495     1Ag   -56.307495     2B2u   -4.383409
       2Ag    -4.383329     1B1u   -2.936531     1B3g   -2.936529
       3Ag    -2.935916     3B2u   -2.935764     1B3u   -2.934793
       1B1g   -2.934789     4Ag    -0.576109     4B2u   -0.484626
       2B3u   -0.343791

    Alpha Virtual:

       5Ag    -0.309266     2B1u   -0.293102     2B1g   -0.247916
       2B3g   -0.233207     5B2u   -0.160788     6Ag    -0.044937
       3B3u   -0.000438     7Ag     0.007508     3B1u    0.009339
       6B2u    0.024833     4B3u    0.038082     1B2g    0.039285
       8Ag     0.041580     4B1u    0.042891     3B1g    0.057478
       3B3g    0.062190     1Au     0.092889     7B2u    0.094924
       8B2u    0.108589     9Ag     0.187826     4B1g    0.203411
       4B3g    0.208722     9B2u    0.381742

    Beta Occupied:

       1B2u  -56.306435     1Ag   -56.306434     2B2u   -4.382114
       2Ag    -4.382028     1B1u   -2.935926     1B3g   -2.935924
       3Ag    -2.935328     3B2u   -2.935177     1B3u   -2.930515
       1B1g   -2.930511     4Ag    -0.558536     4B2u   -0.472272

    Beta Virtual:

       5Ag    -0.305631     2B1u   -0.289297     2B3u   -0.273297
       2B3g   -0.230691     2B1g   -0.215959     5B2u   -0.155475
       6Ag    -0.037497     7Ag     0.008859     3B1u    0.009648
       3B3u    0.021728     6B2u    0.025540     4B1u    0.043099
       4B3u    0.053421     1B2g    0.059875     8Ag     0.060283
       3B3g    0.062600     3B1g    0.071859     7B2u    0.110191
       1Au     0.111638     8B2u    0.115452     9Ag     0.194410
       4B3g    0.209234     4B1g    0.222244     9B2u    0.386779

    Final Occupation by Irrep:
             Ag   B1g   B2g   B3g    Au   B1u   B2u   B3u
    DOCC [     4,    1,    0,    1,    0,    1,    4,    1 ]
    SOCC [     0,    0,    0,    0,    0,    0,    0,    1 ]
    NA   [     4,    1,    0,    1,    0,    1,    4,    2 ]
    NB   [     4,    1,    0,    1,    0,    1,    4,    1 ]

  @DF-UKS Final Energy:  -484.57844836204771

   => Energetics <=

    Nuclear Repulsion Energy =             30.9691734763091517
    One-Electron Energy =                -729.4353087115619019
    Two-Electron Energy =                 243.6675008138602720
    DFT Exchange-Correlation Energy =     -29.7798139406552131
    Empirical Dispersion Energy =           0.0000000000000000
    VV10 Nonlocal Energy =                  0.0000000000000000
    Total Energy =                       -484.5784483620477090

  UHF NO Occupations:
  HONO-2 :    4 Ag 1.9992304
  HONO-1 :    4B2u 1.9990674
  HONO-0 :    2B3u 1.0000000
  LUNO+0 :    5B2u 0.0009326
  LUNO+1 :    5 Ag 0.0007696
  LUNO+2 :    2B1g 0.0000001
  LUNO+3 :    3B3u 0.0000000

Computation Completed

Properties will be evaluated at   0.000000,   0.000000,   0.000000 [a0]

Properties computed using the SCF density matrix

 Multipole Moments:

 ------------------------------------------------------------------------------------
     Multipole            Electronic (a.u.)      Nuclear  (a.u.)        Total (a.u.)
 ------------------------------------------------------------------------------------

 L = 1.  Multiply by 2.5417464519 to convert [e a0] to [Debye]
 Dipole X            :          0.0000000            0.0000000            0.0000000
 Dipole Y            :          0.0000000            0.0000000            0.0000000
 Dipole Z            :          0.0000000            0.0000000            0.0000000
 Magnitude           :                                                    0.0000000

 ------------------------------------------------------------------------------------

*** tstop() called on Joses-MacBook-Pro-2.local at Thu Jul 17 15:15:01 2025
Module time:
	user time   =       6.34 seconds =       0.11 minutes
	system time =       1.78 seconds =       0.03 minutes
	total time  =          1 seconds =       0.02 minutes
Total time:
	user time   =     180.06 seconds =       3.00 minutes
	system time =      52.24 seconds =       0.87 minutes
	total time  =         22 seconds =       0.37 minutes

*** tstart() called on Joses-MacBook-Pro-2.local
*** at Thu Jul 17 15:15:01 2025

         ------------------------------------------------------------
                                   SCF GRAD
                          Rob Parrish, Justin Turney,
                       Andy Simmonett, and Alex Sokolov
         ------------------------------------------------------------

  ==> Geometry <==

    Molecular point group: d2h
    Full point group: D_inf_h

    Geometry (in Angstrom), charge = 1, multiplicity = 2:

       Center              X                  Y                   Z               Mass
    ------------   -----------------  -----------------  -----------------  -----------------
         AL          -0.000000000000     1.443870445423     0.000000000000    26.981538530000
         AL           0.000000000000    -1.443870445423     0.000000000000    26.981538530000

  Nuclear repulsion =   30.969173476309152

  ==> Basis Set <==

  Basis Set: CC-PVDZ
    Blend: CC-PVDZ
    Number of shells: 16
    Number of basis functions: 36
    Number of Cartesian functions: 38
    Spherical Harmonics?: true
    Max angular momentum: 2

  ==> DFJKGrad: Density-Fitted SCF Gradients <==

    Gradient:                    1
    J tasked:                  Yes
    K tasked:                  Yes
    wK tasked:                  No
    OpenMP threads:              1
    Integrals threads:           1
    Memory [MiB]:              375
    Schwarz Cutoff:          1E-12
    Fitting Condition:       1E-10

   => Auxiliary Basis Set <=

  Basis Set: (CC-PVDZ AUX)
    Blend: CC-PVDZ-JKFIT
    Number of shells: 72
    Number of basis functions: 224
    Number of Cartesian functions: 260
    Spherical Harmonics?: true
    Max angular momentum: 3

  ==> DFT Potential <==

   => LibXC <=

    Version 6.2.2
    S. Lehtola, C. Steigemann, M. J.T. Oliveira, and M. A.L. Marques.,  SoftwareX 7, 1â€“5 (2018) (10.1016/j.softx.2017.11.002)

   => Composite Functional: B3LYP <=

    B3LYP Hyb-GGA Exchange-Correlation Functional

    P. J. Stephens, F. J. Devlin, C. F. Chabalowski, and M. J. Frisch.,  J. Phys. Chem. 98, 11623 (1994) (10.1021/j100096a001)

    Deriv               =              1
    GGA                 =           TRUE
    Meta                =          FALSE

    Exchange Hybrid     =           TRUE
    MP2 Hybrid          =          FALSE

   => Exchange Functionals <=

    0.0800   Slater exchange
    0.7200         Becke 88

   => Exact (HF) Exchange <=

    0.2000               HF

   => Correlation Functionals <=

    0.1900   Vosko, Wilk & Nusair (VWN5_RPA)
    0.8100   Lee, Yang & Parr

   => LibXC Density Thresholds  <==

    XC_HYB_GGA_XC_B3LYP:  1.00E-15

   => Molecular Quadrature <=

    Radial Scheme          =       TREUTLER
    Pruning Scheme         =           NONE
    Nuclear Scheme         =       TREUTLER

    Blocking Scheme        =         OCTREE
    BS radius alpha        =              1
    Pruning alpha          =              1
    Radial Points          =             75
    Spherical Points       =            302
    Total Points           =          42394
    Total Blocks           =            408
    Max Points             =            249
    Max Functions          =             36
    Weights Tolerance      =       1.00E-15

  -Total Gradient:
     Atom            X                  Y                   Z
    ------   -----------------  -----------------  -----------------
       1        0.000000000000    -0.000042758852     0.000000000000
       2       -0.000000000000     0.000042758852     0.000000000000

*** tstop() called on Joses-MacBook-Pro-2.local at Thu Jul 17 15:15:01 2025
Module time:
	user time   =       2.33 seconds =       0.04 minutes
	system time =       0.99 seconds =       0.02 minutes
	total time  =          0 seconds =       0.00 minutes
Total time:
	user time   =     182.41 seconds =       3.04 minutes
	system time =      53.23 seconds =       0.89 minutes
	total time  =         22 seconds =       0.37 minutes

    			-----------------------------------------

    			 OPTKING 3.0: for geometry optimizations

    			     By R.A. King, Bethel University

    			        with contributions from

    			    A.V. Copan, J. Cayton, A. Heide

    			-----------------------------------------

	                            ===> Fragment 1 <==

	 Z (Atomic Numbers)          Masses                          Geom
	      13.000000            26.981539         -0.00000000  2.72851970  0.00000000
	      13.000000            26.981539          0.00000000 -2.72851970  0.00000000

	 - Coordinate -           - BOHR/RAD -       - ANG/DEG -
	 R(1,2)           =         5.457039           2.887741

	        --- Internal Coordinate Step in ANG or DEG, aJ/ANG or AJ/DEG ---
	-------------------------------------------------------------------------------
	           Coordinate      Previous         Force          Change          New
	           ----------      --------        ------          ------        ------
	               R(1,2)       2.88774        0.00035        0.00122       2.88896
	-------------------------------------------------------------------------------

	                                 ==> Convergence Check <==

	Measures of convergence in internal coordinates in au.

	Criteria marked as inactive (o), active & met (*), and active & unmet ( ).

	----------------------------------------------------------------------------------------------
	   Step    Total Energy     Delta E     Max Force     RMS Force      Max Disp      RMS Disp
	----------------------------------------------------------------------------------------------
	  Convergence Criteria     1.00e-06 *    3.00e-04 *             o    1.20e-03 *             o
	----------------------------------------------------------------------------------------------
	    17    -484.57844836   -5.08e-07 *    4.28e-05 *    4.28e-05 o    2.31e-03      2.31e-03 o  ~
	----------------------------------------------------------------------------------------------

Next Geometry in Ang
	Fragment 1 (Ang)

	   Al  -0.0000000000   1.4444803587   0.0000000000
	   Al   0.0000000000  -1.4444803587   0.0000000000

    Final optimized geometry and variables:
    Molecular point group: d2h
    Full point group: D_inf_h

    Geometry (in Angstrom), charge = 1, multiplicity = 2:

    AL          -0.000000000000     1.443870445423     0.000000000000
    AL           0.000000000000    -1.443870445423     0.000000000000

    Psi4 stopped on: Thursday, 17 July 2025 03:15PM
    Psi4 wall time for execution: 0:00:22.87

*** Psi4 exiting successfully. Buy a developer a beer!
