                               Psi4 1.9.1 release

  ==> Input File <==

--------------------------------------------------------------------------
molecule {
1 2
N   0.00000        0.60000        0.00000
Al   0.00000       -0.60000        0.00000
}

set {
basis              cc-pvdz
reference          uks
maxiter            500
geom_maxiter       500
DAMPING_PERCENTAGE 1
guess              SAP
}

optimize('b3lyp')
--------------------------------------------------------------------------

    Molecular point group: c2v
  Charge       = 1
  Multiplicity = 2
  Basis Set: CC-PVDZ
    Blend: CC-PVDZ
  Basis Set: (CC-PVDZ AUX)
    Blend: CC-PVDZ-JKFIT
  @DF-UKS Final Energy:  -296.31693355305833
    Total Energy =                       -296.3169335530583339
 Dipole X            :          0.0000000            0.0000000            0.0000000
 Dipole Y            :          0.0000000            0.0000000            0.0000000
 Dipole Z            :         -2.4434080            0.3779474           -2.0654606
 Magnitude           :                                                    2.0654606
    Molecular point group: c2v
  Basis Set: CC-PVDZ
    Blend: CC-PVDZ
  Basis Set: (CC-PVDZ AUX)
    Blend: CC-PVDZ-JKFIT
  Basis Set: CC-PVDZ
    Blend: CC-PVDZ
  Basis Set: (CC-PVDZ AUX)
    Blend: CC-PVDZ-JKFIT
  @DF-UKS Final Energy:  -296.48272504916702
    Total Energy =                       -296.4827250491670156
  Basis Set: CC-PVDZ
    Blend: CC-PVDZ
  Basis Set: (CC-PVDZ AUX)
    Blend: CC-PVDZ-JKFIT
  Basis Set: CC-PVDZ
    Blend: CC-PVDZ
  @DF-UKS Final Energy:  -296.56530193354553
    Total Energy =                       -296.5653019335455269
  @DF-UKS Final Energy:  -296.58742002638036
    Total Energy =                       -296.5874200263804141
  @DF-UKS Final Energy:  -296.68486970564243
    Total Energy =                       -296.6848697056424271
  @DF-UKS Final Energy:  -296.70525921935774
    Total Energy =                       -296.7052592193577425
  @DF-UKS Final Energy:  -296.71127769410595
    Total Energy =                       -296.7112776941059451
  Basis Set: (CC-PVDZ AUX)
    Blend: CC-PVDZ-JKFIT
  Basis Set: CC-PVDZ
    Blend: CC-PVDZ
  Basis Set: (CC-PVDZ AUX)
    Blend: CC-PVDZ-JKFIT
  @DF-UKS Final Energy:  -296.71167651005538
    Total Energy =                       -296.7116765100553835
  Basis Set: CC-PVDZ
    Blend: CC-PVDZ
  Basis Set: (CC-PVDZ AUX)
    Blend: CC-PVDZ-JKFIT
  Charge       = 1
  Multiplicity = 2
  Basis Set: CC-PVDZ
    Blend: CC-PVDZ
  Basis Set: (CC-PVDZ AUX)
    Blend: CC-PVDZ-JKFIT

    Orbital Energies [Eh]
    ---------------------

    Alpha Occupied:

       1A1   -56.436011     2A1   -14.656912     3A1    -4.506015
       1B1    -3.061008     4A1    -3.059520     1B2    -3.057458
       5A1    -1.039977     6A1    -0.633153     2B1    -0.582957
       2B2    -0.532791

    Alpha Virtual:

       7A1    -0.447097     3B1    -0.287623     3B2    -0.276059
       8A1    -0.183097     9A1    -0.046609     4B1    -0.002990
       4B2     0.001800     1A2     0.019529    10A1     0.019682
      11A1     0.035699     5B1     0.066153     5B2     0.079879
      12A1     0.258745     6B1     0.543251    13A1     0.552291
       6B2     0.575629    14A1     1.003868    15A1     1.495484
       2A2     1.495669     7B1     1.552346     7B2     1.590838
      16A1     1.855355

    Beta Occupied:

       1A1   -56.438423     2A1   -14.626223     3A1    -4.510221
       1B1    -3.063015     4A1    -3.062177     1B2    -3.061333
       5A1    -0.944386     6A1    -0.590748     2B2    -0.494047

    Beta Virtual:

       7A1    -0.416899     2B1    -0.395971     3B2    -0.296122
       3B1    -0.275925     8A1    -0.187497     9A1    -0.057283
       4B2    -0.007510     4B1    -0.006864     1A2     0.001454
      10A1     0.002291    11A1     0.033836     5B2     0.067685
       5B1     0.075747    12A1     0.272586     6B2     0.599872
      13A1     0.606864     6B1     0.622095    14A1     1.056930
       2A2     1.572057    15A1     1.579000     7B2     1.642055
       7B1     1.658516    16A1     1.925517

    Final Occupation by Irrep:
             A1    A2    B1    B2
    DOCC [     6,    0,    1,    2 ]
    SOCC [     0,    0,    1,    0 ]
    NA   [     6,    0,    2,    2 ]
    NB   [     6,    0,    1,    2 ]

  @DF-UKS Final Energy:  -296.71167676447794

   => Energetics <=

    Nuclear Repulsion Energy =             26.9132484365292513
    One-Electron Energy =                -458.3727619131959727
    Two-Electron Energy =                 155.0511349510975379
    DFT Exchange-Correlation Energy =     -20.3032982389087771
    Empirical Dispersion Energy =           0.0000000000000000
    VV10 Nonlocal Energy =                  0.0000000000000000
    Total Energy =                       -296.7116767644779429

  UHF NO Occupations:
  HONO-2 :    2 B2 1.9890105
  HONO-1 :    6 A1 1.7788799
  HONO-0 :    2 B1 1.0000000
  LUNO+0 :    7 A1 0.2211201
  LUNO+1 :    3 B2 0.0109895
  LUNO+2 :    8 A1 0.0005084
  LUNO+3 :    3 B1 0.0000006

Computation Completed

Properties will be evaluated at   0.000000,   0.000000,   0.000000 [a0]

Properties computed using the SCF density matrix

 Multipole Moments:

 ------------------------------------------------------------------------------------
     Multipole            Electronic (a.u.)      Nuclear  (a.u.)        Total (a.u.)
 ------------------------------------------------------------------------------------

 L = 1.  Multiply by 2.5417464519 to convert [e a0] to [Debye]
 Dipole X            :          0.0000000            0.0000000            0.0000000
 Dipole Y            :          0.0000000            0.0000000            0.0000000
 Dipole Z            :         -2.4013752            0.5635423           -1.8378329
 Magnitude           :                                                    1.8378329

 ------------------------------------------------------------------------------------

*** tstop() called on Joses-MacBook-Pro-2.local at Thu Jul 17 13:54:49 2025
Module time:
	user time   =       2.44 seconds =       0.04 minutes
	system time =       4.88 seconds =       0.08 minutes
	total time  =          1 seconds =       0.02 minutes
Total time:
	user time   =      33.08 seconds =       0.55 minutes
	system time =      78.80 seconds =       1.31 minutes
	total time  =         11 seconds =       0.18 minutes

*** tstart() called on Joses-MacBook-Pro-2.local
*** at Thu Jul 17 13:54:49 2025

         ------------------------------------------------------------
                                   SCF GRAD
                          Rob Parrish, Justin Turney,
                       Andy Simmonett, and Alex Sokolov
         ------------------------------------------------------------

  ==> Geometry <==

    Molecular point group: c2v
    Full point group: C_inf_v

    Geometry (in Angstrom), charge = 1, multiplicity = 2:

       Center              X                  Y                   Z               Mass
    ------------   -----------------  -----------------  -----------------  -----------------
         N            0.000000000000     0.000000000000     1.177937590443    14.003074004430
         AL           0.000000000000     0.000000000000    -0.611334569866    26.981538530000

  Nuclear repulsion =   26.913248436529251

  ==> Basis Set <==

  Basis Set: CC-PVDZ
    Blend: CC-PVDZ
    Number of shells: 14
    Number of basis functions: 32
    Number of Cartesian functions: 34
    Spherical Harmonics?: true
    Max angular momentum: 2

  ==> DFJKGrad: Density-Fitted SCF Gradients <==

    Gradient:                    1
    J tasked:                  Yes
    K tasked:                  Yes
    wK tasked:                  No
    OpenMP threads:              1
    Integrals threads:           1
    Memory [MiB]:              375
    Schwarz Cutoff:          1E-12
    Fitting Condition:       1E-10

   => Auxiliary Basis Set <=

  Basis Set: (CC-PVDZ AUX)
    Blend: CC-PVDZ-JKFIT
    Number of shells: 60
    Number of basis functions: 182
    Number of Cartesian functions: 211
    Spherical Harmonics?: true
    Max angular momentum: 3

  ==> DFT Potential <==

   => LibXC <=

    Version 6.2.2
    S. Lehtola, C. Steigemann, M. J.T. Oliveira, and M. A.L. Marques.,  SoftwareX 7, 1â€“5 (2018) (10.1016/j.softx.2017.11.002)

   => Composite Functional: B3LYP <=

    B3LYP Hyb-GGA Exchange-Correlation Functional

    P. J. Stephens, F. J. Devlin, C. F. Chabalowski, and M. J. Frisch.,  J. Phys. Chem. 98, 11623 (1994) (10.1021/j100096a001)

    Deriv               =              1
    GGA                 =           TRUE
    Meta                =          FALSE

    Exchange Hybrid     =           TRUE
    MP2 Hybrid          =          FALSE

   => Exchange Functionals <=

    0.0800   Slater exchange
    0.7200         Becke 88

   => Exact (HF) Exchange <=

    0.2000               HF

   => Correlation Functionals <=

    0.1900   Vosko, Wilk & Nusair (VWN5_RPA)
    0.8100   Lee, Yang & Parr

   => LibXC Density Thresholds  <==

    XC_HYB_GGA_XC_B3LYP:  1.00E-15

   => Molecular Quadrature <=

    Radial Scheme          =       TREUTLER
    Pruning Scheme         =           NONE
    Nuclear Scheme         =       TREUTLER

    Blocking Scheme        =         OCTREE
    BS radius alpha        =              1
    Pruning alpha          =              1
    Radial Points          =             75
    Spherical Points       =            302
    Total Points           =          43462
    Total Blocks           =            406
    Max Points             =            255
    Max Functions          =             32
    Weights Tolerance      =       1.00E-15

  -Total Gradient:
     Atom            X                  Y                   Z
    ------   -----------------  -----------------  -----------------
       1        0.000000000000    -0.000000000000    -0.000179440887
       2        0.000000000000     0.000000000000     0.000154855801

*** tstop() called on Joses-MacBook-Pro-2.local at Thu Jul 17 13:54:49 2025
Module time:
	user time   =       0.70 seconds =       0.01 minutes
	system time =       1.76 seconds =       0.03 minutes
	total time  =          0 seconds =       0.00 minutes
Total time:
	user time   =      33.78 seconds =       0.56 minutes
	system time =      80.56 seconds =       1.34 minutes
	total time  =         11 seconds =       0.18 minutes

    			-----------------------------------------

    			 OPTKING 3.0: for geometry optimizations

    			     By R.A. King, Bethel University

    			        with contributions from

    			    A.V. Copan, J. Cayton, A. Heide

    			-----------------------------------------

	                            ===> Fragment 1 <==

	 Z (Atomic Numbers)          Masses                          Geom
	       7.000000            14.003074          0.00000000  0.00000000  2.22597944
	      13.000000            26.981539          0.00000000  0.00000000 -1.15525491

	 - Coordinate -           - BOHR/RAD -       - ANG/DEG -
	 R(1,2)           =         3.381234           1.789272

	        --- Internal Coordinate Step in ANG or DEG, aJ/ANG or AJ/DEG ---
	-------------------------------------------------------------------------------
	           Coordinate      Previous         Force          Change          New
	           ----------      --------        ------          ------        ------
	               R(1,2)       1.78927        0.00138        0.00024       1.78951
	-------------------------------------------------------------------------------

	                                 ==> Convergence Check <==

	Measures of convergence in internal coordinates in au.

	Criteria marked as inactive (o), active & met (*), and active & unmet ( ).

	----------------------------------------------------------------------------------------------
	   Step    Total Energy     Delta E     Max Force     RMS Force      Max Disp      RMS Disp
	----------------------------------------------------------------------------------------------
	  Convergence Criteria     1.00e-06 *    3.00e-04 *             o    1.20e-03 *             o
	----------------------------------------------------------------------------------------------
	     9    -296.71167676   -2.54e-07 *    1.67e-04 *    1.67e-04 o    4.52e-04 *    4.52e-04 o  ~
	----------------------------------------------------------------------------------------------

Next Geometry in Ang
	Fragment 1 (Ang)

	    N   0.0000000000   0.0000000000   1.1780572703
	   Al   0.0000000000   0.0000000000  -0.6114542497

    Final optimized geometry and variables:
    Molecular point group: c2v
    Full point group: C_inf_v

    Geometry (in Angstrom), charge = 1, multiplicity = 2:

    N            0.000000000000     0.000000000000     1.177937590443
    AL           0.000000000000     0.000000000000    -0.611334569866

    Psi4 stopped on: Thursday, 17 July 2025 01:54PM
    Psi4 wall time for execution: 0:00:12.49

*** Psi4 exiting successfully. Buy a developer a beer!
