                               Psi4 1.9.1 release

  ==> Input File <==

--------------------------------------------------------------------------
molecule {
1 2
Li   0.00000        0.60000        0.00000
Cl   0.00000       -0.60000        0.00000
}

set {
basis              cc-pvdz
reference          uks
maxiter            500
geom_maxiter       500
DAMPING_PERCENTAGE 1
guess              SAP
}

optimize('b3lyp')
--------------------------------------------------------------------------

    Molecular point group: c2v
  Charge       = 1
  Multiplicity = 2
  Basis Set: CC-PVDZ
    Blend: CC-PVDZ
  Basis Set: (CC-PVDZ AUX)
    Blend: CC-PVDZ-JKFIT + DEF2-UNIVERSAL-JKFIT
  @DF-UKS Final Energy:  -466.98158879927576
    Total Energy =                       -466.9815887992757553
 Dipole X            :          0.0000000            0.0000000            0.0000000
 Dipole Y            :          0.0000000            0.0000000            0.0000000
 Dipole Z            :          2.1074866           -0.7759044            1.3315822
 Magnitude           :                                                    1.3315822
    Molecular point group: c2v
  Basis Set: CC-PVDZ
    Blend: CC-PVDZ
  Basis Set: (CC-PVDZ AUX)
    Blend: CC-PVDZ-JKFIT + DEF2-UNIVERSAL-JKFIT
  Basis Set: CC-PVDZ
    Blend: CC-PVDZ
  Basis Set: (CC-PVDZ AUX)
    Blend: CC-PVDZ-JKFIT + DEF2-UNIVERSAL-JKFIT
  @DF-UKS Final Energy:  -467.13199723533728
    Total Energy =                       -467.1319972353372805
  Basis Set: CC-PVDZ
    Blend: CC-PVDZ
  Basis Set: (CC-PVDZ AUX)
    Blend: CC-PVDZ-JKFIT + DEF2-UNIVERSAL-JKFIT
  Basis Set: CC-PVDZ
    Blend: CC-PVDZ
  @DF-UKS Final Energy:  -467.25981789451828
    Total Energy =                       -467.2598178945182781
  @DF-UKS Final Energy:  -467.34133469486619
    Total Energy =                       -467.3413346948661911
  @DF-UKS Final Energy:  -467.39106316261126
    Total Energy =                       -467.3910631626112604
  @DF-UKS Final Energy:  -467.41627646858194
    Total Energy =                       -467.4162764685819411
  @DF-UKS Final Energy:  -467.42988639814916
    Total Energy =                       -467.4298863981491650
  @DF-UKS Final Energy:  -467.43689610906881
    Total Energy =                       -467.4368961090688117
  @DF-UKS Final Energy:  -467.44031250020896
    Total Energy =                       -467.4403125002089610
  @DF-UKS Final Energy:  -467.44186801779108
    Total Energy =                       -467.4418680177910232
  @DF-UKS Final Energy:  -467.44252212505216
    Total Energy =                       -467.4425221250521645
  @DF-UKS Final Energy:  -467.44276349175345
    Total Energy =                       -467.4427634917534533
  @DF-UKS Final Energy:  -467.44282487403859
    Total Energy =                       -467.4428248740385357
  @DF-UKS Final Energy:  -467.44284680571559
    Total Energy =                       -467.4428468057155328
  Basis Set: (CC-PVDZ AUX)
    Blend: CC-PVDZ-JKFIT + DEF2-UNIVERSAL-JKFIT
  Basis Set: CC-PVDZ
    Blend: CC-PVDZ
  Basis Set: (CC-PVDZ AUX)
    Blend: CC-PVDZ-JKFIT + DEF2-UNIVERSAL-JKFIT
  @DF-UKS Final Energy:  -467.44285035595578
    Total Energy =                       -467.4428503559557839
  Basis Set: CC-PVDZ
    Blend: CC-PVDZ
  Basis Set: (CC-PVDZ AUX)
    Blend: CC-PVDZ-JKFIT + DEF2-UNIVERSAL-JKFIT
  Charge       = 1
  Multiplicity = 2
  Basis Set: CC-PVDZ
    Blend: CC-PVDZ
  Basis Set: (CC-PVDZ AUX)
    Blend: CC-PVDZ-JKFIT + DEF2-UNIVERSAL-JKFIT

    Orbital Energies [Eh]
    ---------------------

    Alpha Occupied:

       1A1  -101.776369     2A1    -9.690657     3A1    -7.464773
       1B1    -7.440525     1B2    -7.440525     4A1    -2.345438
       5A1    -1.027235     6A1    -0.596701     2B1    -0.529421
       2B2    -0.529421

    Alpha Virtual:

       7A1    -0.251022     3B2    -0.182204     3B1    -0.182204
       8A1    -0.172597     9A1    -0.078220     4B2    -0.064582
       4B1    -0.064582    10A1    -0.048264     5B2     0.051161
       5B1     0.051161     1A2     0.068004    11A1     0.068012
      12A1     0.085965    13A1     0.386801     6B1     0.398548
       6B2     0.398548    14A1     0.485506     7B1     0.509305
       7B2     0.509305     2A2     0.532063    15A1     0.532098
      16A1     0.690277

    Beta Occupied:

       1A1  -101.769830     2A1    -9.684181     3A1    -7.443511
       1B2    -7.436631     1B1    -7.436631     4A1    -2.345309
       5A1    -0.974894     2B1    -0.513843     2B2    -0.513843

    Beta Virtual:

       6A1    -0.441732     7A1    -0.246686     3B1    -0.182100
       3B2    -0.182100     8A1    -0.166592     9A1    -0.074338
       4B2    -0.065086     4B1    -0.065086    10A1    -0.048841
       5B2     0.055322     5B1     0.055322     1A2     0.068239
      11A1     0.068246    12A1     0.094101     6B1     0.406435
       6B2     0.406435    13A1     0.429083     2A2     0.540231
      14A1     0.540269    15A1     0.548401     7B1     0.561880
       7B2     0.561880    16A1     0.715541

    Final Occupation by Irrep:
             A1    A2    B1    B2
    DOCC [     5,    0,    2,    2 ]
    SOCC [     1,    0,    0,    0 ]
    NA   [     6,    0,    2,    2 ]
    NB   [     5,    0,    2,    2 ]

  @DF-UKS Final Energy:  -467.44285082690499

   => Energetics <=

    Nuclear Repulsion Energy =              8.9744037921984940
    One-Electron Energy =                -658.7492878244611347
    Two-Electron Energy =                 206.4051886906516700
    DFT Exchange-Correlation Energy =     -24.0731554852939702
    Empirical Dispersion Energy =           0.0000000000000000
    VV10 Nonlocal Energy =                  0.0000000000000000
    Total Energy =                       -467.4428508269049303

  UHF NO Occupations:
  HONO-2 :    2 B1 1.9999623
  HONO-1 :    5 A1 1.9991523
  HONO-0 :    6 A1 1.0000000
  LUNO+0 :    7 A1 0.0008477
  LUNO+1 :    3 B2 0.0000377
  LUNO+2 :    3 B1 0.0000377
  LUNO+3 :    8 A1 0.0000001

Computation Completed

Properties will be evaluated at   0.000000,   0.000000,   0.000000 [a0]

Properties computed using the SCF density matrix

 Multipole Moments:

 ------------------------------------------------------------------------------------
     Multipole            Electronic (a.u.)      Nuclear  (a.u.)        Total (a.u.)
 ------------------------------------------------------------------------------------

 L = 1.  Multiply by 2.5417464519 to convert [e a0] to [Debye]
 Dipole X            :          0.0000000            0.0000000            0.0000000
 Dipole Y            :          0.0000000            0.0000000            0.0000000
 Dipole Z            :          6.2906073           -1.9444315            4.3461758
 Magnitude           :                                                    4.3461758

 ------------------------------------------------------------------------------------

*** tstop() called on Joses-MacBook-Pro-2.local at Thu Jul 17 12:57:33 2025
Module time:
	user time   =       2.93 seconds =       0.05 minutes
	system time =       4.06 seconds =       0.07 minutes
	total time  =          0 seconds =       0.00 minutes
Total time:
	user time   =      81.02 seconds =       1.35 minutes
	system time =      83.43 seconds =       1.39 minutes
	total time  =         16 seconds =       0.27 minutes

*** tstart() called on Joses-MacBook-Pro-2.local
*** at Thu Jul 17 12:57:33 2025

         ------------------------------------------------------------
                                   SCF GRAD
                          Rob Parrish, Justin Turney,
                       Andy Simmonett, and Alex Sokolov
         ------------------------------------------------------------

  ==> Geometry <==

    Molecular point group: c2v
    Full point group: C_inf_v

    Geometry (in Angstrom), charge = 1, multiplicity = 2:

       Center              X                  Y                   Z               Mass
    ------------   -----------------  -----------------  -----------------  -----------------
         LI           0.000000000000     0.000000000000     2.504692509320     7.016003436600
         CL           0.000000000000     0.000000000000    -0.502530964136    34.968852682000

  Nuclear repulsion =    8.974403792198494

  ==> Basis Set <==

  Basis Set: CC-PVDZ
    Blend: CC-PVDZ
    Number of shells: 14
    Number of basis functions: 32
    Number of Cartesian functions: 34
    Spherical Harmonics?: true
    Max angular momentum: 2

  ==> DFJKGrad: Density-Fitted SCF Gradients <==

    Gradient:                    1
    J tasked:                  Yes
    K tasked:                  Yes
    wK tasked:                  No
    OpenMP threads:              1
    Integrals threads:           1
    Memory [MiB]:              375
    Schwarz Cutoff:          1E-12
    Fitting Condition:       1E-10

   => Auxiliary Basis Set <=

  Basis Set: (CC-PVDZ AUX)
    Blend: CC-PVDZ-JKFIT + DEF2-UNIVERSAL-JKFIT
    Number of shells: 53
    Number of basis functions: 163
    Number of Cartesian functions: 190
    Spherical Harmonics?: true
    Max angular momentum: 3

  ==> DFT Potential <==

   => LibXC <=

    Version 6.2.2
    S. Lehtola, C. Steigemann, M. J.T. Oliveira, and M. A.L. Marques.,  SoftwareX 7, 1â€“5 (2018) (10.1016/j.softx.2017.11.002)

   => Composite Functional: B3LYP <=

    B3LYP Hyb-GGA Exchange-Correlation Functional

    P. J. Stephens, F. J. Devlin, C. F. Chabalowski, and M. J. Frisch.,  J. Phys. Chem. 98, 11623 (1994) (10.1021/j100096a001)

    Deriv               =              1
    GGA                 =           TRUE
    Meta                =          FALSE

    Exchange Hybrid     =           TRUE
    MP2 Hybrid          =          FALSE

   => Exchange Functionals <=

    0.0800   Slater exchange
    0.7200         Becke 88

   => Exact (HF) Exchange <=

    0.2000               HF

   => Correlation Functionals <=

    0.1900   Vosko, Wilk & Nusair (VWN5_RPA)
    0.8100   Lee, Yang & Parr

   => LibXC Density Thresholds  <==

    XC_HYB_GGA_XC_B3LYP:  1.00E-15

   => Molecular Quadrature <=

    Radial Scheme          =       TREUTLER
    Pruning Scheme         =           NONE
    Nuclear Scheme         =       TREUTLER

    Blocking Scheme        =         OCTREE
    BS radius alpha        =              1
    Pruning alpha          =              1
    Radial Points          =             75
    Spherical Points       =            302
    Total Points           =          44369
    Total Blocks           =            446
    Max Points             =            256
    Max Functions          =             32
    Weights Tolerance      =       1.00E-15

  -Total Gradient:
     Atom            X                  Y                   Z
    ------   -----------------  -----------------  -----------------
       1       -0.000000000000     0.000000000000    -0.000014704734
       2        0.000000000000    -0.000000000000     0.000062753627

*** tstop() called on Joses-MacBook-Pro-2.local at Thu Jul 17 12:57:33 2025
Module time:
	user time   =       0.62 seconds =       0.01 minutes
	system time =       1.90 seconds =       0.03 minutes
	total time  =          0 seconds =       0.00 minutes
Total time:
	user time   =      81.64 seconds =       1.36 minutes
	system time =      85.34 seconds =       1.42 minutes
	total time  =         16 seconds =       0.27 minutes

    			-----------------------------------------

    			 OPTKING 3.0: for geometry optimizations

    			     By R.A. King, Bethel University

    			        with contributions from

    			    A.V. Copan, J. Cayton, A. Heide

    			-----------------------------------------

	                            ===> Fragment 1 <==

	 Z (Atomic Numbers)          Masses                          Geom
	       3.000000             7.016003          0.00000000  0.00000000  4.73318287
	      17.000000            34.968853          0.00000000  0.00000000 -0.94964589

	 - Coordinate -           - BOHR/RAD -       - ANG/DEG -
	 R(1,2)           =         5.682829           3.007223

	        --- Internal Coordinate Step in ANG or DEG, aJ/ANG or AJ/DEG ---
	-------------------------------------------------------------------------------
	           Coordinate      Previous         Force          Change          New
	           ----------      --------        ------          ------        ------
	               R(1,2)       3.00722        0.00032        0.00784       3.01506
	-------------------------------------------------------------------------------

	                                 ==> Convergence Check <==

	Measures of convergence in internal coordinates in au.

	Criteria marked as inactive (o), active & met (*), and active & unmet ( ).

	----------------------------------------------------------------------------------------------
	   Step    Total Energy     Delta E     Max Force     RMS Force      Max Disp      RMS Disp
	----------------------------------------------------------------------------------------------
	  Convergence Criteria     1.00e-06 *    3.00e-04 *             o    1.20e-03 *             o
	----------------------------------------------------------------------------------------------
	    16    -467.44285083   -4.71e-07 *    3.87e-05 *    3.87e-05 o    1.48e-02      1.48e-02 o  ~
	----------------------------------------------------------------------------------------------

Next Geometry in Ang
	Fragment 1 (Ang)

	   Li   0.0000000000   0.0000000000   2.5086118553
	   Cl   0.0000000000   0.0000000000  -0.5064503101

    Final optimized geometry and variables:
    Molecular point group: c2v
    Full point group: C_inf_v

    Geometry (in Angstrom), charge = 1, multiplicity = 2:

    LI           0.000000000000     0.000000000000     2.504692509320
    CL           0.000000000000     0.000000000000    -0.502530964136

    Psi4 stopped on: Thursday, 17 July 2025 12:57PM
    Psi4 wall time for execution: 0:00:16.99

*** Psi4 exiting successfully. Buy a developer a beer!
