                               Psi4 1.9.1 release

  ==> Input File <==

--------------------------------------------------------------------------
molecule {
1 2
F   0.00000        0.60000        0.00000
Na   0.00000       -0.60000        0.00000
}

set {
basis              cc-pvdz
reference          uks
maxiter            500
geom_maxiter       500
DAMPING_PERCENTAGE 1
guess              SAP
}

optimize('b3lyp')
--------------------------------------------------------------------------

    Molecular point group: c2v
  Charge       = 1
  Multiplicity = 2
  Basis Set: CC-PVDZ
    Blend: CC-PVDZ
  Basis Set: (CC-PVDZ AUX)
    Blend: CC-PVDZ-JKFIT + DEF2-UNIVERSAL-JKFIT
  @DF-UKS Final Energy:  -261.39464962993736
    Total Energy =                       -261.3946496299373621
 Dipole X            :          0.0000000            0.0000000            0.0000000
 Dipole Y            :          0.0000000            0.0000000            0.0000000
 Dipole Z            :         -1.0766114           -0.1120389           -1.1886503
 Magnitude           :                                                    1.1886503
    Molecular point group: c2v
  Basis Set: CC-PVDZ
    Blend: CC-PVDZ
  Basis Set: (CC-PVDZ AUX)
    Blend: CC-PVDZ-JKFIT + DEF2-UNIVERSAL-JKFIT
  Basis Set: CC-PVDZ
    Blend: CC-PVDZ
  Basis Set: (CC-PVDZ AUX)
    Blend: CC-PVDZ-JKFIT + DEF2-UNIVERSAL-JKFIT
  @DF-UKS Final Energy:  -261.58264464501303
    Total Energy =                       -261.5826446450130334
  Basis Set: CC-PVDZ
    Blend: CC-PVDZ
  Basis Set: (CC-PVDZ AUX)
    Blend: CC-PVDZ-JKFIT + DEF2-UNIVERSAL-JKFIT
  Basis Set: CC-PVDZ
    Blend: CC-PVDZ
  @DF-UKS Final Energy:  -261.69775186812541
    Total Energy =                       -261.6977518681254082
  @DF-UKS Final Energy:  -261.74782723142584
    Total Energy =                       -261.7478272314258447
  @DF-UKS Final Energy:  -261.77891087059976
    Total Energy =                       -261.7789108705997592
  @DF-UKS Final Energy:  -261.79815975451186
    Total Energy =                       -261.7981597545118575
  @DF-UKS Final Energy:  -261.80886174966969
    Total Energy =                       -261.8088617496696884
  @DF-UKS Final Energy:  -261.81495946477736
    Total Energy =                       -261.8149594647773597
  @DF-UKS Final Energy:  -261.81845804063755
    Total Energy =                       -261.8184580406375517
  @DF-UKS Final Energy:  -261.82037402100184
    Total Energy =                       -261.8203740210018395
  @DF-UKS Final Energy:  -261.82138525314758
    Total Energy =                       -261.8213852531475823
  @DF-UKS Final Energy:  -261.82186509276869
    Total Energy =                       -261.8218650927686895
  @DF-UKS Final Energy:  -261.82206610225188
    Total Energy =                       -261.8220661022518811
  @DF-UKS Final Energy:  -261.82211784907031
    Total Energy =                       -261.8221178490703096
  @DF-UKS Final Energy:  -261.82213727487061
    Total Energy =                       -261.8221372748706131
  @DF-UKS Final Energy:  -261.82214151423898
    Total Energy =                       -261.8221415142389787
  Basis Set: (CC-PVDZ AUX)
    Blend: CC-PVDZ-JKFIT + DEF2-UNIVERSAL-JKFIT
  Basis Set: CC-PVDZ
    Blend: CC-PVDZ
  Basis Set: (CC-PVDZ AUX)
    Blend: CC-PVDZ-JKFIT + DEF2-UNIVERSAL-JKFIT
  @DF-UKS Final Energy:  -261.82214263806674
    Total Energy =                       -261.8221426380667367
  Basis Set: CC-PVDZ
    Blend: CC-PVDZ
  Basis Set: (CC-PVDZ AUX)
    Blend: CC-PVDZ-JKFIT + DEF2-UNIVERSAL-JKFIT
  Charge       = 1
  Multiplicity = 2
  Basis Set: CC-PVDZ
    Blend: CC-PVDZ
  Basis Set: (CC-PVDZ AUX)
    Blend: CC-PVDZ-JKFIT + DEF2-UNIVERSAL-JKFIT

    Orbital Energies [Eh]
    ---------------------

    Alpha Occupied:

       1A1   -38.773400     2A1   -25.005966     3A1    -2.510806
       4A1    -1.443668     1B1    -1.441779     1B2    -1.441779
       5A1    -1.431098     6A1    -0.763371     2B2    -0.668155
       2B1    -0.668155

    Alpha Virtual:

       7A1    -0.253967     3B2    -0.151952     3B1    -0.151952
       8A1    -0.145465     9A1    -0.069615    10A1    -0.047555
       4B2    -0.047527     4B1    -0.047527     5B2     0.002716
       5B1     0.002716     1A2     0.007963    11A1     0.007969
      12A1     0.036417    13A1     0.920282     6B2     0.940735
       6B1     0.940735    14A1     1.528417    15A1     3.218382
       7B2     3.243331     7B1     3.243331    16A1     3.311621
       2A2     3.312051

    Beta Occupied:

       1A1   -38.773363     2A1   -24.975401     3A1    -2.510746
       4A1    -1.442446     1B1    -1.441764     1B2    -1.441764
       5A1    -1.342009     2B2    -0.636695     2B1    -0.636695

    Beta Virtual:

       6A1    -0.476915     7A1    -0.250323     3B2    -0.151684
       3B1    -0.151684     8A1    -0.142563     9A1    -0.067898
       4B2    -0.048393     4B1    -0.048393    10A1    -0.043591
       5B2     0.003794     5B1     0.003794     1A2     0.008159
      11A1     0.008164    12A1     0.043113     6B2     0.957873
       6B1     0.957873    13A1     1.024044    14A1     1.573139
      15A1     3.327080     2A2     3.327517     7B2     3.337695
       7B1     3.337695    16A1     3.353356

    Final Occupation by Irrep:
             A1    A2    B1    B2
    DOCC [     5,    0,    2,    2 ]
    SOCC [     1,    0,    0,    0 ]
    NA   [     6,    0,    2,    2 ]
    NB   [     5,    0,    2,    2 ]

  @DF-UKS Final Energy:  -261.82214281749913

   => Energetics <=

    Nuclear Repulsion Energy =             20.2417779221768832
    One-Electron Energy =                -402.5332613234840551
    Two-Electron Energy =                 140.3668535050607886
    DFT Exchange-Correlation Energy =     -19.8975129212527264
    Empirical Dispersion Energy =           0.0000000000000000
    VV10 Nonlocal Energy =                  0.0000000000000000
    Total Energy =                       -261.8221428174991274

  UHF NO Occupations:
  HONO-2 :    2 B1 1.9999149
  HONO-1 :    5 A1 1.9996764
  HONO-0 :    6 A1 1.0000000
  LUNO+0 :    7 A1 0.0003236
  LUNO+1 :    3 B1 0.0000851
  LUNO+2 :    3 B2 0.0000851
  LUNO+3 :    8 A1 0.0000001

Computation Completed

Properties will be evaluated at   0.000000,   0.000000,   0.000000 [a0]

Properties computed using the SCF density matrix

 Multipole Moments:

 ------------------------------------------------------------------------------------
     Multipole            Electronic (a.u.)      Nuclear  (a.u.)        Total (a.u.)
 ------------------------------------------------------------------------------------

 L = 1.  Multiply by 2.5417464519 to convert [e a0] to [Debye]
 Dipole X            :          0.0000000            0.0000000            0.0000000
 Dipole Y            :          0.0000000            0.0000000            0.0000000
 Dipole Z            :         -1.8266487           -0.2416436           -2.0682924
 Magnitude           :                                                    2.0682924

 ------------------------------------------------------------------------------------

*** tstop() called on Joses-MacBook-Pro-2.local at Thu Jul 17 14:25:44 2025
Module time:
	user time   =       2.91 seconds =       0.05 minutes
	system time =       2.59 seconds =       0.04 minutes
	total time  =          0 seconds =       0.00 minutes
Total time:
	user time   =      78.47 seconds =       1.31 minutes
	system time =      93.55 seconds =       1.56 minutes
	total time  =         16 seconds =       0.27 minutes

*** tstart() called on Joses-MacBook-Pro-2.local
*** at Thu Jul 17 14:25:44 2025

         ------------------------------------------------------------
                                   SCF GRAD
                          Rob Parrish, Justin Turney,
                       Andy Simmonett, and Alex Sokolov
         ------------------------------------------------------------

  ==> Geometry <==

    Molecular point group: c2v
    Full point group: C_inf_v

    Geometry (in Angstrom), charge = 1, multiplicity = 2:

       Center              X                  Y                   Z               Mass
    ------------   -----------------  -----------------  -----------------  -----------------
         F            0.000000000000     0.000000000000     1.417083078924    18.998403162730
         NA           0.000000000000     0.000000000000    -1.171056365040    22.989769282000

  Nuclear repulsion =   20.241777922176883

  ==> Basis Set <==

  Basis Set: CC-PVDZ
    Blend: CC-PVDZ
    Number of shells: 14
    Number of basis functions: 32
    Number of Cartesian functions: 34
    Spherical Harmonics?: true
    Max angular momentum: 2

  ==> DFJKGrad: Density-Fitted SCF Gradients <==

    Gradient:                    1
    J tasked:                  Yes
    K tasked:                  Yes
    wK tasked:                  No
    OpenMP threads:              1
    Integrals threads:           1
    Memory [MiB]:              375
    Schwarz Cutoff:          1E-12
    Fitting Condition:       1E-10

   => Auxiliary Basis Set <=

  Basis Set: (CC-PVDZ AUX)
    Blend: CC-PVDZ-JKFIT + DEF2-UNIVERSAL-JKFIT
    Number of shells: 58
    Number of basis functions: 182
    Number of Cartesian functions: 218
    Spherical Harmonics?: true
    Max angular momentum: 4

  ==> DFT Potential <==

   => LibXC <=

    Version 6.2.2
    S. Lehtola, C. Steigemann, M. J.T. Oliveira, and M. A.L. Marques.,  SoftwareX 7, 1â€“5 (2018) (10.1016/j.softx.2017.11.002)

   => Composite Functional: B3LYP <=

    B3LYP Hyb-GGA Exchange-Correlation Functional

    P. J. Stephens, F. J. Devlin, C. F. Chabalowski, and M. J. Frisch.,  J. Phys. Chem. 98, 11623 (1994) (10.1021/j100096a001)

    Deriv               =              1
    GGA                 =           TRUE
    Meta                =          FALSE

    Exchange Hybrid     =           TRUE
    MP2 Hybrid          =          FALSE

   => Exchange Functionals <=

    0.0800   Slater exchange
    0.7200         Becke 88

   => Exact (HF) Exchange <=

    0.2000               HF

   => Correlation Functionals <=

    0.1900   Vosko, Wilk & Nusair (VWN5_RPA)
    0.8100   Lee, Yang & Parr

   => LibXC Density Thresholds  <==

    XC_HYB_GGA_XC_B3LYP:  1.00E-15

   => Molecular Quadrature <=

    Radial Scheme          =       TREUTLER
    Pruning Scheme         =           NONE
    Nuclear Scheme         =       TREUTLER

    Blocking Scheme        =         OCTREE
    BS radius alpha        =              1
    Pruning alpha          =              1
    Radial Points          =             75
    Spherical Points       =            302
    Total Points           =          43817
    Total Blocks           =            420
    Max Points             =            253
    Max Functions          =             32
    Weights Tolerance      =       1.00E-15

  -Total Gradient:
     Atom            X                  Y                   Z
    ------   -----------------  -----------------  -----------------
       1        0.000000000000     0.000000000000     0.000059798020
       2        0.000000000000     0.000000000000     0.000069219490

*** tstop() called on Joses-MacBook-Pro-2.local at Thu Jul 17 14:25:45 2025
Module time:
	user time   =       0.67 seconds =       0.01 minutes
	system time =       2.04 seconds =       0.03 minutes
	total time  =          1 seconds =       0.02 minutes
Total time:
	user time   =      79.16 seconds =       1.32 minutes
	system time =      95.59 seconds =       1.59 minutes
	total time  =         17 seconds =       0.28 minutes

    			-----------------------------------------

    			 OPTKING 3.0: for geometry optimizations

    			     By R.A. King, Bethel University

    			        with contributions from

    			    A.V. Copan, J. Cayton, A. Heide

    			-----------------------------------------

	                            ===> Fragment 1 <==

	 Z (Atomic Numbers)          Masses                          Geom
	       9.000000            18.998403          0.00000000  0.00000000  2.67789892
	      11.000000            22.989769          0.00000000  0.00000000 -2.21297581

	 - Coordinate -           - BOHR/RAD -       - ANG/DEG -
	 R(1,2)           =         4.890875           2.588139

	        --- Internal Coordinate Step in ANG or DEG, aJ/ANG or AJ/DEG ---
	-------------------------------------------------------------------------------
	           Coordinate      Previous         Force          Change          New
	           ----------      --------        ------          ------        ------
	               R(1,2)       2.58814        0.00004        0.00052       2.58866
	-------------------------------------------------------------------------------

	                                 ==> Convergence Check <==

	Measures of convergence in internal coordinates in au.

	Criteria marked as inactive (o), active & met (*), and active & unmet ( ).

	----------------------------------------------------------------------------------------------
	   Step    Total Energy     Delta E     Max Force     RMS Force      Max Disp      RMS Disp
	----------------------------------------------------------------------------------------------
	  Convergence Criteria     1.00e-06 *    3.00e-04 *             o    1.20e-03 *             o
	----------------------------------------------------------------------------------------------
	    18    -261.82214282   -1.79e-07 *    4.71e-06 *    4.71e-06 o    9.77e-04 *    9.77e-04 o  ~
	----------------------------------------------------------------------------------------------

Next Geometry in Ang
	Fragment 1 (Ang)

	    F   0.0000000000   0.0000000000   1.4173414637
	   Na   0.0000000000   0.0000000000  -1.1713147498

    Final optimized geometry and variables:
    Molecular point group: c2v
    Full point group: C_inf_v

    Geometry (in Angstrom), charge = 1, multiplicity = 2:

    F            0.000000000000     0.000000000000     1.417083078924
    NA           0.000000000000     0.000000000000    -1.171056365040

    Psi4 stopped on: Thursday, 17 July 2025 02:25PM
    Psi4 wall time for execution: 0:00:17.62

*** Psi4 exiting successfully. Buy a developer a beer!
