                               Psi4 1.9.1 release

  ==> Input File <==

--------------------------------------------------------------------------
molecule {
1 2
Ne   0.00000        0.60000        0.00000
Ar   0.00000       -0.60000        0.00000
}

set {
basis              cc-pvdz
reference          uks
maxiter            500
geom_maxiter       500
DAMPING_PERCENTAGE 1
guess              SAP
}

optimize('b3lyp')
--------------------------------------------------------------------------

    Molecular point group: c2v
  Charge       = 1
  Multiplicity = 2
  Basis Set: CC-PVDZ
    Blend: CC-PVDZ
  Basis Set: (CC-PVDZ AUX)
    Blend: CC-PVDZ-JKFIT
  @DF-UKS Final Energy:  -655.19282815227666
    Total Energy =                       -655.1928281522766611
 Dipole X            :          0.0000000            0.0000000            0.0000000
 Dipole Y            :          0.0000000            0.0000000            0.0000000
 Dipole Z            :         -0.8034077            1.5038390            0.7004313
 Magnitude           :                                                    0.7004313
    Molecular point group: c2v
  Basis Set: CC-PVDZ
    Blend: CC-PVDZ
  Basis Set: (CC-PVDZ AUX)
    Blend: CC-PVDZ-JKFIT
  Basis Set: CC-PVDZ
    Blend: CC-PVDZ
  Basis Set: (CC-PVDZ AUX)
    Blend: CC-PVDZ-JKFIT
  @DF-UKS Final Energy:  -655.55442040137621
    Total Energy =                       -655.5544204013762055
  Basis Set: CC-PVDZ
    Blend: CC-PVDZ
  Basis Set: (CC-PVDZ AUX)
    Blend: CC-PVDZ-JKFIT
  Basis Set: CC-PVDZ
    Blend: CC-PVDZ
  @DF-UKS Final Energy:  -655.74218819565954
    Total Energy =                       -655.7421881956596508
  @DF-UKS Final Energy:  -655.82697095331321
    Total Energy =                       -655.8269709533132072
  @DF-UKS Final Energy:  -655.86590203551009
    Total Energy =                       -655.8659020355100893
  @DF-UKS Final Energy:  -655.88301874191347
    Total Energy =                       -655.8830187419135882
  @DF-UKS Final Energy:  -655.88990397357725
    Total Energy =                       -655.8899039735772476
  @DF-UKS Final Energy:  -655.89181102870634
    Total Energy =                       -655.8918110287062291
  @DF-UKS Final Energy:  -655.89263825580065
    Total Energy =                       -655.8926382558007617
  @DF-UKS Final Energy:  -655.89283785173018
    Total Energy =                       -655.8928378517301780
  @DF-UKS Final Energy:  -655.89289293978459
    Total Energy =                       -655.8928929397847014
  @DF-UKS Final Energy:  -655.89291295310727
    Total Energy =                       -655.8929129531072704
  Basis Set: (CC-PVDZ AUX)
    Blend: CC-PVDZ-JKFIT
  Basis Set: CC-PVDZ
    Blend: CC-PVDZ
  Basis Set: (CC-PVDZ AUX)
    Blend: CC-PVDZ-JKFIT
  @DF-UKS Final Energy:  -655.89291633464211
    Total Energy =                       -655.8929163346421092
  Basis Set: CC-PVDZ
    Blend: CC-PVDZ
  Basis Set: (CC-PVDZ AUX)
    Blend: CC-PVDZ-JKFIT
  Charge       = 1
  Multiplicity = 2
  Basis Set: CC-PVDZ
    Blend: CC-PVDZ
  Basis Set: (CC-PVDZ AUX)
    Blend: CC-PVDZ-JKFIT

    Orbital Energies [Eh]
    ---------------------

    Alpha Occupied:

       1A1  -115.570994     2A1   -31.324471     3A1   -11.599559
       4A1    -9.168799     1B2    -9.143223     1B1    -9.143223
       5A1    -1.774625     6A1    -1.403409     7A1    -0.930990
       2B1    -0.870648     2B2    -0.870648     8A1    -0.840400
       3B2    -0.819701     3B1    -0.819701

    Alpha Virtual:

       4B2     0.248594     4B1     0.248594     9A1     0.252368
      10A1     0.352701    11A1     0.361952     5B2     0.387812
       5B1     0.387812    12A1     0.434074     1A2     0.434075
       6B1     1.075077     6B2     1.075077    13A1     1.190503
      14A1     1.667806     7B2     4.376991     7B1     4.376991
      15A1     4.378246    16A1     4.396572     2A2     4.396712

    Beta Occupied:

       1A1  -115.563326     2A1   -31.316438     3A1   -11.592275
       4A1    -9.144601     1B2    -9.138821     1B1    -9.138821
       5A1    -1.755248     6A1    -1.351740     7A1    -0.863963
       2B1    -0.863023     2B2    -0.863023     3B2    -0.803339
       3B1    -0.803339

    Beta Virtual:

       8A1    -0.687391     4B1     0.254696     4B2     0.254696
       9A1     0.288480    10A1     0.375912    11A1     0.429983
      12A1     0.442858     1A2     0.442858     5B2     0.443610
       5B1     0.443610     6B1     1.078725     6B2     1.078725
      13A1     1.211230    14A1     1.679474     7B1     4.398509
       7B2     4.398509    15A1     4.400559     2A2     4.400701
      16A1     4.405632

    Final Occupation by Irrep:
             A1    A2    B1    B2
    DOCC [     7,    0,    3,    3 ]
    SOCC [     1,    0,    0,    0 ]
    NA   [     8,    0,    3,    3 ]
    NB   [     7,    0,    3,    3 ]

  @DF-UKS Final Energy:  -655.89291661949630

   => Energetics <=

    Nuclear Repulsion Energy =             42.0246577884692272
    One-Electron Energy =                -983.6913453074868130
    Two-Electron Energy =                 320.4283588017893862
    DFT Exchange-Correlation Energy =     -34.6545879022680552
    Empirical Dispersion Energy =           0.0000000000000000
    VV10 Nonlocal Energy =                  0.0000000000000000
    Total Energy =                       -655.8929166194963045

  UHF NO Occupations:
  HONO-2 :    6 A1 1.9996808
  HONO-1 :    7 A1 1.9994292
  HONO-0 :    8 A1 1.0000000
  LUNO+0 :    9 A1 0.0005708
  LUNO+1 :   10 A1 0.0003192
  LUNO+2 :    4 B1 0.0000196
  LUNO+3 :    4 B2 0.0000196

Computation Completed

Properties will be evaluated at   0.000000,   0.000000,   0.000000 [a0]

Properties computed using the SCF density matrix

 Multipole Moments:

 ------------------------------------------------------------------------------------
     Multipole            Electronic (a.u.)      Nuclear  (a.u.)        Total (a.u.)
 ------------------------------------------------------------------------------------

 L = 1.  Multiply by 2.5417464519 to convert [e a0] to [Debye]
 Dipole X            :          0.0000000            0.0000000            0.0000000
 Dipole Y            :          0.0000000            0.0000000            0.0000000
 Dipole Z            :         -3.4742107            2.8404658           -0.6337449
 Magnitude           :                                                    0.6337449

 ------------------------------------------------------------------------------------

*** tstop() called on Joses-MacBook-Pro-2.local at Thu Jul 17 14:43:36 2025
Module time:
	user time   =       3.04 seconds =       0.05 minutes
	system time =       3.55 seconds =       0.06 minutes
	total time  =          0 seconds =       0.00 minutes
Total time:
	user time   =      67.68 seconds =       1.13 minutes
	system time =      72.34 seconds =       1.21 minutes
	total time  =         14 seconds =       0.23 minutes

*** tstart() called on Joses-MacBook-Pro-2.local
*** at Thu Jul 17 14:43:36 2025

         ------------------------------------------------------------
                                   SCF GRAD
                          Rob Parrish, Justin Turney,
                       Andy Simmonett, and Alex Sokolov
         ------------------------------------------------------------

  ==> Geometry <==

    Molecular point group: c2v
    Full point group: C_inf_v

    Geometry (in Angstrom), charge = 1, multiplicity = 2:

       Center              X                  Y                   Z               Mass
    ------------   -----------------  -----------------  -----------------  -----------------
         NE           0.000000000000     0.000000000000     1.510764266271    19.992440176200
         AR           0.000000000000     0.000000000000    -0.755807383165    39.962383123700

  Nuclear repulsion =   42.024657788469227

  ==> Basis Set <==

  Basis Set: CC-PVDZ
    Blend: CC-PVDZ
    Number of shells: 14
    Number of basis functions: 32
    Number of Cartesian functions: 34
    Spherical Harmonics?: true
    Max angular momentum: 2

  ==> DFJKGrad: Density-Fitted SCF Gradients <==

    Gradient:                    1
    J tasked:                  Yes
    K tasked:                  Yes
    wK tasked:                  No
    OpenMP threads:              1
    Integrals threads:           1
    Memory [MiB]:              375
    Schwarz Cutoff:          1E-12
    Fitting Condition:       1E-10

   => Auxiliary Basis Set <=

  Basis Set: (CC-PVDZ AUX)
    Blend: CC-PVDZ-JKFIT
    Number of shells: 60
    Number of basis functions: 182
    Number of Cartesian functions: 211
    Spherical Harmonics?: true
    Max angular momentum: 3

  ==> DFT Potential <==

   => LibXC <=

    Version 6.2.2
    S. Lehtola, C. Steigemann, M. J.T. Oliveira, and M. A.L. Marques.,  SoftwareX 7, 1â€“5 (2018) (10.1016/j.softx.2017.11.002)

   => Composite Functional: B3LYP <=

    B3LYP Hyb-GGA Exchange-Correlation Functional

    P. J. Stephens, F. J. Devlin, C. F. Chabalowski, and M. J. Frisch.,  J. Phys. Chem. 98, 11623 (1994) (10.1021/j100096a001)

    Deriv               =              1
    GGA                 =           TRUE
    Meta                =          FALSE

    Exchange Hybrid     =           TRUE
    MP2 Hybrid          =          FALSE

   => Exchange Functionals <=

    0.0800   Slater exchange
    0.7200         Becke 88

   => Exact (HF) Exchange <=

    0.2000               HF

   => Correlation Functionals <=

    0.1900   Vosko, Wilk & Nusair (VWN5_RPA)
    0.8100   Lee, Yang & Parr

   => LibXC Density Thresholds  <==

    XC_HYB_GGA_XC_B3LYP:  1.00E-15

   => Molecular Quadrature <=

    Radial Scheme          =       TREUTLER
    Pruning Scheme         =           NONE
    Nuclear Scheme         =       TREUTLER

    Blocking Scheme        =         OCTREE
    BS radius alpha        =              1
    Pruning alpha          =              1
    Radial Points          =             75
    Spherical Points       =            302
    Total Points           =          41462
    Total Blocks           =            370
    Max Points             =            256
    Max Functions          =             32
    Weights Tolerance      =       1.00E-15

  -Total Gradient:
     Atom            X                  Y                   Z
    ------   -----------------  -----------------  -----------------
       1        0.000000000000    -0.000000000000     0.000000816274
       2        0.000000000000    -0.000000000000     0.000046256218

*** tstop() called on Joses-MacBook-Pro-2.local at Thu Jul 17 14:43:37 2025
Module time:
	user time   =       1.26 seconds =       0.02 minutes
	system time =       1.31 seconds =       0.02 minutes
	total time  =          1 seconds =       0.02 minutes
Total time:
	user time   =      68.94 seconds =       1.15 minutes
	system time =      73.65 seconds =       1.23 minutes
	total time  =         15 seconds =       0.25 minutes

    			-----------------------------------------

    			 OPTKING 3.0: for geometry optimizations

    			     By R.A. King, Bethel University

    			        with contributions from

    			    A.V. Copan, J. Cayton, A. Heide

    			-----------------------------------------

	                            ===> Fragment 1 <==

	 Z (Atomic Numbers)          Masses                          Geom
	      10.000000            19.992440          0.00000000  0.00000000  2.85493070
	      18.000000            39.962383          0.00000000  0.00000000 -1.42826896

	 - Coordinate -           - BOHR/RAD -       - ANG/DEG -
	 R(1,2)           =         4.283200           2.266572

	        --- Internal Coordinate Step in ANG or DEG, aJ/ANG or AJ/DEG ---
	-------------------------------------------------------------------------------
	           Coordinate      Previous         Force          Change          New
	           ----------      --------        ------          ------        ------
	               R(1,2)       2.26657        0.00019        0.00030       2.26688
	-------------------------------------------------------------------------------

	                                 ==> Convergence Check <==

	Measures of convergence in internal coordinates in au.

	Criteria marked as inactive (o), active & met (*), and active & unmet ( ).

	----------------------------------------------------------------------------------------------
	   Step    Total Energy     Delta E     Max Force     RMS Force      Max Disp      RMS Disp
	----------------------------------------------------------------------------------------------
	  Convergence Criteria     1.00e-06 *    3.00e-04 *             o    1.20e-03 *             o
	----------------------------------------------------------------------------------------------
	    14    -655.89291662   -2.85e-07 *    2.27e-05 *    2.27e-05 o    5.74e-04 *    5.74e-04 o  ~
	----------------------------------------------------------------------------------------------

Next Geometry in Ang
	Fragment 1 (Ang)

	   Ne   0.0000000000   0.0000000000   1.5109160557
	   Ar   0.0000000000   0.0000000000  -0.7559591726

    Final optimized geometry and variables:
    Molecular point group: c2v
    Full point group: C_inf_v

    Geometry (in Angstrom), charge = 1, multiplicity = 2:

    NE           0.000000000000     0.000000000000     1.510764266271
    AR           0.000000000000     0.000000000000    -0.755807383165

    Psi4 stopped on: Thursday, 17 July 2025 02:43PM
    Psi4 wall time for execution: 0:00:14.78

*** Psi4 exiting successfully. Buy a developer a beer!
