                               Psi4 1.9.1 release

  ==> Input File <==

--------------------------------------------------------------------------
molecule {
1 2
Li   0.00000        0.60000        0.00000
P   0.00000       -0.60000        0.00000
}

set {
basis              cc-pvdz
reference          uks
maxiter            500
geom_maxiter       500
DAMPING_PERCENTAGE 1
guess              SAP
}

optimize('b3lyp')
--------------------------------------------------------------------------

    Molecular point group: c2v
  Charge       = 1
  Multiplicity = 2
  Basis Set: CC-PVDZ
    Blend: CC-PVDZ
  Basis Set: (CC-PVDZ AUX)
    Blend: CC-PVDZ-JKFIT + DEF2-UNIVERSAL-JKFIT
  @DF-UKS Final Energy:  -348.08586247545236
    Total Energy =                       -348.0858624754523589
 Dipole X            :          0.0000000            0.0000000            0.0000000
 Dipole Y            :          0.0000000            0.0000000            0.0000000
 Dipole Z            :          1.5029093           -0.7353273            0.7675820
 Magnitude           :                                                    0.7675820
    Molecular point group: c2v
  Basis Set: CC-PVDZ
    Blend: CC-PVDZ
  Basis Set: (CC-PVDZ AUX)
    Blend: CC-PVDZ-JKFIT + DEF2-UNIVERSAL-JKFIT
  Basis Set: CC-PVDZ
    Blend: CC-PVDZ
  Basis Set: (CC-PVDZ AUX)
    Blend: CC-PVDZ-JKFIT + DEF2-UNIVERSAL-JKFIT
  @DF-UKS Final Energy:  -348.17604643982918
    Total Energy =                       -348.1760464398291219
  Basis Set: CC-PVDZ
    Blend: CC-PVDZ
  Basis Set: (CC-PVDZ AUX)
    Blend: CC-PVDZ-JKFIT + DEF2-UNIVERSAL-JKFIT
  Basis Set: CC-PVDZ
    Blend: CC-PVDZ
  @DF-UKS Final Energy:  -348.27654203304024
    Total Energy =                       -348.2765420330401867
  @DF-UKS Final Energy:  -348.37856303794831
    Total Energy =                       -348.3785630379483109
  @DF-UKS Final Energy:  -348.43166881313357
    Total Energy =                       -348.4316688131335695
  @DF-UKS Final Energy:  -348.45923135594199
    Total Energy =                       -348.4592313559419949
  @DF-UKS Final Energy:  -348.47405815408342
    Total Energy =                       -348.4740581540833659
  @DF-UKS Final Energy:  -348.48208767641535
    Total Energy =                       -348.4820876764153468
  @DF-UKS Final Energy:  -348.48647142903661
    Total Energy =                       -348.4864714290366123
  @DF-UKS Final Energy:  -348.48891773452453
    Total Energy =                       -348.4889177345244775
  @DF-UKS Final Energy:  -348.49033887768195
    Total Energy =                       -348.4903388776819497
  @DF-UKS Final Energy:  -348.49123219498171
    Total Energy =                       -348.4912321949817056
  @DF-UKS Final Energy:  -348.49189382995178
    Total Energy =                       -348.4918938299517208
  @DF-UKS Final Energy:  -348.49254030556284
    Total Energy =                       -348.4925403055627839
  @DF-UKS Final Energy:  -348.49254684678152
    Total Energy =                       -348.4925468467815222
  @DF-UKS Final Energy:  -348.49255338015945
    Total Energy =                       -348.4925533801594497
  @DF-UKS Final Energy:  -348.49255990715187
    Total Energy =                       -348.4925599071518718
  @DF-UKS Final Energy:  -348.49256642788225
    Total Energy =                       -348.4925664278823092
  @DF-UKS Final Energy:  -348.49337903887505
    Total Energy =                       -348.4933790388751049
  @DF-UKS Final Energy:  -348.49338557463949
    Total Energy =                       -348.4933855746394897
  @DF-UKS Final Energy:  -348.49562583768926
    Total Energy =                       -348.4956258376892606
  @DF-UKS Final Energy:  -348.49562779906358
    Total Energy =                       -348.4956277990635840
  @DF-UKS Final Energy:  -348.49562975681857
    Total Energy =                       -348.4956297568185164
  @DF-UKS Final Energy:  -348.49563170996021
    Total Energy =                       -348.4956317099602074
  @DF-UKS Final Energy:  -348.49563365853237
    Total Energy =                       -348.4956336585323697
  @DF-UKS Final Energy:  -348.49563560259242
    Total Energy =                       -348.4956356025924151
  @DF-UKS Final Energy:  -348.49563754207043
    Total Energy =                       -348.4956375420704262
  @DF-UKS Final Energy:  -348.49563947706298
    Total Energy =                       -348.4956394770629799
  @DF-UKS Final Energy:  -348.49592612967416
    Total Energy =                       -348.4959261296741602
  @DF-UKS Final Energy:  -348.49592747296430
    Total Energy =                       -348.4959274729643539
  @DF-UKS Final Energy:  -348.49592881336486
    Total Energy =                       -348.4959288133649125
  @DF-UKS Final Energy:  -348.49593015138652
    Total Energy =                       -348.4959301513865171
  @DF-UKS Final Energy:  -348.49593148702718
    Total Energy =                       -348.4959314870271783
  @DF-UKS Final Energy:  -348.49593282030918
    Total Energy =                       -348.4959328203091786
  @DF-UKS Final Energy:  -348.49593415126691
    Total Energy =                       -348.4959341512669084
  @DF-UKS Final Energy:  -348.49593547984409
    Total Energy =                       -348.4959354798440359
  @DF-UKS Final Energy:  -348.49593680610889
    Total Energy =                       -348.4959368061089435
  @DF-UKS Final Energy:  -348.49593813008352
    Total Energy =                       -348.4959381300835162
  Basis Set: (CC-PVDZ AUX)
    Blend: CC-PVDZ-JKFIT + DEF2-UNIVERSAL-JKFIT
  Basis Set: CC-PVDZ
    Blend: CC-PVDZ
  Basis Set: (CC-PVDZ AUX)
    Blend: CC-PVDZ-JKFIT + DEF2-UNIVERSAL-JKFIT
  @DF-UKS Final Energy:  -348.49616944723482
    Total Energy =                       -348.4961694472348768
  Basis Set: CC-PVDZ
    Blend: CC-PVDZ
  Basis Set: (CC-PVDZ AUX)
    Blend: CC-PVDZ-JKFIT + DEF2-UNIVERSAL-JKFIT
  Charge       = 1
  Multiplicity = 2
  Basis Set: CC-PVDZ
    Blend: CC-PVDZ
  Basis Set: (CC-PVDZ AUX)
    Blend: CC-PVDZ-JKFIT + DEF2-UNIVERSAL-JKFIT

    Orbital Energies [Eh]
    ---------------------

    Alpha Occupied:

       1A1   -77.205932     2A1    -6.670021     3A1    -4.840384
       1B1    -4.835361     1B2    -4.819123     4A1    -2.351876
       5A1    -0.638053     2B1    -0.324513     2B2    -0.281741

    Alpha Virtual:

       6A1    -0.252768     7A1    -0.250720     3B2    -0.176269
       8A1    -0.175843     3B1    -0.175718     4B2    -0.063712
       9A1    -0.062271     4B1    -0.061777    10A1    -0.042622
      11A1     0.074620     5B2     0.074805     1A2     0.074931
       5B1     0.074956    12A1     0.074980    13A1     0.271824
       6B1     0.328634    14A1     0.337075     6B2     0.357143
       7B1     0.363020    15A1     0.368081     2A2     0.392080
       7B2     0.397057    16A1     0.408743

    Beta Occupied:

       1A1   -77.201786     2A1    -6.665609     3A1    -4.838062
       1B1    -4.820698     1B2    -4.816579     4A1    -2.351876
       5A1    -0.597377     2B2    -0.270395

    Beta Virtual:

       6A1    -0.252632     7A1    -0.238806     2B1    -0.195967
       3B2    -0.176220     8A1    -0.175896     3B1    -0.175787
       4B2    -0.064158     9A1    -0.062745     4B1    -0.060522
      10A1    -0.042703     5B1     0.074835    11A1     0.074838
       5B2     0.074923     1A2     0.074970    12A1     0.075211
      13A1     0.287154    14A1     0.342597     6B2     0.362680
       6B1     0.369375    15A1     0.401890     7B2     0.402241
       7B1     0.415525     2A2     0.437106    16A1     0.442952

    Final Occupation by Irrep:
             A1    A2    B1    B2
    DOCC [     5,    0,    1,    2 ]
    SOCC [     0,    0,    1,    0 ]
    NA   [     5,    0,    2,    2 ]
    NB   [     5,    0,    1,    2 ]

  @DF-UKS Final Energy:  -348.49617037225227

   => Energetics <=

    Nuclear Repulsion Energy =              3.2675470434602385
    One-Electron Energy =                -485.7269093437118386
    Two-Electron Energy =                 153.9824650679206570
    DFT Exchange-Correlation Energy =     -20.0192731399213493
    Empirical Dispersion Energy =           0.0000000000000000
    VV10 Nonlocal Energy =                  0.0000000000000000
    Total Energy =                       -348.4961703722522657

  UHF NO Occupations:
  HONO-2 :    2 B2 1.9999760
  HONO-1 :    5 A1 1.9987354
  HONO-0 :    2 B1 1.0000000
  LUNO+0 :    6 A1 0.0012646
  LUNO+1 :    3 B2 0.0000240
  LUNO+2 :    7 A1 0.0000000
  LUNO+3 :    3 B1 0.0000000

Computation Completed

Properties will be evaluated at   0.000000,   0.000000,   0.000000 [a0]

Properties computed using the SCF density matrix

 Multipole Moments:

 ------------------------------------------------------------------------------------
     Multipole            Electronic (a.u.)      Nuclear  (a.u.)        Total (a.u.)
 ------------------------------------------------------------------------------------

 L = 1.  Multiply by 2.5417464519 to convert [e a0] to [Debye]
 Dipole X            :          0.0000000            0.0000000            0.0000000
 Dipole Y            :          0.0000000            0.0000000            0.0000000
 Dipole Z            :         15.6260150           -4.4657175           11.1602975
 Magnitude           :                                                   11.1602975

 ------------------------------------------------------------------------------------

*** tstop() called on Joses-MacBook-Pro-2.local at Thu Jul 17 12:55:20 2025
Module time:
	user time   =       1.27 seconds =       0.02 minutes
	system time =       2.02 seconds =       0.03 minutes
	total time  =          1 seconds =       0.02 minutes
Total time:
	user time   =     236.78 seconds =       3.95 minutes
	system time =     282.89 seconds =       4.71 minutes
	total time  =         52 seconds =       0.87 minutes

*** tstart() called on Joses-MacBook-Pro-2.local
*** at Thu Jul 17 12:55:20 2025

         ------------------------------------------------------------
                                   SCF GRAD
                          Rob Parrish, Justin Turney,
                       Andy Simmonett, and Alex Sokolov
         ------------------------------------------------------------

  ==> Geometry <==

    Molecular point group: c2v
    Full point group: C_inf_v

    Geometry (in Angstrom), charge = 1, multiplicity = 2:

       Center              X                  Y                   Z               Mass
    ------------   -----------------  -----------------  -----------------  -----------------
         LI           0.000000000000     0.000000000000     5.941815228546     7.016003436600
         P            0.000000000000     0.000000000000    -1.345906773134    30.973761998420

  Nuclear repulsion =    3.267547043460238

  ==> Basis Set <==

  Basis Set: CC-PVDZ
    Blend: CC-PVDZ
    Number of shells: 14
    Number of basis functions: 32
    Number of Cartesian functions: 34
    Spherical Harmonics?: true
    Max angular momentum: 2

  ==> DFJKGrad: Density-Fitted SCF Gradients <==

    Gradient:                    1
    J tasked:                  Yes
    K tasked:                  Yes
    wK tasked:                  No
    OpenMP threads:              1
    Integrals threads:           1
    Memory [MiB]:              375
    Schwarz Cutoff:          1E-12
    Fitting Condition:       1E-10

   => Auxiliary Basis Set <=

  Basis Set: (CC-PVDZ AUX)
    Blend: CC-PVDZ-JKFIT + DEF2-UNIVERSAL-JKFIT
    Number of shells: 53
    Number of basis functions: 163
    Number of Cartesian functions: 190
    Spherical Harmonics?: true
    Max angular momentum: 3

  ==> DFT Potential <==

   => LibXC <=

    Version 6.2.2
    S. Lehtola, C. Steigemann, M. J.T. Oliveira, and M. A.L. Marques.,  SoftwareX 7, 1â€“5 (2018) (10.1016/j.softx.2017.11.002)

   => Composite Functional: B3LYP <=

    B3LYP Hyb-GGA Exchange-Correlation Functional

    P. J. Stephens, F. J. Devlin, C. F. Chabalowski, and M. J. Frisch.,  J. Phys. Chem. 98, 11623 (1994) (10.1021/j100096a001)

    Deriv               =              1
    GGA                 =           TRUE
    Meta                =          FALSE

    Exchange Hybrid     =           TRUE
    MP2 Hybrid          =          FALSE

   => Exchange Functionals <=

    0.0800   Slater exchange
    0.7200         Becke 88

   => Exact (HF) Exchange <=

    0.2000               HF

   => Correlation Functionals <=

    0.1900   Vosko, Wilk & Nusair (VWN5_RPA)
    0.8100   Lee, Yang & Parr

   => LibXC Density Thresholds  <==

    XC_HYB_GGA_XC_B3LYP:  1.00E-15

   => Molecular Quadrature <=

    Radial Scheme          =       TREUTLER
    Pruning Scheme         =           NONE
    Nuclear Scheme         =       TREUTLER

    Blocking Scheme        =         OCTREE
    BS radius alpha        =              1
    Pruning alpha          =              1
    Radial Points          =             75
    Spherical Points       =            302
    Total Points           =          44452
    Total Blocks           =            468
    Max Points             =            253
    Max Functions          =             32
    Weights Tolerance      =       1.00E-15

  -Total Gradient:
     Atom            X                  Y                   Z
    ------   -----------------  -----------------  -----------------
       1        0.000000000000     0.000000000000    -0.000232834368
       2       -0.000000000000     0.000000000000     0.000224480250

*** tstop() called on Joses-MacBook-Pro-2.local at Thu Jul 17 12:55:20 2025
Module time:
	user time   =       0.69 seconds =       0.01 minutes
	system time =       1.64 seconds =       0.03 minutes
	total time  =          0 seconds =       0.00 minutes
Total time:
	user time   =     237.48 seconds =       3.96 minutes
	system time =     284.53 seconds =       4.74 minutes
	total time  =         52 seconds =       0.87 minutes

    			-----------------------------------------

    			 OPTKING 3.0: for geometry optimizations

    			     By R.A. King, Bethel University

    			        with contributions from

    			    A.V. Copan, J. Cayton, A. Heide

    			-----------------------------------------

	                            ===> Fragment 1 <==

	 Z (Atomic Numbers)          Masses                          Geom
	       3.000000             7.016003          0.00000000   0.00000000  11.22840347
	      15.000000            30.973762          0.00000000  0.00000000 -2.54339519

	 - Coordinate -           - BOHR/RAD -       - ANG/DEG -
	 R(1,2)           =        13.771799           7.287722

	        --- Internal Coordinate Step in ANG or DEG, aJ/ANG or AJ/DEG ---
	-------------------------------------------------------------------------------
	           Coordinate      Previous         Force          Change          New
	           ----------      --------        ------          ------        ------
	               R(1,2)       7.28772        0.00188        0.00211       7.28983
	-------------------------------------------------------------------------------

	                                 ==> Convergence Check <==

	Measures of convergence in internal coordinates in au.

	Criteria marked as inactive (o), active & met (*), and active & unmet ( ).

	----------------------------------------------------------------------------------------------
	   Step    Total Energy     Delta E     Max Force     RMS Force      Max Disp      RMS Disp
	----------------------------------------------------------------------------------------------
	  Convergence Criteria     1.00e-06 *    3.00e-04 *             o    1.20e-03 *             o
	----------------------------------------------------------------------------------------------
	    60    -348.49617037   -9.25e-07 *    2.29e-04 *    2.29e-04 o    3.98e-03      3.98e-03 o  ~
	----------------------------------------------------------------------------------------------

Next Geometry in Ang
	Fragment 1 (Ang)

	   Li   0.0000000000   0.0000000000   5.9428690559
	    P   0.0000000000   0.0000000000  -1.3469606004

    Final optimized geometry and variables:
    Molecular point group: c2v
    Full point group: C_inf_v

    Geometry (in Angstrom), charge = 1, multiplicity = 2:

    LI           0.000000000000     0.000000000000     5.941815228546
    P            0.000000000000     0.000000000000    -1.345906773134

    Psi4 stopped on: Thursday, 17 July 2025 12:55PM
    Psi4 wall time for execution: 0:00:52.43

*** Psi4 exiting successfully. Buy a developer a beer!
