                               Psi4 1.9.1 release

  ==> Input File <==

--------------------------------------------------------------------------
molecule {
1 2
Mg   0.00000        0.60000        0.00000
S   0.00000       -0.60000        0.00000
}

set {
basis              cc-pvdz
reference          uks
maxiter            500
geom_maxiter       500
DAMPING_PERCENTAGE 1
guess              SAP
}

optimize('b3lyp')
--------------------------------------------------------------------------

    Molecular point group: c2v
  Charge       = 1
  Multiplicity = 2
  Basis Set: CC-PVDZ
    Blend: CC-PVDZ
  Basis Set: (CC-PVDZ AUX)
    Blend: CC-PVDZ-JKFIT + DEF2-UNIVERSAL-JKFIT
  @DF-UKS Final Energy:  -596.94806055591221
    Total Energy =                       -596.9480605559122068
 Dipole X            :          0.0000000            0.0000000            0.0000000
 Dipole Y            :          0.0000000            0.0000000            0.0000000
 Dipole Z            :          1.7136196           -0.0038828            1.7097367
 Magnitude           :                                                    1.7097367
    Molecular point group: c2v
  Basis Set: CC-PVDZ
    Blend: CC-PVDZ
  Basis Set: (CC-PVDZ AUX)
    Blend: CC-PVDZ-JKFIT + DEF2-UNIVERSAL-JKFIT
  Basis Set: CC-PVDZ
    Blend: CC-PVDZ
  Basis Set: (CC-PVDZ AUX)
    Blend: CC-PVDZ-JKFIT + DEF2-UNIVERSAL-JKFIT
  @DF-UKS Final Energy:  -596.96517704600262
    Total Energy =                       -596.9651770460025091
  Basis Set: CC-PVDZ
    Blend: CC-PVDZ
  Basis Set: (CC-PVDZ AUX)
    Blend: CC-PVDZ-JKFIT + DEF2-UNIVERSAL-JKFIT
  Basis Set: CC-PVDZ
    Blend: CC-PVDZ
  @DF-UKS Final Energy:  -596.99810587899367
    Total Energy =                       -596.9981058789936696
  @DF-UKS Final Energy:  -597.11634078733005
    Total Energy =                       -597.1163407873300457
  @DF-UKS Final Energy:  -597.59544401400683
    Total Energy =                       -597.5954440140069437
  @DF-UKS Final Energy:  -597.78534907805454
    Total Energy =                       -597.7853490780545371
  @DF-UKS Final Energy:  -597.88076203515857
    Total Energy =                       -597.8807620351584546
  @DF-UKS Final Energy:  -597.91943444726508
    Total Energy =                       -597.9194344472650755
  @DF-UKS Final Energy:  -597.93330872353715
    Total Energy =                       -597.9333087235371522
  @DF-UKS Final Energy:  -597.93624601939655
    Total Energy =                       -597.9362460193965489
  @DF-UKS Final Energy:  -597.93709616507158
    Total Energy =                       -597.9370961650716936
  @DF-UKS Final Energy:  -597.93720730073437
    Total Energy =                       -597.9372073007343715
  @DF-UKS Final Energy:  -597.93722285902254
    Total Energy =                       -597.9372228590225404
  Basis Set: (CC-PVDZ AUX)
    Blend: CC-PVDZ-JKFIT + DEF2-UNIVERSAL-JKFIT
  Basis Set: CC-PVDZ
    Blend: CC-PVDZ
  Basis Set: (CC-PVDZ AUX)
    Blend: CC-PVDZ-JKFIT + DEF2-UNIVERSAL-JKFIT
  @DF-UKS Final Energy:  -597.93722531164246
    Total Energy =                       -597.9372253116424645
  Basis Set: CC-PVDZ
    Blend: CC-PVDZ
  Basis Set: (CC-PVDZ AUX)
    Blend: CC-PVDZ-JKFIT + DEF2-UNIVERSAL-JKFIT
  Charge       = 1
  Multiplicity = 2
  Basis Set: CC-PVDZ
    Blend: CC-PVDZ
  Basis Set: (CC-PVDZ AUX)
    Blend: CC-PVDZ-JKFIT + DEF2-UNIVERSAL-JKFIT

    Orbital Energies [Eh]
    ---------------------

    Alpha Occupied:

       1A1   -89.074374     2A1   -47.213956     3A1    -8.135698
       4A1    -6.109335     1B1    -6.089929     1B2    -6.089929
       5A1    -3.485122     6A1    -2.229909     2B1    -2.228014
       2B2    -2.228014     7A1    -0.875338     8A1    -0.546894
       3B2    -0.450678     3B1    -0.450678

    Alpha Virtual:

       9A1    -0.368452     4B1    -0.233406     4B2    -0.233406
      10A1    -0.159080    11A1    -0.086567     5B1    -0.042415
       5B2    -0.042415    12A1    -0.014445     1A2     0.051868
      13A1     0.051869     6B2     0.055006     6B1     0.055006
      14A1     0.131881     7B1     0.362076     7B2     0.362076
      15A1     0.406325     2A2     0.445220    16A1     0.445221
      17A1     0.456855     8B2     0.540635     8B1     0.540635
      18A1     0.898321

    Beta Occupied:

       1A1   -89.070066     2A1   -47.212471     3A1    -8.131052
       4A1    -6.095861     1B1    -6.087108     1B2    -6.087108
       5A1    -3.482594     6A1    -2.227288     2B1    -2.226423
       2B2    -2.226423     7A1    -0.836185     3B2    -0.438522
       3B1    -0.438522

    Beta Virtual:

       8A1    -0.437433     9A1    -0.344549     4B1    -0.226876
       4B2    -0.226876    10A1    -0.150419    11A1    -0.084047
       5B1    -0.038068     5B2    -0.038068    12A1     0.001165
      13A1     0.058532     1A2     0.058533     6B2     0.072200
       6B1     0.072200    14A1     0.156782     7B1     0.367113
       7B2     0.367113    15A1     0.442682     2A2     0.452232
      16A1     0.452234    17A1     0.477076     8B2     0.574536
       8B1     0.574536    18A1     0.923213

    Final Occupation by Irrep:
             A1    A2    B1    B2
    DOCC [     7,    0,    3,    3 ]
    SOCC [     1,    0,    0,    0 ]
    NA   [     8,    0,    3,    3 ]
    NB   [     7,    0,    3,    3 ]

  @DF-UKS Final Energy:  -597.93722540329145

   => Energetics <=

    Nuclear Repulsion Energy =             46.6293782029710826
    One-Electron Energy =                -915.2840279639119672
    Two-Electron Energy =                 304.5261840569798437
    DFT Exchange-Correlation Energy =     -33.8087596993304160
    Empirical Dispersion Energy =           0.0000000000000000
    VV10 Nonlocal Energy =                  0.0000000000000000
    Total Energy =                       -597.9372254032913361

  UHF NO Occupations:
  HONO-2 :    3 B1 1.9998581
  HONO-1 :    7 A1 1.9990341
  HONO-0 :    8 A1 1.0000000
  LUNO+0 :    9 A1 0.0009659
  LUNO+1 :    4 B2 0.0001419
  LUNO+2 :    4 B1 0.0001419
  LUNO+3 :   10 A1 0.0000006

Computation Completed

Properties will be evaluated at   0.000000,   0.000000,   0.000000 [a0]

Properties computed using the SCF density matrix

 Multipole Moments:

 ------------------------------------------------------------------------------------
     Multipole            Electronic (a.u.)      Nuclear  (a.u.)        Total (a.u.)
 ------------------------------------------------------------------------------------

 L = 1.  Multiply by 2.5417464519 to convert [e a0] to [Debye]
 Dipole X            :          0.0000000            0.0000000            0.0000000
 Dipole Y            :          0.0000000            0.0000000            0.0000000
 Dipole Z            :          3.6248272           -0.0070504            3.6177768
 Magnitude           :                                                    3.6177768

 ------------------------------------------------------------------------------------

*** tstop() called on Joses-MacBook-Pro-2.local at Thu Jul 17 15:08:19 2025
Module time:
	user time   =       7.09 seconds =       0.12 minutes
	system time =       2.37 seconds =       0.04 minutes
	total time  =          1 seconds =       0.02 minutes
Total time:
	user time   =     184.57 seconds =       3.08 minutes
	system time =      48.75 seconds =       0.81 minutes
	total time  =         22 seconds =       0.37 minutes

*** tstart() called on Joses-MacBook-Pro-2.local
*** at Thu Jul 17 15:08:19 2025

         ------------------------------------------------------------
                                   SCF GRAD
                          Rob Parrish, Justin Turney,
                       Andy Simmonett, and Alex Sokolov
         ------------------------------------------------------------

  ==> Geometry <==

    Molecular point group: c2v
    Full point group: C_inf_v

    Geometry (in Angstrom), charge = 1, multiplicity = 2:

       Center              X                  Y                   Z               Mass
    ------------   -----------------  -----------------  -----------------  -----------------
         MG           0.000000000000     0.000000000000     1.244968059730    23.985041697000
         S            0.000000000000     0.000000000000    -0.933959225262    31.972071174400

  Nuclear repulsion =   46.629378202971083

  ==> Basis Set <==

  Basis Set: CC-PVDZ
    Blend: CC-PVDZ
    Number of shells: 16
    Number of basis functions: 36
    Number of Cartesian functions: 38
    Spherical Harmonics?: true
    Max angular momentum: 2

  ==> DFJKGrad: Density-Fitted SCF Gradients <==

    Gradient:                    1
    J tasked:                  Yes
    K tasked:                  Yes
    wK tasked:                  No
    OpenMP threads:              1
    Integrals threads:           1
    Memory [MiB]:              375
    Schwarz Cutoff:          1E-12
    Fitting Condition:       1E-10

   => Auxiliary Basis Set <=

  Basis Set: (CC-PVDZ AUX)
    Blend: CC-PVDZ-JKFIT + DEF2-UNIVERSAL-JKFIT
    Number of shells: 70
    Number of basis functions: 224
    Number of Cartesian functions: 267
    Spherical Harmonics?: true
    Max angular momentum: 4

  ==> DFT Potential <==

   => LibXC <=

    Version 6.2.2
    S. Lehtola, C. Steigemann, M. J.T. Oliveira, and M. A.L. Marques.,  SoftwareX 7, 1â€“5 (2018) (10.1016/j.softx.2017.11.002)

   => Composite Functional: B3LYP <=

    B3LYP Hyb-GGA Exchange-Correlation Functional

    P. J. Stephens, F. J. Devlin, C. F. Chabalowski, and M. J. Frisch.,  J. Phys. Chem. 98, 11623 (1994) (10.1021/j100096a001)

    Deriv               =              1
    GGA                 =           TRUE
    Meta                =          FALSE

    Exchange Hybrid     =           TRUE
    MP2 Hybrid          =          FALSE

   => Exchange Functionals <=

    0.0800   Slater exchange
    0.7200         Becke 88

   => Exact (HF) Exchange <=

    0.2000               HF

   => Correlation Functionals <=

    0.1900   Vosko, Wilk & Nusair (VWN5_RPA)
    0.8100   Lee, Yang & Parr

   => LibXC Density Thresholds  <==

    XC_HYB_GGA_XC_B3LYP:  1.00E-15

   => Molecular Quadrature <=

    Radial Scheme          =       TREUTLER
    Pruning Scheme         =           NONE
    Nuclear Scheme         =       TREUTLER

    Blocking Scheme        =         OCTREE
    BS radius alpha        =              1
    Pruning alpha          =              1
    Radial Points          =             75
    Spherical Points       =            302
    Total Points           =          43001
    Total Blocks           =            419
    Max Points             =            253
    Max Functions          =             36
    Weights Tolerance      =       1.00E-15

  -Total Gradient:
     Atom            X                  Y                   Z
    ------   -----------------  -----------------  -----------------
       1        0.000000000000     0.000000000000    -0.000013142617
       2       -0.000000000000    -0.000000000000     0.000031228119

*** tstop() called on Joses-MacBook-Pro-2.local at Thu Jul 17 15:08:20 2025
Module time:
	user time   =       2.21 seconds =       0.04 minutes
	system time =       1.66 seconds =       0.03 minutes
	total time  =          1 seconds =       0.02 minutes
Total time:
	user time   =     186.78 seconds =       3.11 minutes
	system time =      50.41 seconds =       0.84 minutes
	total time  =         23 seconds =       0.38 minutes

    			-----------------------------------------

    			 OPTKING 3.0: for geometry optimizations

    			     By R.A. King, Bethel University

    			        with contributions from

    			    A.V. Copan, J. Cayton, A. Heide

    			-----------------------------------------

	                            ===> Fragment 1 <==

	 Z (Atomic Numbers)          Masses                          Geom
	      12.000000            23.985042          0.00000000  0.00000000  2.35264867
	      16.000000            31.972071          0.00000000  0.00000000 -1.76492715

	 - Coordinate -           - BOHR/RAD -       - ANG/DEG -
	 R(1,2)           =         4.117576           2.178927

	        --- Internal Coordinate Step in ANG or DEG, aJ/ANG or AJ/DEG ---
	-------------------------------------------------------------------------------
	           Coordinate      Previous         Force          Change          New
	           ----------      --------        ------          ------        ------
	               R(1,2)       2.17893        0.00018        0.00009       2.17901
	-------------------------------------------------------------------------------

	                                 ==> Convergence Check <==

	Measures of convergence in internal coordinates in au.

	Criteria marked as inactive (o), active & met (*), and active & unmet ( ).

	----------------------------------------------------------------------------------------------
	   Step    Total Energy     Delta E     Max Force     RMS Force      Max Disp      RMS Disp
	----------------------------------------------------------------------------------------------
	  Convergence Criteria     1.00e-06 *    3.00e-04 *             o    1.20e-03 *             o
	----------------------------------------------------------------------------------------------
	    15    -597.93722540   -9.16e-08 *    2.22e-05 *    2.22e-05 o    1.65e-04 *    1.65e-04 o  ~
	----------------------------------------------------------------------------------------------

Next Geometry in Ang
	Fragment 1 (Ang)

	   Mg   0.0000000000   0.0000000000   1.2450118200
	    S   0.0000000000   0.0000000000  -0.9340029856

    Final optimized geometry and variables:
    Molecular point group: c2v
    Full point group: C_inf_v

    Geometry (in Angstrom), charge = 1, multiplicity = 2:

    MG           0.000000000000     0.000000000000     1.244968059730
    S            0.000000000000     0.000000000000    -0.933959225262

    Psi4 stopped on: Thursday, 17 July 2025 03:08PM
    Psi4 wall time for execution: 0:00:23.13

*** Psi4 exiting successfully. Buy a developer a beer!
