                               Psi4 1.9.1 release

  ==> Input File <==

--------------------------------------------------------------------------
molecule {
1 2
Be   0.00000        0.60000        0.00000
C   0.00000       -0.60000        0.00000
}

set {
basis              cc-pvdz
reference          uks
maxiter            500
geom_maxiter       500
DAMPING_PERCENTAGE 1
guess              SAP
}

optimize('b3lyp')
--------------------------------------------------------------------------

    Molecular point group: c2v
  Charge       = 1
  Multiplicity = 2
  Basis Set: CC-PVDZ
    Blend: CC-PVDZ
  Basis Set: (CC-PVDZ AUX)
    Blend: CC-PVDZ-JKFIT + DEF2-UNIVERSAL-JKFIT
  @DF-UKS Final Energy:   -52.08433664839876
    Total Energy =                        -52.0843366483987609
 Dipole X            :          0.0000000            0.0000000            0.0000000
 Dipole Y            :          0.0000000            0.0000000            0.0000000
 Dipole Z            :          1.6998492           -0.6554193            1.0444299
 Magnitude           :                                                    1.0444299
    Molecular point group: c2v
  Basis Set: CC-PVDZ
    Blend: CC-PVDZ
  Basis Set: (CC-PVDZ AUX)
    Blend: CC-PVDZ-JKFIT + DEF2-UNIVERSAL-JKFIT
  Basis Set: CC-PVDZ
    Blend: CC-PVDZ
  Basis Set: (CC-PVDZ AUX)
    Blend: CC-PVDZ-JKFIT + DEF2-UNIVERSAL-JKFIT
  @DF-UKS Final Energy:   -52.15195834875526
    Total Energy =                        -52.1519583487552651
  Basis Set: CC-PVDZ
    Blend: CC-PVDZ
  Basis Set: (CC-PVDZ AUX)
    Blend: CC-PVDZ-JKFIT + DEF2-UNIVERSAL-JKFIT
  Basis Set: CC-PVDZ
    Blend: CC-PVDZ
  @DF-UKS Final Energy:   -52.16254674200301
    Total Energy =                        -52.1625467420030091
  @DF-UKS Final Energy:   -52.16485287171435
    Total Energy =                        -52.1648528717143520
  @DF-UKS Final Energy:   -52.16557734701690
    Total Energy =                        -52.1655773470168995
  @DF-UKS Final Energy:   -52.16563722970915
    Total Energy =                        -52.1656372297091409
  Basis Set: (CC-PVDZ AUX)
    Blend: CC-PVDZ-JKFIT + DEF2-UNIVERSAL-JKFIT
  Basis Set: CC-PVDZ
    Blend: CC-PVDZ
  Basis Set: (CC-PVDZ AUX)
    Blend: CC-PVDZ-JKFIT + DEF2-UNIVERSAL-JKFIT
  @DF-UKS Final Energy:   -52.16564250795953
    Total Energy =                        -52.1656425079595394
  Basis Set: CC-PVDZ
    Blend: CC-PVDZ
  Basis Set: (CC-PVDZ AUX)
    Blend: CC-PVDZ-JKFIT + DEF2-UNIVERSAL-JKFIT
  Charge       = 1
  Multiplicity = 2
  Basis Set: CC-PVDZ
    Blend: CC-PVDZ
  Basis Set: (CC-PVDZ AUX)
    Blend: CC-PVDZ-JKFIT + DEF2-UNIVERSAL-JKFIT

    Orbital Energies [Eh]
    ---------------------

    Alpha Occupied:

       1A1   -10.573350     2A1    -4.483840     3A1    -0.883002
       1B1    -0.549309     1B2    -0.508435

    Alpha Virtual:

       4A1    -0.496611     5A1    -0.388088     2B1    -0.253005
       2B2    -0.239138     6A1    -0.109723     3B1    -0.039979
       3B2    -0.036130     7A1    -0.034172     8A1     0.146733
       1A2     0.200582     9A1     0.200662    10A1     0.239906
       4B1     0.274734     4B2     0.295732     5B1     0.307465
       5B2     0.323055    11A1     0.589558    12A1     0.771271
       2A2     0.925714    13A1     0.926219     6B1     1.163383
       6B2     1.192354    14A1     1.521237

    Beta Occupied:

       1A1   -10.559219     2A1    -4.483669     3A1    -0.834346
       1B2    -0.492175

    Beta Virtual:

       4A1    -0.473378     1B1    -0.396365     5A1    -0.387530
       2B2    -0.236998     2B1    -0.208520     6A1    -0.104229
       3B2    -0.038441     7A1    -0.034820     3B1    -0.031327
       8A1     0.153924     1A2     0.208323     9A1     0.214557
      10A1     0.252073     4B2     0.300242     4B1     0.313201
       5B2     0.326740     5B1     0.348505    11A1     0.606017
      12A1     0.787429     2A2     0.977700    13A1     0.984654
       6B2     1.200639     6B1     1.219435    14A1     1.539233

    Final Occupation by Irrep:
             A1    A2    B1    B2
    DOCC [     3,    0,    0,    1 ]
    SOCC [     0,    0,    1,    0 ]
    NA   [     3,    0,    1,    1 ]
    NB   [     3,    0,    0,    1 ]

  @DF-UKS Final Energy:   -52.16564301426340

   => Energetics <=

    Nuclear Repulsion Energy =              8.4149746869219353
    One-Electron Energy =                 -83.2026225054223971
    Two-Electron Energy =                  28.9763457301778438
    DFT Exchange-Correlation Energy =      -6.3543409259407824
    Empirical Dispersion Energy =           0.0000000000000000
    VV10 Nonlocal Energy =                  0.0000000000000000
    Total Energy =                        -52.1656430142634022

  UHF NO Occupations:
  HONO-2 :    1 B2 1.9979584
  HONO-1 :    3 A1 1.9979299
  HONO-0 :    1 B1 1.0000000
  LUNO+0 :    4 A1 0.0020701
  LUNO+1 :    2 B2 0.0020416
  LUNO+2 :    5 A1 0.0000002
  LUNO+3 :    6 A1 0.0000001

Computation Completed

Properties will be evaluated at   0.000000,   0.000000,   0.000000 [a0]

Properties computed using the SCF density matrix

 Multipole Moments:

 ------------------------------------------------------------------------------------
     Multipole            Electronic (a.u.)      Nuclear  (a.u.)        Total (a.u.)
 ------------------------------------------------------------------------------------

 L = 1.  Multiply by 2.5417464519 to convert [e a0] to [Debye]
 Dipole X            :          0.0000000            0.0000000            0.0000000
 Dipole Y            :          0.0000000            0.0000000            0.0000000
 Dipole Z            :          2.4099781           -0.8243233            1.5856548
 Magnitude           :                                                    1.5856548

 ------------------------------------------------------------------------------------

*** tstop() called on Joses-MacBook-Pro-2.local at Thu Jul 17 13:14:56 2025
Module time:
	user time   =       4.48 seconds =       0.07 minutes
	system time =       3.06 seconds =       0.05 minutes
	total time  =          1 seconds =       0.02 minutes
Total time:
	user time   =      38.44 seconds =       0.64 minutes
	system time =      43.72 seconds =       0.73 minutes
	total time  =        910 seconds =      15.17 minutes

*** tstart() called on Joses-MacBook-Pro-2.local
*** at Thu Jul 17 13:14:56 2025

         ------------------------------------------------------------
                                   SCF GRAD
                          Rob Parrish, Justin Turney,
                       Andy Simmonett, and Alex Sokolov
         ------------------------------------------------------------

  ==> Geometry <==

    Molecular point group: c2v
    Full point group: C_inf_v

    Geometry (in Angstrom), charge = 1, multiplicity = 2:

       Center              X                  Y                   Z               Mass
    ------------   -----------------  -----------------  -----------------  -----------------
         BE           0.000000000000     0.000000000000     0.861925304078     9.012183065000
         C            0.000000000000     0.000000000000    -0.647319052392    12.000000000000

  Nuclear repulsion =    8.414974686921935

  ==> Basis Set <==

  Basis Set: CC-PVDZ
    Blend: CC-PVDZ
    Number of shells: 12
    Number of basis functions: 28
    Number of Cartesian functions: 30
    Spherical Harmonics?: true
    Max angular momentum: 2

  ==> DFJKGrad: Density-Fitted SCF Gradients <==

    Gradient:                    1
    J tasked:                  Yes
    K tasked:                  Yes
    wK tasked:                  No
    OpenMP threads:              1
    Integrals threads:           1
    Memory [MiB]:              375
    Schwarz Cutoff:          1E-12
    Fitting Condition:       1E-10

   => Auxiliary Basis Set <=

  Basis Set: (CC-PVDZ AUX)
    Blend: CC-PVDZ-JKFIT + DEF2-UNIVERSAL-JKFIT
    Number of shells: 41
    Number of basis functions: 121
    Number of Cartesian functions: 141
    Spherical Harmonics?: true
    Max angular momentum: 3

  ==> DFT Potential <==

   => LibXC <=

    Version 6.2.2
    S. Lehtola, C. Steigemann, M. J.T. Oliveira, and M. A.L. Marques.,  SoftwareX 7, 1â€“5 (2018) (10.1016/j.softx.2017.11.002)

   => Composite Functional: B3LYP <=

    B3LYP Hyb-GGA Exchange-Correlation Functional

    P. J. Stephens, F. J. Devlin, C. F. Chabalowski, and M. J. Frisch.,  J. Phys. Chem. 98, 11623 (1994) (10.1021/j100096a001)

    Deriv               =              1
    GGA                 =           TRUE
    Meta                =          FALSE

    Exchange Hybrid     =           TRUE
    MP2 Hybrid          =          FALSE

   => Exchange Functionals <=

    0.0800   Slater exchange
    0.7200         Becke 88

   => Exact (HF) Exchange <=

    0.2000               HF

   => Correlation Functionals <=

    0.1900   Vosko, Wilk & Nusair (VWN5_RPA)
    0.8100   Lee, Yang & Parr

   => LibXC Density Thresholds  <==

    XC_HYB_GGA_XC_B3LYP:  1.00E-15

   => Molecular Quadrature <=

    Radial Scheme          =       TREUTLER
    Pruning Scheme         =           NONE
    Nuclear Scheme         =       TREUTLER

    Blocking Scheme        =         OCTREE
    BS radius alpha        =              1
    Pruning alpha          =              1
    Radial Points          =             75
    Spherical Points       =            302
    Total Points           =          43355
    Total Blocks           =            403
    Max Points             =            255
    Max Functions          =             28
    Weights Tolerance      =       1.00E-15

  -Total Gradient:
     Atom            X                  Y                   Z
    ------   -----------------  -----------------  -----------------
       1        0.000000000000     0.000000000000    -0.000084379680
       2       -0.000000000000    -0.000000000000     0.000094450426

*** tstop() called on Joses-MacBook-Pro-2.local at Thu Jul 17 13:14:56 2025
Module time:
	user time   =       0.53 seconds =       0.01 minutes
	system time =       1.22 seconds =       0.02 minutes
	total time  =          0 seconds =       0.00 minutes
Total time:
	user time   =      38.97 seconds =       0.65 minutes
	system time =      44.94 seconds =       0.75 minutes
	total time  =        910 seconds =      15.17 minutes

    			-----------------------------------------

    			 OPTKING 3.0: for geometry optimizations

    			     By R.A. King, Bethel University

    			        with contributions from

    			    A.V. Copan, J. Cayton, A. Heide

    			-----------------------------------------

	                            ===> Fragment 1 <==

	 Z (Atomic Numbers)          Masses                          Geom
	       4.000000             9.012183          0.00000000  0.00000000  1.62880277
	       6.000000            12.000000          0.00000000  0.00000000 -1.22325572

	 - Coordinate -           - BOHR/RAD -       - ANG/DEG -
	 R(1,2)           =         2.852058           1.509244

	        --- Internal Coordinate Step in ANG or DEG, aJ/ANG or AJ/DEG ---
	-------------------------------------------------------------------------------
	           Coordinate      Previous         Force          Change          New
	           ----------      --------        ------          ------        ------
	               R(1,2)       1.50924        0.00074        0.00015       1.50940
	-------------------------------------------------------------------------------

	                                 ==> Convergence Check <==

	Measures of convergence in internal coordinates in au.

	Criteria marked as inactive (o), active & met (*), and active & unmet ( ).

	----------------------------------------------------------------------------------------------
	   Step    Total Energy     Delta E     Max Force     RMS Force      Max Disp      RMS Disp
	----------------------------------------------------------------------------------------------
	  Convergence Criteria     1.00e-06 *    3.00e-04 *             o    1.20e-03 *             o
	----------------------------------------------------------------------------------------------
	     8     -52.16564301   -5.06e-07 *    8.94e-05 *    8.94e-05 o    2.91e-04 *    2.91e-04 o  ~
	----------------------------------------------------------------------------------------------

Next Geometry in Ang
	Fragment 1 (Ang)

	   Be   0.0000000000   0.0000000000   0.8620022061
	    C   0.0000000000   0.0000000000  -0.6473959544

    Final optimized geometry and variables:
    Molecular point group: c2v
    Full point group: C_inf_v

    Geometry (in Angstrom), charge = 1, multiplicity = 2:

    BE           0.000000000000     0.000000000000     0.861925304078
    C            0.000000000000     0.000000000000    -0.647319052392

    Psi4 stopped on: Thursday, 17 July 2025 01:14PM
    Psi4 wall time for execution: 0:15:10.90

*** Psi4 exiting successfully. Buy a developer a beer!
