                               Psi4 1.9.1 release

  ==> Input File <==

--------------------------------------------------------------------------
molecule {
1 2
Ne   0.00000        0.60000        0.00000
Ne   0.00000       -0.60000        0.00000
}

set {
basis              cc-pvdz
reference          uks
maxiter            500
geom_maxiter       500
DAMPING_PERCENTAGE 1
guess              SAP
}

optimize('b3lyp')
--------------------------------------------------------------------------

    Molecular point group: d2h
  Charge       = 1
  Multiplicity = 2
  Basis Set: CC-PVDZ
    Blend: CC-PVDZ
  Basis Set: (CC-PVDZ AUX)
    Blend: CC-PVDZ-JKFIT
  @DF-UKS Final Energy:  -256.87525995637901
    Total Energy =                       -256.8752599563790113
 Dipole X            :          0.0000000            0.0000000            0.0000000
 Dipole Y            :          0.0000000            0.0000000            0.0000000
 Dipole Z            :          0.0000000            0.0000000            0.0000000
 Magnitude           :                                                    0.0000000
    Molecular point group: d2h
  Basis Set: CC-PVDZ
    Blend: CC-PVDZ
  Basis Set: (CC-PVDZ AUX)
    Blend: CC-PVDZ-JKFIT
  Basis Set: CC-PVDZ
    Blend: CC-PVDZ
  Basis Set: (CC-PVDZ AUX)
    Blend: CC-PVDZ-JKFIT
  @DF-UKS Final Energy:  -257.09715909566239
    Total Energy =                       -257.0971590956623913
  Basis Set: CC-PVDZ
    Blend: CC-PVDZ
  Basis Set: (CC-PVDZ AUX)
    Blend: CC-PVDZ-JKFIT
  Basis Set: CC-PVDZ
    Blend: CC-PVDZ
  @DF-UKS Final Energy:  -257.11891308574320
    Total Energy =                       -257.1189130857432019
  @DF-UKS Final Energy:  -257.13565733290091
    Total Energy =                       -257.1356573329009052
  @DF-UKS Final Energy:  -257.13992073953710
    Total Energy =                       -257.1399207395371036
  @DF-UKS Final Energy:  -257.14135274085424
    Total Energy =                       -257.1413527408542450
  @DF-UKS Final Energy:  -257.14203484249924
    Total Energy =                       -257.1420348424992426
  @DF-UKS Final Energy:  -257.14226002903894
    Total Energy =                       -257.1422600290389369
  @DF-UKS Final Energy:  -257.14236665052033
    Total Energy =                       -257.1423666505203300
  @DF-UKS Final Energy:  -257.14239107668010
    Total Energy =                       -257.1423910766800986
  Basis Set: (CC-PVDZ AUX)
    Blend: CC-PVDZ-JKFIT
  Basis Set: CC-PVDZ
    Blend: CC-PVDZ
  Basis Set: (CC-PVDZ AUX)
    Blend: CC-PVDZ-JKFIT
  @DF-UKS Final Energy:  -257.14239406980573
    Total Energy =                       -257.1423940698057322
  Basis Set: CC-PVDZ
    Blend: CC-PVDZ
  Basis Set: (CC-PVDZ AUX)
    Blend: CC-PVDZ-JKFIT
  Charge       = 1
  Multiplicity = 2
  Basis Set: CC-PVDZ
    Blend: CC-PVDZ
  Basis Set: (CC-PVDZ AUX)
    Blend: CC-PVDZ-JKFIT

    Orbital Energies [Eh]
    ---------------------

    Alpha Occupied:

       1B2u  -31.547351     1Ag   -31.547313     2Ag    -1.987554
       2B2u   -1.947626     3Ag    -1.159643     1B3u   -1.059478
       1B1u   -1.059478     3B2u   -1.053629     1B1g   -1.034846
       1B3g   -1.034846

    Alpha Virtual:

       4Ag     0.745911     2B3u    0.832956     2B1u    0.832956
       2B3g    1.027279     2B1g    1.027279     4B2u    1.054620
       5Ag     1.283871     5B2u    1.808067     6Ag     4.163160
       3B1u    4.172061     3B3u    4.172061     3B3g    4.174614
       3B1g    4.174614     7Ag     4.218832     1B2g    4.218841
       6B2u    4.218920     1Au     4.218928     7B2u    4.221398

    Beta Occupied:

       1B2u  -31.526436     1Ag   -31.526426     2Ag    -1.936068
       2B2u   -1.893336     1B3u   -1.039797     1B1u   -1.039797
       3Ag    -1.021313     1B1g   -1.014459     1B3g   -1.014459

    Beta Virtual:

       3B2u   -0.838466     4Ag     0.805445     2B1u    0.842619
       2B3u    0.842619     2B3g    1.037011     2B1g    1.037011
       4B2u    1.102186     5Ag     1.311732     5B2u    1.843187
       6Ag     4.229046     1B2g    4.229055     6B2u    4.229141
       1Au     4.229149     3B1u    4.229835     3B3u    4.229835
       3B3g    4.233028     3B1g    4.233028     7Ag     4.239648
       7B2u    4.295754

    Final Occupation by Irrep:
             Ag   B1g   B2g   B3g    Au   B1u   B2u   B3u
    DOCC [     3,    1,    0,    1,    0,    1,    2,    1 ]
    SOCC [     0,    0,    0,    0,    0,    0,    1,    0 ]
    NA   [     3,    1,    0,    1,    0,    1,    3,    1 ]
    NB   [     3,    1,    0,    1,    0,    1,    2,    1 ]

  @DF-UKS Final Energy:  -257.14239429036058

   => Energetics <=

    Nuclear Repulsion Energy =             28.8213861236012292
    One-Electron Energy =                -412.3373023351305733
    Two-Electron Energy =                 146.1263415852376113
    DFT Exchange-Correlation Energy =     -19.7528196640689089
    Empirical Dispersion Energy =           0.0000000000000000
    VV10 Nonlocal Energy =                  0.0000000000000000
    Total Energy =                       -257.1423942903605848

  UHF NO Occupations:
  HONO-2 :    2B2u 1.9999339
  HONO-1 :    3 Ag 1.9991093
  HONO-0 :    3B2u 1.0000000
  LUNO+0 :    4 Ag 0.0008907
  LUNO+1 :    4B2u 0.0000661
  LUNO+2 :    5 Ag 0.0000620
  LUNO+3 :    2B1u 0.0000169

Computation Completed

Properties will be evaluated at   0.000000,   0.000000,   0.000000 [a0]

Properties computed using the SCF density matrix

 Multipole Moments:

 ------------------------------------------------------------------------------------
     Multipole            Electronic (a.u.)      Nuclear  (a.u.)        Total (a.u.)
 ------------------------------------------------------------------------------------

 L = 1.  Multiply by 2.5417464519 to convert [e a0] to [Debye]
 Dipole X            :          0.0000000            0.0000000            0.0000000
 Dipole Y            :          0.0000000            0.0000000            0.0000000
 Dipole Z            :          0.0000000            0.0000000            0.0000000
 Magnitude           :                                                    0.0000000

 ------------------------------------------------------------------------------------

*** tstop() called on Joses-MacBook-Pro-2.local at Thu Jul 17 14:37:02 2025
Module time:
	user time   =       1.76 seconds =       0.03 minutes
	system time =       3.34 seconds =       0.06 minutes
	total time  =          1 seconds =       0.02 minutes
Total time:
	user time   =      41.25 seconds =       0.69 minutes
	system time =      59.05 seconds =       0.98 minutes
	total time  =         11 seconds =       0.18 minutes

*** tstart() called on Joses-MacBook-Pro-2.local
*** at Thu Jul 17 14:37:02 2025

         ------------------------------------------------------------
                                   SCF GRAD
                          Rob Parrish, Justin Turney,
                       Andy Simmonett, and Alex Sokolov
         ------------------------------------------------------------

  ==> Geometry <==

    Molecular point group: d2h
    Full point group: D_inf_h

    Geometry (in Angstrom), charge = 1, multiplicity = 2:

       Center              X                  Y                   Z               Mass
    ------------   -----------------  -----------------  -----------------  -----------------
         NE          -0.000000000000     0.918028731166     0.000000000000    19.992440176200
         NE           0.000000000000    -0.918028731166     0.000000000000    19.992440176200

  Nuclear repulsion =   28.821386123601229

  ==> Basis Set <==

  Basis Set: CC-PVDZ
    Blend: CC-PVDZ
    Number of shells: 12
    Number of basis functions: 28
    Number of Cartesian functions: 30
    Spherical Harmonics?: true
    Max angular momentum: 2

  ==> DFJKGrad: Density-Fitted SCF Gradients <==

    Gradient:                    1
    J tasked:                  Yes
    K tasked:                  Yes
    wK tasked:                  No
    OpenMP threads:              1
    Integrals threads:           1
    Memory [MiB]:              375
    Schwarz Cutoff:          1E-12
    Fitting Condition:       1E-10

   => Auxiliary Basis Set <=

  Basis Set: (CC-PVDZ AUX)
    Blend: CC-PVDZ-JKFIT
    Number of shells: 48
    Number of basis functions: 140
    Number of Cartesian functions: 162
    Spherical Harmonics?: true
    Max angular momentum: 3

  ==> DFT Potential <==

   => LibXC <=

    Version 6.2.2
    S. Lehtola, C. Steigemann, M. J.T. Oliveira, and M. A.L. Marques.,  SoftwareX 7, 1â€“5 (2018) (10.1016/j.softx.2017.11.002)

   => Composite Functional: B3LYP <=

    B3LYP Hyb-GGA Exchange-Correlation Functional

    P. J. Stephens, F. J. Devlin, C. F. Chabalowski, and M. J. Frisch.,  J. Phys. Chem. 98, 11623 (1994) (10.1021/j100096a001)

    Deriv               =              1
    GGA                 =           TRUE
    Meta                =          FALSE

    Exchange Hybrid     =           TRUE
    MP2 Hybrid          =          FALSE

   => Exchange Functionals <=

    0.0800   Slater exchange
    0.7200         Becke 88

   => Exact (HF) Exchange <=

    0.2000               HF

   => Correlation Functionals <=

    0.1900   Vosko, Wilk & Nusair (VWN5_RPA)
    0.8100   Lee, Yang & Parr

   => LibXC Density Thresholds  <==

    XC_HYB_GGA_XC_B3LYP:  1.00E-15

   => Molecular Quadrature <=

    Radial Scheme          =       TREUTLER
    Pruning Scheme         =           NONE
    Nuclear Scheme         =       TREUTLER

    Blocking Scheme        =         OCTREE
    BS radius alpha        =              1
    Pruning alpha          =              1
    Radial Points          =             75
    Spherical Points       =            302
    Total Points           =          41986
    Total Blocks           =            382
    Max Points             =            256
    Max Functions          =             28
    Weights Tolerance      =       1.00E-15

  -Total Gradient:
     Atom            X                  Y                   Z
    ------   -----------------  -----------------  -----------------
       1        0.000000000000    -0.000026524328    -0.000000000000
       2       -0.000000000000     0.000026524328    -0.000000000000

*** tstop() called on Joses-MacBook-Pro-2.local at Thu Jul 17 14:37:02 2025
Module time:
	user time   =       0.40 seconds =       0.01 minutes
	system time =       1.35 seconds =       0.02 minutes
	total time  =          0 seconds =       0.00 minutes
Total time:
	user time   =      41.65 seconds =       0.69 minutes
	system time =      60.41 seconds =       1.01 minutes
	total time  =         11 seconds =       0.18 minutes

    			-----------------------------------------

    			 OPTKING 3.0: for geometry optimizations

    			     By R.A. King, Bethel University

    			        with contributions from

    			    A.V. Copan, J. Cayton, A. Heide

    			-----------------------------------------

	                            ===> Fragment 1 <==

	 Z (Atomic Numbers)          Masses                          Geom
	      10.000000            19.992440         -0.00000000  1.73482288  0.00000000
	      10.000000            19.992440          0.00000000 -1.73482288  0.00000000

	 - Coordinate -           - BOHR/RAD -       - ANG/DEG -
	 R(1,2)           =         3.469646           1.836057

	        --- Internal Coordinate Step in ANG or DEG, aJ/ANG or AJ/DEG ---
	-------------------------------------------------------------------------------
	           Coordinate      Previous         Force          Change          New
	           ----------      --------        ------          ------        ------
	               R(1,2)       1.83606        0.00022        0.00017       1.83623
	-------------------------------------------------------------------------------

	                                 ==> Convergence Check <==

	Measures of convergence in internal coordinates in au.

	Criteria marked as inactive (o), active & met (*), and active & unmet ( ).

	----------------------------------------------------------------------------------------------
	   Step    Total Energy     Delta E     Max Force     RMS Force      Max Disp      RMS Disp
	----------------------------------------------------------------------------------------------
	  Convergence Criteria     1.00e-06 *    3.00e-04 *             o    1.20e-03 *             o
	----------------------------------------------------------------------------------------------
	    12    -257.14239429   -2.21e-07 *    2.65e-05 *    2.65e-05 o    3.25e-04 *    3.25e-04 o  ~
	----------------------------------------------------------------------------------------------

Next Geometry in Ang
	Fragment 1 (Ang)

	   Ne  -0.0000000000   0.9181146816   0.0000000000
	   Ne   0.0000000000  -0.9181146816   0.0000000000

    Final optimized geometry and variables:
    Molecular point group: d2h
    Full point group: D_inf_h

    Geometry (in Angstrom), charge = 1, multiplicity = 2:

    NE          -0.000000000000     0.918028731166     0.000000000000
    NE           0.000000000000    -0.918028731166     0.000000000000

    Psi4 stopped on: Thursday, 17 July 2025 02:37PM
    Psi4 wall time for execution: 0:00:11.34

*** Psi4 exiting successfully. Buy a developer a beer!
