                               Psi4 1.9.1 release

  ==> Input File <==

--------------------------------------------------------------------------
molecule {
1 2
O   0.00000        0.60000        0.00000
Ar   0.00000       -0.60000        0.00000
}

set {
basis              cc-pvdz
reference          uks
maxiter            500
geom_maxiter       500
DAMPING_PERCENTAGE 1
guess              SAP
}

optimize('b3lyp')
--------------------------------------------------------------------------

    Molecular point group: c2v
  Charge       = 1
  Multiplicity = 2
  Basis Set: CC-PVDZ
    Blend: CC-PVDZ
  Basis Set: (CC-PVDZ AUX)
    Blend: CC-PVDZ-JKFIT
  @DF-UKS Final Energy:  -601.85951429491104
    Total Energy =                       -601.8595142949110368
 Dipole X            :          0.0000000            0.0000000            0.0000000
 Dipole Y            :          0.0000000            0.0000000            0.0000000
 Dipole Z            :         -1.9670867            1.2883152           -0.6787715
 Magnitude           :                                                    0.6787715
    Molecular point group: c2v
  Basis Set: CC-PVDZ
    Blend: CC-PVDZ
  Basis Set: (CC-PVDZ AUX)
    Blend: CC-PVDZ-JKFIT
  Basis Set: CC-PVDZ
    Blend: CC-PVDZ
  Basis Set: (CC-PVDZ AUX)
    Blend: CC-PVDZ-JKFIT
  @DF-UKS Final Energy:  -601.99651722470946
    Total Energy =                       -601.9965172247094642
  Basis Set: CC-PVDZ
    Blend: CC-PVDZ
  Basis Set: (CC-PVDZ AUX)
    Blend: CC-PVDZ-JKFIT
  Basis Set: CC-PVDZ
    Blend: CC-PVDZ
  @DF-UKS Final Energy:  -602.07132273066713
    Total Energy =                       -602.0713227306670206
  @DF-UKS Final Energy:  -602.09887622893109
    Total Energy =                       -602.0988762289309761
  @DF-UKS Final Energy:  -602.11468519630216
    Total Energy =                       -602.1146851963022755
  @DF-UKS Final Energy:  -602.12198557989962
    Total Energy =                       -602.1219855798997287
  @DF-UKS Final Energy:  -602.12388589463296
    Total Energy =                       -602.1238858946329628
  @DF-UKS Final Energy:  -602.12454216081255
    Total Energy =                       -602.1245421608126662
  @DF-UKS Final Energy:  -602.12467758054868
    Total Energy =                       -602.1246775805486777
  @DF-UKS Final Energy:  -602.12471131848224
    Total Energy =                       -602.1247113184822410
  Basis Set: (CC-PVDZ AUX)
    Blend: CC-PVDZ-JKFIT
  Basis Set: CC-PVDZ
    Blend: CC-PVDZ
  Basis Set: (CC-PVDZ AUX)
    Blend: CC-PVDZ-JKFIT
  @DF-UKS Final Energy:  -602.12471558216987
    Total Energy =                       -602.1247155821699835
  Basis Set: CC-PVDZ
    Blend: CC-PVDZ
  Basis Set: (CC-PVDZ AUX)
    Blend: CC-PVDZ-JKFIT
  Charge       = 1
  Multiplicity = 2
  Basis Set: CC-PVDZ
    Blend: CC-PVDZ
  Basis Set: (CC-PVDZ AUX)
    Blend: CC-PVDZ-JKFIT

    Orbital Energies [Eh]
    ---------------------

    Alpha Occupied:

       1A1  -115.556199     2A1   -19.681239     3A1   -11.589033
       4A1    -9.147192     1B1    -9.136044     1B2    -9.133572
       5A1    -1.480038     6A1    -1.298760     7A1    -0.892574
       2B1    -0.863577     2B2    -0.837571     3B1    -0.767618
       3B2    -0.710003

    Alpha Virtual:

       8A1    -0.526709     9A1     0.198473     4B1     0.251651
       4B2     0.259056     5B1     0.339617     5B2     0.356542
      10A1     0.364912     1A2     0.432505    11A1     0.432536
      12A1     0.567032     6B1     0.627618    13A1     0.645671
       6B2     0.661044    14A1     1.208669     7B1     2.123437
      15A1     2.129993     2A2     2.131963     7B2     2.179842
      16A1     2.446958

    Beta Occupied:

       1A1  -115.556129     2A1   -19.653992     3A1   -11.588976
       4A1    -9.148713     1B1    -9.134291     1B2    -9.133544
       5A1    -1.452909     6A1    -1.248699     7A1    -0.876233
       2B2    -0.833951     2B1    -0.826264     3B2    -0.685858

    Beta Virtual:

       3B1    -0.539325     8A1    -0.501484     9A1     0.197974
       4B1     0.258038     4B2     0.259522     5B2     0.357606
      10A1     0.363439     5B1     0.366379     1A2     0.436092
      11A1     0.436131    12A1     0.584294    13A1     0.662599
       6B2     0.670863     6B1     0.692757    14A1     1.238170
       7B2     2.196299     2A2     2.210503     7B1     2.213707
      15A1     2.220372    16A1     2.485131

    Final Occupation by Irrep:
             A1    A2    B1    B2
    DOCC [     7,    0,    2,    3 ]
    SOCC [     0,    0,    1,    0 ]
    NA   [     7,    0,    3,    3 ]
    NB   [     7,    0,    2,    3 ]

  @DF-UKS Final Energy:  -602.12471574223684

   => Energetics <=

    Nuclear Repulsion Energy =             43.6966637500273833
    One-Electron Energy =                -908.0334429831266334
    Two-Electron Energy =                 293.6426232581451359
    DFT Exchange-Correlation Energy =     -31.4305597672827517
    Empirical Dispersion Energy =           0.0000000000000000
    VV10 Nonlocal Energy =                  0.0000000000000000
    Total Energy =                       -602.1247157422368446

  UHF NO Occupations:
  HONO-2 :    6 A1 1.9996035
  HONO-1 :    7 A1 1.9979260
  HONO-0 :    3 B1 1.0000000
  LUNO+0 :    8 A1 0.0020740
  LUNO+1 :    9 A1 0.0003965
  LUNO+2 :    4 B1 0.0001366
  LUNO+3 :    4 B2 0.0000726

Computation Completed

Properties will be evaluated at   0.000000,   0.000000,   0.000000 [a0]

Properties computed using the SCF density matrix

 Multipole Moments:

 ------------------------------------------------------------------------------------
     Multipole            Electronic (a.u.)      Nuclear  (a.u.)        Total (a.u.)
 ------------------------------------------------------------------------------------

 L = 1.  Multiply by 2.5417464519 to convert [e a0] to [Debye]
 Dipole X            :          0.0000000            0.0000000            0.0000000
 Dipole Y            :          0.0000000            0.0000000            0.0000000
 Dipole Z            :         -2.0184276            1.8722172           -0.1462104
 Magnitude           :                                                    0.1462104

 ------------------------------------------------------------------------------------

*** tstop() called on Joses-MacBook-Pro-2.local at Thu Jul 17 14:24:09 2025
Module time:
	user time   =       3.89 seconds =       0.06 minutes
	system time =       3.15 seconds =       0.05 minutes
	total time  =          1 seconds =       0.02 minutes
Total time:
	user time   =      67.00 seconds =       1.12 minutes
	system time =      62.49 seconds =       1.04 minutes
	total time  =         12 seconds =       0.20 minutes

*** tstart() called on Joses-MacBook-Pro-2.local
*** at Thu Jul 17 14:24:09 2025

         ------------------------------------------------------------
                                   SCF GRAD
                          Rob Parrish, Justin Turney,
                       Andy Simmonett, and Alex Sokolov
         ------------------------------------------------------------

  ==> Geometry <==

    Molecular point group: c2v
    Full point group: C_inf_v

    Geometry (in Angstrom), charge = 1, multiplicity = 2:

       Center              X                  Y                   Z               Mass
    ------------   -----------------  -----------------  -----------------  -----------------
         O            0.000000000000     0.000000000000     1.245403238165    15.994914619570
         AR           0.000000000000     0.000000000000    -0.498471735275    39.962383123700

  Nuclear repulsion =   43.696663750027383

  ==> Basis Set <==

  Basis Set: CC-PVDZ
    Blend: CC-PVDZ
    Number of shells: 14
    Number of basis functions: 32
    Number of Cartesian functions: 34
    Spherical Harmonics?: true
    Max angular momentum: 2

  ==> DFJKGrad: Density-Fitted SCF Gradients <==

    Gradient:                    1
    J tasked:                  Yes
    K tasked:                  Yes
    wK tasked:                  No
    OpenMP threads:              1
    Integrals threads:           1
    Memory [MiB]:              375
    Schwarz Cutoff:          1E-12
    Fitting Condition:       1E-10

   => Auxiliary Basis Set <=

  Basis Set: (CC-PVDZ AUX)
    Blend: CC-PVDZ-JKFIT
    Number of shells: 60
    Number of basis functions: 182
    Number of Cartesian functions: 211
    Spherical Harmonics?: true
    Max angular momentum: 3

  ==> DFT Potential <==

   => LibXC <=

    Version 6.2.2
    S. Lehtola, C. Steigemann, M. J.T. Oliveira, and M. A.L. Marques.,  SoftwareX 7, 1â€“5 (2018) (10.1016/j.softx.2017.11.002)

   => Composite Functional: B3LYP <=

    B3LYP Hyb-GGA Exchange-Correlation Functional

    P. J. Stephens, F. J. Devlin, C. F. Chabalowski, and M. J. Frisch.,  J. Phys. Chem. 98, 11623 (1994) (10.1021/j100096a001)

    Deriv               =              1
    GGA                 =           TRUE
    Meta                =          FALSE

    Exchange Hybrid     =           TRUE
    MP2 Hybrid          =          FALSE

   => Exchange Functionals <=

    0.0800   Slater exchange
    0.7200         Becke 88

   => Exact (HF) Exchange <=

    0.2000               HF

   => Correlation Functionals <=

    0.1900   Vosko, Wilk & Nusair (VWN5_RPA)
    0.8100   Lee, Yang & Parr

   => LibXC Density Thresholds  <==

    XC_HYB_GGA_XC_B3LYP:  1.00E-15

   => Molecular Quadrature <=

    Radial Scheme          =       TREUTLER
    Pruning Scheme         =           NONE
    Nuclear Scheme         =       TREUTLER

    Blocking Scheme        =         OCTREE
    BS radius alpha        =              1
    Pruning alpha          =              1
    Radial Points          =             75
    Spherical Points       =            302
    Total Points           =          41022
    Total Blocks           =            364
    Max Points             =            254
    Max Functions          =             32
    Weights Tolerance      =       1.00E-15

  -Total Gradient:
     Atom            X                  Y                   Z
    ------   -----------------  -----------------  -----------------
       1        0.000000000000     0.000000000000    -0.000039920279
       2        0.000000000000     0.000000000000     0.000023995414

*** tstop() called on Joses-MacBook-Pro-2.local at Thu Jul 17 14:24:09 2025
Module time:
	user time   =       1.02 seconds =       0.02 minutes
	system time =       1.48 seconds =       0.02 minutes
	total time  =          0 seconds =       0.00 minutes
Total time:
	user time   =      68.02 seconds =       1.13 minutes
	system time =      63.97 seconds =       1.07 minutes
	total time  =         12 seconds =       0.20 minutes

    			-----------------------------------------

    			 OPTKING 3.0: for geometry optimizations

    			     By R.A. King, Bethel University

    			        with contributions from

    			    A.V. Copan, J. Cayton, A. Heide

    			-----------------------------------------

	                            ===> Fragment 1 <==

	 Z (Atomic Numbers)          Masses                          Geom
	       8.000000            15.994915          0.00000000  0.00000000  2.35347104
	      18.000000            39.962383          0.00000000  0.00000000 -0.94197506

	 - Coordinate -           - BOHR/RAD -       - ANG/DEG -
	 R(1,2)           =         3.295446           1.743875

	        --- Internal Coordinate Step in ANG or DEG, aJ/ANG or AJ/DEG ---
	-------------------------------------------------------------------------------
	           Coordinate      Previous         Force          Change          New
	           ----------      --------        ------          ------        ------
	               R(1,2)       1.74387        0.00026        0.00010       1.74397
	-------------------------------------------------------------------------------

	                                 ==> Convergence Check <==

	Measures of convergence in internal coordinates in au.

	Criteria marked as inactive (o), active & met (*), and active & unmet ( ).

	----------------------------------------------------------------------------------------------
	   Step    Total Energy     Delta E     Max Force     RMS Force      Max Disp      RMS Disp
	----------------------------------------------------------------------------------------------
	  Convergence Criteria     1.00e-06 *    3.00e-04 *             o    1.20e-03 *             o
	----------------------------------------------------------------------------------------------
	    12    -602.12471574   -1.60e-07 *    3.20e-05 *    3.20e-05 o    1.89e-04 *    1.89e-04 o  ~
	----------------------------------------------------------------------------------------------

Next Geometry in Ang
	Fragment 1 (Ang)

	    O   0.0000000000   0.0000000000   1.2454531403
	   Ar   0.0000000000   0.0000000000  -0.4985216374

    Final optimized geometry and variables:
    Molecular point group: c2v
    Full point group: C_inf_v

    Geometry (in Angstrom), charge = 1, multiplicity = 2:

    O            0.000000000000     0.000000000000     1.245403238165
    AR           0.000000000000     0.000000000000    -0.498471735275

    Psi4 stopped on: Thursday, 17 July 2025 02:24PM
    Psi4 wall time for execution: 0:00:13.45

*** Psi4 exiting successfully. Buy a developer a beer!
