                               Psi4 1.9.1 release

  ==> Input File <==

--------------------------------------------------------------------------
molecule {
1 2
Be   0.00000        0.60000        0.00000
Ar   0.00000       -0.60000        0.00000
}

set {
basis              cc-pvdz
reference          uks
maxiter            500
geom_maxiter       500
DAMPING_PERCENTAGE 1
guess              SAP
}

optimize('b3lyp')
--------------------------------------------------------------------------

    Molecular point group: c2v
  Charge       = 1
  Multiplicity = 2
  Basis Set: CC-PVDZ
    Blend: CC-PVDZ
  Basis Set: (CC-PVDZ AUX)
    Blend: CC-PVDZ-JKFIT + DEF2-UNIVERSAL-JKFIT
  @DF-UKS Final Energy:  -541.47390337288766
    Total Energy =                       -541.4739033728876620
 Dipole X            :          0.0000000            0.0000000            0.0000000
 Dipole Y            :          0.0000000            0.0000000            0.0000000
 Dipole Z            :         -0.1373933           -0.1097272           -0.2471205
 Magnitude           :                                                    0.2471205
    Molecular point group: c2v
  Basis Set: CC-PVDZ
    Blend: CC-PVDZ
  Basis Set: (CC-PVDZ AUX)
    Blend: CC-PVDZ-JKFIT + DEF2-UNIVERSAL-JKFIT
  Basis Set: CC-PVDZ
    Blend: CC-PVDZ
  Basis Set: (CC-PVDZ AUX)
    Blend: CC-PVDZ-JKFIT + DEF2-UNIVERSAL-JKFIT
  @DF-UKS Final Energy:  -541.67024501341371
    Total Energy =                       -541.6702450134137052
  Basis Set: CC-PVDZ
    Blend: CC-PVDZ
  Basis Set: (CC-PVDZ AUX)
    Blend: CC-PVDZ-JKFIT + DEF2-UNIVERSAL-JKFIT
  Basis Set: CC-PVDZ
    Blend: CC-PVDZ
  @DF-UKS Final Energy:  -541.78734840210211
    Total Energy =                       -541.7873484021021113
  @DF-UKS Final Energy:  -541.84728881657702
    Total Energy =                       -541.8472888165770200
  @DF-UKS Final Energy:  -541.87607124342856
    Total Energy =                       -541.8760712434285551
  @DF-UKS Final Energy:  -541.88939249530722
    Total Energy =                       -541.8893924953072201
  @DF-UKS Final Energy:  -541.89383789793874
    Total Energy =                       -541.8938378979387380
  @DF-UKS Final Energy:  -541.89623227367440
    Total Energy =                       -541.8962322736745136
  @DF-UKS Final Energy:  -541.89722244081963
    Total Energy =                       -541.8972224408196325
  @DF-UKS Final Energy:  -541.89745228370077
    Total Energy =                       -541.8974522837007726
  @DF-UKS Final Energy:  -541.89751332179799
    Total Energy =                       -541.8975133217979874
  @DF-UKS Final Energy:  -541.89753349685395
    Total Energy =                       -541.8975334968540665
  Basis Set: (CC-PVDZ AUX)
    Blend: CC-PVDZ-JKFIT + DEF2-UNIVERSAL-JKFIT
  Basis Set: CC-PVDZ
    Blend: CC-PVDZ
  Basis Set: (CC-PVDZ AUX)
    Blend: CC-PVDZ-JKFIT + DEF2-UNIVERSAL-JKFIT
  @DF-UKS Final Energy:  -541.89753767049285
    Total Energy =                       -541.8975376704928522
  Basis Set: CC-PVDZ
    Blend: CC-PVDZ
  Basis Set: (CC-PVDZ AUX)
    Blend: CC-PVDZ-JKFIT + DEF2-UNIVERSAL-JKFIT
  Charge       = 1
  Multiplicity = 2
  Basis Set: CC-PVDZ
    Blend: CC-PVDZ
  Basis Set: (CC-PVDZ AUX)
    Blend: CC-PVDZ-JKFIT + DEF2-UNIVERSAL-JKFIT

    Orbital Energies [Eh]
    ---------------------

    Alpha Occupied:

       1A1  -115.404738     2A1   -11.441712     3A1    -8.994328
       1B2    -8.989993     1B1    -8.989993     4A1    -4.449155
       5A1    -1.271198     6A1    -0.761487     2B2    -0.712755
       2B1    -0.712755     7A1    -0.489365

    Alpha Virtual:

       3B1    -0.313237     3B2    -0.313237     8A1    -0.245564
       9A1    -0.069645     4B1    -0.028748     4B2    -0.028748
      10A1    -0.017969     5B1     0.162210     5B2     0.162210
       1A2     0.198186    11A1     0.198186    12A1     0.207834
       6B1     0.378333     6B2     0.378333    13A1     0.450381
      14A1     0.550611     2A2     0.550616    15A1     0.607019
       7B1     0.651431     7B2     0.651431    16A1     0.976060

    Beta Occupied:

       1A1  -115.404111     2A1   -11.441073     3A1    -8.992621
       1B2    -8.989605     1B1    -8.989605     4A1    -4.434814
       5A1    -1.268077     6A1    -0.754893     2B1    -0.711641
       2B2    -0.711641

    Beta Virtual:

       7A1    -0.361387     3B1    -0.263812     3B2    -0.263812
       8A1    -0.202712     9A1    -0.067217     4B1    -0.014432
       4B2    -0.014432    10A1     0.018571     5B2     0.208617
       5B1     0.208617    11A1     0.236559    12A1     0.250728
       1A2     0.250748     6B1     0.381545     6B2     0.381545
      13A1     0.474971    14A1     0.552269     2A2     0.552275
      15A1     0.610817     7B1     0.664789     7B2     0.664789
      16A1     0.984398

    Final Occupation by Irrep:
             A1    A2    B1    B2
    DOCC [     6,    0,    2,    2 ]
    SOCC [     1,    0,    0,    0 ]
    NA   [     7,    0,    2,    2 ]
    NB   [     6,    0,    2,    2 ]

  @DF-UKS Final Energy:  -541.89753806113038

   => Energetics <=

    Nuclear Repulsion Energy =             17.5841412510156943
    One-Electron Energy =                -775.8849839804996691
    Two-Electron Energy =                 243.3528701820422953
    DFT Exchange-Correlation Energy =     -26.9495655136887891
    Empirical Dispersion Energy =           0.0000000000000000
    VV10 Nonlocal Energy =                  0.0000000000000000
    Total Energy =                       -541.8975380611303763

  UHF NO Occupations:
  HONO-2 :    2 B1 1.9999692
  HONO-1 :    6 A1 1.9999647
  HONO-0 :    7 A1 1.0000000
  LUNO+0 :    8 A1 0.0000353
  LUNO+1 :    3 B1 0.0000308
  LUNO+2 :    3 B2 0.0000308
  LUNO+3 :    9 A1 0.0000018

Computation Completed

Properties will be evaluated at   0.000000,   0.000000,   0.000000 [a0]

Properties computed using the SCF density matrix

 Multipole Moments:

 ------------------------------------------------------------------------------------
     Multipole            Electronic (a.u.)      Nuclear  (a.u.)        Total (a.u.)
 ------------------------------------------------------------------------------------

 L = 1.  Multiply by 2.5417464519 to convert [e a0] to [Debye]
 Dipole X            :          0.0000000            0.0000000            0.0000000
 Dipole Y            :          0.0000000            0.0000000            0.0000000
 Dipole Z            :          2.0130262           -0.1981279            1.8148983
 Magnitude           :                                                    1.8148983

 ------------------------------------------------------------------------------------

*** tstop() called on Joses-MacBook-Pro-2.local at Thu Jul 17 13:28:53 2025
Module time:
	user time   =       2.28 seconds =       0.04 minutes
	system time =       4.32 seconds =       0.07 minutes
	total time  =          1 seconds =       0.02 minutes
Total time:
	user time   =      43.59 seconds =       0.73 minutes
	system time =      93.53 seconds =       1.56 minutes
	total time  =         14 seconds =       0.23 minutes

*** tstart() called on Joses-MacBook-Pro-2.local
*** at Thu Jul 17 13:28:53 2025

         ------------------------------------------------------------
                                   SCF GRAD
                          Rob Parrish, Justin Turney,
                       Andy Simmonett, and Alex Sokolov
         ------------------------------------------------------------

  ==> Geometry <==

    Molecular point group: c2v
    Full point group: C_inf_v

    Geometry (in Angstrom), charge = 1, multiplicity = 2:

       Center              X                  Y                   Z               Mass
    ------------   -----------------  -----------------  -----------------  -----------------
         BE           0.000000000000     0.000000000000     1.768044724935     9.012183065000
         AR           0.000000000000     0.000000000000    -0.398723536554    39.962383123700

  Nuclear repulsion =   17.584141251015694

  ==> Basis Set <==

  Basis Set: CC-PVDZ
    Blend: CC-PVDZ
    Number of shells: 14
    Number of basis functions: 32
    Number of Cartesian functions: 34
    Spherical Harmonics?: true
    Max angular momentum: 2

  ==> DFJKGrad: Density-Fitted SCF Gradients <==

    Gradient:                    1
    J tasked:                  Yes
    K tasked:                  Yes
    wK tasked:                  No
    OpenMP threads:              1
    Integrals threads:           1
    Memory [MiB]:              375
    Schwarz Cutoff:          1E-12
    Fitting Condition:       1E-10

   => Auxiliary Basis Set <=

  Basis Set: (CC-PVDZ AUX)
    Blend: CC-PVDZ-JKFIT + DEF2-UNIVERSAL-JKFIT
    Number of shells: 53
    Number of basis functions: 163
    Number of Cartesian functions: 190
    Spherical Harmonics?: true
    Max angular momentum: 3

  ==> DFT Potential <==

   => LibXC <=

    Version 6.2.2
    S. Lehtola, C. Steigemann, M. J.T. Oliveira, and M. A.L. Marques.,  SoftwareX 7, 1â€“5 (2018) (10.1016/j.softx.2017.11.002)

   => Composite Functional: B3LYP <=

    B3LYP Hyb-GGA Exchange-Correlation Functional

    P. J. Stephens, F. J. Devlin, C. F. Chabalowski, and M. J. Frisch.,  J. Phys. Chem. 98, 11623 (1994) (10.1021/j100096a001)

    Deriv               =              1
    GGA                 =           TRUE
    Meta                =          FALSE

    Exchange Hybrid     =           TRUE
    MP2 Hybrid          =          FALSE

   => Exchange Functionals <=

    0.0800   Slater exchange
    0.7200         Becke 88

   => Exact (HF) Exchange <=

    0.2000               HF

   => Correlation Functionals <=

    0.1900   Vosko, Wilk & Nusair (VWN5_RPA)
    0.8100   Lee, Yang & Parr

   => LibXC Density Thresholds  <==

    XC_HYB_GGA_XC_B3LYP:  1.00E-15

   => Molecular Quadrature <=

    Radial Scheme          =       TREUTLER
    Pruning Scheme         =           NONE
    Nuclear Scheme         =       TREUTLER

    Blocking Scheme        =         OCTREE
    BS radius alpha        =              1
    Pruning alpha          =              1
    Radial Points          =             75
    Spherical Points       =            302
    Total Points           =          42774
    Total Blocks           =            395
    Max Points             =            254
    Max Functions          =             32
    Weights Tolerance      =       1.00E-15

  -Total Gradient:
     Atom            X                  Y                   Z
    ------   -----------------  -----------------  -----------------
       1        0.000000000000     0.000000000000    -0.000018201114
       2        0.000000000000     0.000000000000     0.000037074793

*** tstop() called on Joses-MacBook-Pro-2.local at Thu Jul 17 13:28:53 2025
Module time:
	user time   =       0.56 seconds =       0.01 minutes
	system time =       2.04 seconds =       0.03 minutes
	total time  =          0 seconds =       0.00 minutes
Total time:
	user time   =      44.15 seconds =       0.74 minutes
	system time =      95.57 seconds =       1.59 minutes
	total time  =         14 seconds =       0.23 minutes

    			-----------------------------------------

    			 OPTKING 3.0: for geometry optimizations

    			     By R.A. King, Bethel University

    			        with contributions from

    			    A.V. Copan, J. Cayton, A. Heide

    			-----------------------------------------

	                            ===> Fragment 1 <==

	 Z (Atomic Numbers)          Masses                          Geom
	       4.000000             9.012183          0.00000000  0.00000000  3.34112031
	      18.000000            39.962383          0.00000000  0.00000000 -0.75347828

	 - Coordinate -           - BOHR/RAD -       - ANG/DEG -
	 R(1,2)           =         4.094599           2.166768

	        --- Internal Coordinate Step in ANG or DEG, aJ/ANG or AJ/DEG ---
	-------------------------------------------------------------------------------
	           Coordinate      Previous         Force          Change          New
	           ----------      --------        ------          ------        ------
	               R(1,2)       2.16677        0.00023        0.00045       2.16721
	-------------------------------------------------------------------------------

	                                 ==> Convergence Check <==

	Measures of convergence in internal coordinates in au.

	Criteria marked as inactive (o), active & met (*), and active & unmet ( ).

	----------------------------------------------------------------------------------------------
	   Step    Total Energy     Delta E     Max Force     RMS Force      Max Disp      RMS Disp
	----------------------------------------------------------------------------------------------
	  Convergence Criteria     1.00e-06 *    3.00e-04 *             o    1.20e-03 *             o
	----------------------------------------------------------------------------------------------
	    14    -541.89753806   -3.91e-07 *    2.76e-05 *    2.76e-05 o    8.43e-04 *    8.43e-04 o  ~
	----------------------------------------------------------------------------------------------

Next Geometry in Ang
	Fragment 1 (Ang)

	   Be   0.0000000000   0.0000000000   1.7682678836
	   Ar   0.0000000000   0.0000000000  -0.3989466953

    Final optimized geometry and variables:
    Molecular point group: c2v
    Full point group: C_inf_v

    Geometry (in Angstrom), charge = 1, multiplicity = 2:

    BE           0.000000000000     0.000000000000     1.768044724935
    AR           0.000000000000     0.000000000000    -0.398723536554

    Psi4 stopped on: Thursday, 17 July 2025 01:28PM
    Psi4 wall time for execution: 0:00:14.31

*** Psi4 exiting successfully. Buy a developer a beer!
