                               Psi4 1.9.1 release

  ==> Input File <==

--------------------------------------------------------------------------
molecule {
1 2
S   0.00000        0.60000        0.00000
Ar   0.00000       -0.60000        0.00000
}

set {
basis              cc-pvdz
reference          uks
maxiter            500
geom_maxiter       500
DAMPING_PERCENTAGE 1
guess              SAP
}

optimize('b3lyp')
--------------------------------------------------------------------------

    Molecular point group: c2v
  Charge       = 1
  Multiplicity = 2
  Basis Set: CC-PVDZ
    Blend: CC-PVDZ
  Basis Set: (CC-PVDZ AUX)
    Blend: CC-PVDZ-JKFIT
  @DF-UKS Final Energy:  -923.96988823489130
    Total Energy =                       -923.9698882348913003
 Dipole X            :          0.0000000            0.0000000            0.0000000
 Dipole Y            :          0.0000000            0.0000000            0.0000000
 Dipole Z            :         -2.9173240            2.0144189           -0.9029051
 Magnitude           :                                                    0.9029051
    Molecular point group: c2v
  Basis Set: CC-PVDZ
    Blend: CC-PVDZ
  Basis Set: (CC-PVDZ AUX)
    Blend: CC-PVDZ-JKFIT
  Basis Set: CC-PVDZ
    Blend: CC-PVDZ
  Basis Set: (CC-PVDZ AUX)
    Blend: CC-PVDZ-JKFIT
  @DF-UKS Final Energy:  -924.01617617358443
    Total Energy =                       -924.0161761735844266
  Basis Set: CC-PVDZ
    Blend: CC-PVDZ
  Basis Set: (CC-PVDZ AUX)
    Blend: CC-PVDZ-JKFIT
  Basis Set: CC-PVDZ
    Blend: CC-PVDZ
  @DF-UKS Final Energy:  -924.10099565087205
    Total Energy =                       -924.1009956508720506
  @DF-UKS Final Energy:  -924.36876558263782
    Total Energy =                       -924.3687655826378204
  @DF-UKS Final Energy:  -924.85853676077102
    Total Energy =                       -924.8585367607709031
  @DF-UKS Final Energy:  -925.03282496257418
    Total Energy =                       -925.0328249625740682
  @DF-UKS Final Energy:  -925.14739394658704
    Total Energy =                       -925.1473939465870444
  @DF-UKS Final Energy:  -925.20012761171574
    Total Energy =                       -925.2001276117157431
  @DF-UKS Final Energy:  -925.22961155745998
    Total Energy =                       -925.2296115574599753
  @DF-UKS Final Energy:  -925.24549758041394
    Total Energy =                       -925.2454975804138257
  @DF-UKS Final Energy:  -925.25252939167603
    Total Energy =                       -925.2525293916760347
  @DF-UKS Final Energy:  -925.25518088834610
    Total Energy =                       -925.2551808883461035
  @DF-UKS Final Energy:  -925.25584373205982
    Total Energy =                       -925.2558437320598159
  @DF-UKS Final Energy:  -925.25606713668662
    Total Energy =                       -925.2560671366866245
  @DF-UKS Final Energy:  -925.25610708897739
    Total Energy =                       -925.2561070889772736
  Basis Set: (CC-PVDZ AUX)
    Blend: CC-PVDZ-JKFIT
  Basis Set: CC-PVDZ
    Blend: CC-PVDZ
  Basis Set: (CC-PVDZ AUX)
    Blend: CC-PVDZ-JKFIT
  @DF-UKS Final Energy:  -925.25611560101277
    Total Energy =                       -925.2561156010127661
  Basis Set: CC-PVDZ
    Blend: CC-PVDZ
  Basis Set: (CC-PVDZ AUX)
    Blend: CC-PVDZ-JKFIT
  Charge       = 1
  Multiplicity = 2
  Basis Set: CC-PVDZ
    Blend: CC-PVDZ
  Basis Set: (CC-PVDZ AUX)
    Blend: CC-PVDZ-JKFIT

    Orbital Energies [Eh]
    ---------------------

    Alpha Occupied:

       1A1  -115.451337     2A1   -89.282581     3A1   -11.486919
       4A1    -9.041760     1B2    -9.034668     1B1    -9.033563
       5A1    -8.335280     6A1    -6.305617     2B2    -6.303282
       2B1    -6.281681     7A1    -1.314232     8A1    -1.026974
       9A1    -0.780224     3B2    -0.750914     3B1    -0.745564
       4B2    -0.617866     4B1    -0.568673

    Alpha Virtual:

      10A1    -0.468545    11A1     0.141332     5B2     0.165918
      12A1     0.191564     5B1     0.192823     6B2     0.197694
       6B1     0.230465    13A1     0.249785     1A2     0.259497
      14A1     0.267721     7B2     0.355500     7B1     0.362844
      15A1     0.396014    16A1     0.488824     2A2     0.513576
      17A1     0.513642     8B2     0.558872     8B1     0.568142
      18A1     0.993026

    Beta Occupied:

       1A1  -115.451242     2A1   -89.276554     3A1   -11.486831
       4A1    -9.042188     1B2    -9.033898     1B1    -9.033511
       5A1    -8.329141     6A1    -6.301936     2B2    -6.283136
       2B1    -6.278068     7A1    -1.313090     8A1    -0.983842
       9A1    -0.772632     3B1    -0.745159     3B2    -0.744896
       4B1    -0.554344

    Beta Virtual:

       4B2    -0.468810    10A1    -0.453857    11A1     0.158185
       5B1     0.197412     5B2     0.202813    12A1     0.206101
       6B1     0.237561     6B2     0.246044    13A1     0.261437
       1A2     0.311937    14A1     0.317729     7B2     0.362667
       7B1     0.363444    15A1     0.401391    16A1     0.489633
       2A2     0.515248    17A1     0.515288     8B1     0.568854
       8B2     0.569272    18A1     1.000138

    Final Occupation by Irrep:
             A1    A2    B1    B2
    DOCC [     9,    0,    4,    3 ]
    SOCC [     0,    0,    0,    1 ]
    NA   [     9,    0,    4,    4 ]
    NB   [     9,    0,    4,    3 ]

  @DF-UKS Final Energy:  -925.25611640518355

   => Energetics <=

    Nuclear Repulsion Energy =             68.1780065359830019
    One-Electron Energy =               -1402.7056440415283305
    Two-Electron Energy =                 454.5451963444857029
    DFT Exchange-Correlation Energy =     -45.2736752441239432
    Empirical Dispersion Energy =           0.0000000000000000
    VV10 Nonlocal Energy =                  0.0000000000000000
    Total Energy =                       -925.2561164051835476

  UHF NO Occupations:
  HONO-2 :    8 A1 1.9997120
  HONO-1 :    9 A1 1.9988699
  HONO-0 :    4 B2 1.0000000
  LUNO+0 :   10 A1 0.0011301
  LUNO+1 :   11 A1 0.0002880
  LUNO+2 :    5 B1 0.0000288
  LUNO+3 :    5 B2 0.0000201

Computation Completed

Properties will be evaluated at   0.000000,   0.000000,   0.000000 [a0]

Properties computed using the SCF density matrix

 Multipole Moments:

 ------------------------------------------------------------------------------------
     Multipole            Electronic (a.u.)      Nuclear  (a.u.)        Total (a.u.)
 ------------------------------------------------------------------------------------

 L = 1.  Multiply by 2.5417464519 to convert [e a0] to [Debye]
 Dipole X            :          0.0000000            0.0000000            0.0000000
 Dipole Y            :          0.0000000            0.0000000            0.0000000
 Dipole Z            :         -3.2074993            3.7524755            0.5449762
 Magnitude           :                                                    0.5449762

 ------------------------------------------------------------------------------------

*** tstop() called on Joses-MacBook-Pro-2.local at Thu Jul 17 15:58:45 2025
Module time:
	user time   =       7.67 seconds =       0.13 minutes
	system time =       1.83 seconds =       0.03 minutes
	total time  =          1 seconds =       0.02 minutes
Total time:
	user time   =     223.93 seconds =       3.73 minutes
	system time =      51.23 seconds =       0.85 minutes
	total time  =         26 seconds =       0.43 minutes

*** tstart() called on Joses-MacBook-Pro-2.local
*** at Thu Jul 17 15:58:45 2025

         ------------------------------------------------------------
                                   SCF GRAD
                          Rob Parrish, Justin Turney,
                       Andy Simmonett, and Alex Sokolov
         ------------------------------------------------------------

  ==> Geometry <==

    Molecular point group: c2v
    Full point group: C_inf_v

    Geometry (in Angstrom), charge = 1, multiplicity = 2:

       Center              X                  Y                   Z               Mass
    ------------   -----------------  -----------------  -----------------  -----------------
         S            0.000000000000     0.000000000000     1.241834575999    31.972071174400
         AR           0.000000000000     0.000000000000    -0.993534928279    39.962383123700

  Nuclear repulsion =   68.178006535983002

  ==> Basis Set <==

  Basis Set: CC-PVDZ
    Blend: CC-PVDZ
    Number of shells: 16
    Number of basis functions: 36
    Number of Cartesian functions: 38
    Spherical Harmonics?: true
    Max angular momentum: 2

  ==> DFJKGrad: Density-Fitted SCF Gradients <==

    Gradient:                    1
    J tasked:                  Yes
    K tasked:                  Yes
    wK tasked:                  No
    OpenMP threads:              1
    Integrals threads:           1
    Memory [MiB]:              375
    Schwarz Cutoff:          1E-12
    Fitting Condition:       1E-10

   => Auxiliary Basis Set <=

  Basis Set: (CC-PVDZ AUX)
    Blend: CC-PVDZ-JKFIT
    Number of shells: 72
    Number of basis functions: 224
    Number of Cartesian functions: 260
    Spherical Harmonics?: true
    Max angular momentum: 3

  ==> DFT Potential <==

   => LibXC <=

    Version 6.2.2
    S. Lehtola, C. Steigemann, M. J.T. Oliveira, and M. A.L. Marques.,  SoftwareX 7, 1â€“5 (2018) (10.1016/j.softx.2017.11.002)

   => Composite Functional: B3LYP <=

    B3LYP Hyb-GGA Exchange-Correlation Functional

    P. J. Stephens, F. J. Devlin, C. F. Chabalowski, and M. J. Frisch.,  J. Phys. Chem. 98, 11623 (1994) (10.1021/j100096a001)

    Deriv               =              1
    GGA                 =           TRUE
    Meta                =          FALSE

    Exchange Hybrid     =           TRUE
    MP2 Hybrid          =          FALSE

   => Exchange Functionals <=

    0.0800   Slater exchange
    0.7200         Becke 88

   => Exact (HF) Exchange <=

    0.2000               HF

   => Correlation Functionals <=

    0.1900   Vosko, Wilk & Nusair (VWN5_RPA)
    0.8100   Lee, Yang & Parr

   => LibXC Density Thresholds  <==

    XC_HYB_GGA_XC_B3LYP:  1.00E-15

   => Molecular Quadrature <=

    Radial Scheme          =       TREUTLER
    Pruning Scheme         =           NONE
    Nuclear Scheme         =       TREUTLER

    Blocking Scheme        =         OCTREE
    BS radius alpha        =              1
    Pruning alpha          =              1
    Radial Points          =             75
    Spherical Points       =            302
    Total Points           =          40250
    Total Blocks           =            360
    Max Points             =            254
    Max Functions          =             36
    Weights Tolerance      =       1.00E-15

  -Total Gradient:
     Atom            X                  Y                   Z
    ------   -----------------  -----------------  -----------------
       1       -0.000000000000     0.000000000000    -0.000061798206
       2        0.000000000000     0.000000000000     0.000066877631

*** tstop() called on Joses-MacBook-Pro-2.local at Thu Jul 17 15:58:45 2025
Module time:
	user time   =       2.33 seconds =       0.04 minutes
	system time =       1.28 seconds =       0.02 minutes
	total time  =          0 seconds =       0.00 minutes
Total time:
	user time   =     226.26 seconds =       3.77 minutes
	system time =      52.51 seconds =       0.88 minutes
	total time  =         26 seconds =       0.43 minutes

    			-----------------------------------------

    			 OPTKING 3.0: for geometry optimizations

    			     By R.A. King, Bethel University

    			        with contributions from

    			    A.V. Copan, J. Cayton, A. Heide

    			-----------------------------------------

	                            ===> Fragment 1 <==

	 Z (Atomic Numbers)          Masses                          Geom
	      16.000000            31.972071          0.00000000  0.00000000  2.34672724
	      18.000000            39.962383          0.00000000  0.00000000 -1.87750891

	 - Coordinate -           - BOHR/RAD -       - ANG/DEG -
	 R(1,2)           =         4.224236           2.235370

	        --- Internal Coordinate Step in ANG or DEG, aJ/ANG or AJ/DEG ---
	-------------------------------------------------------------------------------
	           Coordinate      Previous         Force          Change          New
	           ----------      --------        ------          ------        ------
	               R(1,2)       2.23537        0.00053        0.00042       2.23579
	-------------------------------------------------------------------------------

	                                 ==> Convergence Check <==

	Measures of convergence in internal coordinates in au.

	Criteria marked as inactive (o), active & met (*), and active & unmet ( ).

	----------------------------------------------------------------------------------------------
	   Step    Total Energy     Delta E     Max Force     RMS Force      Max Disp      RMS Disp
	----------------------------------------------------------------------------------------------
	  Convergence Criteria     1.00e-06 *    3.00e-04 *             o    1.20e-03 *             o
	----------------------------------------------------------------------------------------------
	    17    -925.25611641   -8.04e-07 *    6.43e-05 *    6.43e-05 o    7.86e-04 *    7.86e-04 o  ~
	----------------------------------------------------------------------------------------------

Next Geometry in Ang
	Fragment 1 (Ang)

	    S   0.0000000000   0.0000000000   1.2420426578
	   Ar   0.0000000000   0.0000000000  -0.9937430101

    Final optimized geometry and variables:
    Molecular point group: c2v
    Full point group: C_inf_v

    Geometry (in Angstrom), charge = 1, multiplicity = 2:

    S            0.000000000000     0.000000000000     1.241834575999
    AR           0.000000000000     0.000000000000    -0.993534928279

    Psi4 stopped on: Thursday, 17 July 2025 03:58PM
    Psi4 wall time for execution: 0:00:27.12

*** Psi4 exiting successfully. Buy a developer a beer!
