                               Psi4 1.9.1 release

  ==> Input File <==

--------------------------------------------------------------------------
molecule {
1 2
B   0.00000        0.60000        0.00000
P   0.00000       -0.60000        0.00000
}

set {
basis              cc-pvdz
reference          uks
maxiter            500
geom_maxiter       500
DAMPING_PERCENTAGE 1
guess              SAP
}

optimize('b3lyp')
--------------------------------------------------------------------------

    Molecular point group: c2v
  Charge       = 1
  Multiplicity = 2
  Basis Set: CC-PVDZ
    Blend: CC-PVDZ
  Basis Set: (CC-PVDZ AUX)
    Blend: CC-PVDZ-JKFIT
  @DF-UKS Final Energy:  -365.27569726937099
    Total Energy =                       -365.2756972693709940
 Dipole X            :          0.0000000            0.0000000            0.0000000
 Dipole Y            :          0.0000000            0.0000000            0.0000000
 Dipole Z            :          0.9747219           -0.5547649            0.4199570
 Magnitude           :                                                    0.4199570
    Molecular point group: c2v
  Basis Set: CC-PVDZ
    Blend: CC-PVDZ
  Basis Set: (CC-PVDZ AUX)
    Blend: CC-PVDZ-JKFIT
  Basis Set: CC-PVDZ
    Blend: CC-PVDZ
  Basis Set: (CC-PVDZ AUX)
    Blend: CC-PVDZ-JKFIT
  @DF-UKS Final Energy:  -365.44775362884809
    Total Energy =                       -365.4477536288480906
  Basis Set: CC-PVDZ
    Blend: CC-PVDZ
  Basis Set: (CC-PVDZ AUX)
    Blend: CC-PVDZ-JKFIT
  Basis Set: CC-PVDZ
    Blend: CC-PVDZ
  @DF-UKS Final Energy:  -365.60632169182901
    Total Energy =                       -365.6063216918290664
  @DF-UKS Final Energy:  -365.65939347045662
    Total Energy =                       -365.6593934704566209
  @DF-UKS Final Energy:  -365.67661965205883
    Total Energy =                       -365.6766196520588323
  @DF-UKS Final Energy:  -365.67980444098254
    Total Energy =                       -365.6798044409825366
  @DF-UKS Final Energy:  -365.68058523216899
    Total Energy =                       -365.6805852321689372
  @DF-UKS Final Energy:  -365.68084358932390
    Total Energy =                       -365.6808435893238993
  @DF-UKS Final Energy:  -365.68087944401157
    Total Energy =                       -365.6808794440115662
  Basis Set: (CC-PVDZ AUX)
    Blend: CC-PVDZ-JKFIT
  Basis Set: CC-PVDZ
    Blend: CC-PVDZ
  Basis Set: (CC-PVDZ AUX)
    Blend: CC-PVDZ-JKFIT
  @DF-UKS Final Energy:  -365.68088532045545
    Total Energy =                       -365.6808853204554453
  Basis Set: CC-PVDZ
    Blend: CC-PVDZ
  Basis Set: (CC-PVDZ AUX)
    Blend: CC-PVDZ-JKFIT
  Charge       = 1
  Multiplicity = 2
  Basis Set: CC-PVDZ
    Blend: CC-PVDZ
  Basis Set: (CC-PVDZ AUX)
    Blend: CC-PVDZ-JKFIT

    Orbital Energies [Eh]
    ---------------------

    Alpha Occupied:

       1A1   -77.432717     2A1    -7.198586     3A1    -6.896307
       1B1    -5.062787     4A1    -5.057959     1B2    -5.051731
       5A1    -0.932362     6A1    -0.663253     2B1    -0.563685
       2B2    -0.534095

    Alpha Virtual:

       7A1    -0.479042     3B1    -0.344992     3B2    -0.322674
       8A1    -0.118566     9A1    -0.024912     4B1     0.034353
       4B2     0.045830    10A1     0.075696     5B1     0.145023
       1A2     0.162633    11A1     0.163403     5B2     0.166407
      12A1     0.170759     6B1     0.228001     6B2     0.247342
      13A1     0.392816     2A2     0.447393    14A1     0.447679
      15A1     0.626213     7B1     0.686480     7B2     0.705924
      16A1     0.911008

    Beta Occupied:

       1A1   -77.429886     2A1    -7.194516     3A1    -6.893217
       4A1    -5.056806     1B1    -5.052372     1B2    -5.049855
       5A1    -0.901450     6A1    -0.646968     2B2    -0.525609

    Beta Virtual:

       7A1    -0.469491     2B1    -0.451987     3B2    -0.317327
       3B1    -0.296903     8A1    -0.105799     9A1    -0.018000
       4B2     0.046872     4B1     0.053291    10A1     0.082374
       5B2     0.170627    11A1     0.174456     5B1     0.180055
       1A2     0.195902    12A1     0.198677     6B2     0.249860
       6B1     0.253157    13A1     0.403862     2A2     0.468415
      14A1     0.471309    15A1     0.639672     7B2     0.708895
       7B1     0.714891    16A1     0.917974

    Final Occupation by Irrep:
             A1    A2    B1    B2
    DOCC [     6,    0,    1,    2 ]
    SOCC [     0,    0,    1,    0 ]
    NA   [     6,    0,    2,    2 ]
    NB   [     6,    0,    1,    2 ]

  @DF-UKS Final Energy:  -365.68088559788919

   => Energetics <=

    Nuclear Repulsion Energy =             22.7295471497362982
    One-Electron Energy =                -543.2299428968378834
    Two-Electron Energy =                 176.4691081113959967
    DFT Exchange-Correlation Energy =     -21.6495979621835772
    Empirical Dispersion Energy =           0.0000000000000000
    VV10 Nonlocal Energy =                  0.0000000000000000
    Total Energy =                       -365.6808855978891870

  UHF NO Occupations:
  HONO-2 :    5 A1 1.9995404
  HONO-1 :    6 A1 1.9986791
  HONO-0 :    2 B1 1.0000000
  LUNO+0 :    7 A1 0.0013209
  LUNO+1 :    8 A1 0.0004596
  LUNO+2 :    3 B2 0.0000859
  LUNO+3 :    9 A1 0.0000000

Computation Completed

Properties will be evaluated at   0.000000,   0.000000,   0.000000 [a0]

Properties computed using the SCF density matrix

 Multipole Moments:

 ------------------------------------------------------------------------------------
     Multipole            Electronic (a.u.)      Nuclear  (a.u.)        Total (a.u.)
 ------------------------------------------------------------------------------------

 L = 1.  Multiply by 2.5417464519 to convert [e a0] to [Debye]
 Dipole X            :          0.0000000            0.0000000            0.0000000
 Dipole Y            :          0.0000000            0.0000000            0.0000000
 Dipole Z            :          1.8127562           -0.8072338            1.0055224
 Magnitude           :                                                    1.0055224

 ------------------------------------------------------------------------------------

*** tstop() called on Joses-MacBook-Pro-2.local at Thu Jul 17 13:36:42 2025
Module time:
	user time   =       2.23 seconds =       0.04 minutes
	system time =       5.48 seconds =       0.09 minutes
	total time  =          1 seconds =       0.02 minutes
Total time:
	user time   =      46.46 seconds =       0.77 minutes
	system time =      86.88 seconds =       1.45 minutes
	total time  =         14 seconds =       0.23 minutes

*** tstart() called on Joses-MacBook-Pro-2.local
*** at Thu Jul 17 13:36:42 2025

         ------------------------------------------------------------
                                   SCF GRAD
                          Rob Parrish, Justin Turney,
                       Andy Simmonett, and Alex Sokolov
         ------------------------------------------------------------

  ==> Geometry <==

    Molecular point group: c2v
    Full point group: C_inf_v

    Geometry (in Angstrom), charge = 1, multiplicity = 2:

       Center              X                  Y                   Z               Mass
    ------------   -----------------  -----------------  -----------------  -----------------
         B            0.000000000000     0.000000000000     1.288224054066    11.009305360000
         P            0.000000000000     0.000000000000    -0.457885999900    30.973761998420

  Nuclear repulsion =   22.729547149736298

  ==> Basis Set <==

  Basis Set: CC-PVDZ
    Blend: CC-PVDZ
    Number of shells: 14
    Number of basis functions: 32
    Number of Cartesian functions: 34
    Spherical Harmonics?: true
    Max angular momentum: 2

  ==> DFJKGrad: Density-Fitted SCF Gradients <==

    Gradient:                    1
    J tasked:                  Yes
    K tasked:                  Yes
    wK tasked:                  No
    OpenMP threads:              1
    Integrals threads:           1
    Memory [MiB]:              375
    Schwarz Cutoff:          1E-12
    Fitting Condition:       1E-10

   => Auxiliary Basis Set <=

  Basis Set: (CC-PVDZ AUX)
    Blend: CC-PVDZ-JKFIT
    Number of shells: 60
    Number of basis functions: 182
    Number of Cartesian functions: 211
    Spherical Harmonics?: true
    Max angular momentum: 3

  ==> DFT Potential <==

   => LibXC <=

    Version 6.2.2
    S. Lehtola, C. Steigemann, M. J.T. Oliveira, and M. A.L. Marques.,  SoftwareX 7, 1â€“5 (2018) (10.1016/j.softx.2017.11.002)

   => Composite Functional: B3LYP <=

    B3LYP Hyb-GGA Exchange-Correlation Functional

    P. J. Stephens, F. J. Devlin, C. F. Chabalowski, and M. J. Frisch.,  J. Phys. Chem. 98, 11623 (1994) (10.1021/j100096a001)

    Deriv               =              1
    GGA                 =           TRUE
    Meta                =          FALSE

    Exchange Hybrid     =           TRUE
    MP2 Hybrid          =          FALSE

   => Exchange Functionals <=

    0.0800   Slater exchange
    0.7200         Becke 88

   => Exact (HF) Exchange <=

    0.2000               HF

   => Correlation Functionals <=

    0.1900   Vosko, Wilk & Nusair (VWN5_RPA)
    0.8100   Lee, Yang & Parr

   => LibXC Density Thresholds  <==

    XC_HYB_GGA_XC_B3LYP:  1.00E-15

   => Molecular Quadrature <=

    Radial Scheme          =       TREUTLER
    Pruning Scheme         =           NONE
    Nuclear Scheme         =       TREUTLER

    Blocking Scheme        =         OCTREE
    BS radius alpha        =              1
    Pruning alpha          =              1
    Radial Points          =             75
    Spherical Points       =            302
    Total Points           =          41988
    Total Blocks           =            380
    Max Points             =            256
    Max Functions          =             32
    Weights Tolerance      =       1.00E-15

  -Total Gradient:
     Atom            X                  Y                   Z
    ------   -----------------  -----------------  -----------------
       1        0.000000000000     0.000000000000    -0.000053408451
       2        0.000000000000    -0.000000000000     0.000037922365

*** tstop() called on Joses-MacBook-Pro-2.local at Thu Jul 17 13:36:42 2025
Module time:
	user time   =       0.87 seconds =       0.01 minutes
	system time =       1.53 seconds =       0.03 minutes
	total time  =          0 seconds =       0.00 minutes
Total time:
	user time   =      47.33 seconds =       0.79 minutes
	system time =      88.42 seconds =       1.47 minutes
	total time  =         14 seconds =       0.23 minutes

    			-----------------------------------------

    			 OPTKING 3.0: for geometry optimizations

    			     By R.A. King, Bethel University

    			        with contributions from

    			    A.V. Copan, J. Cayton, A. Heide

    			-----------------------------------------

	                            ===> Fragment 1 <==

	 Z (Atomic Numbers)          Masses                          Geom
	       5.000000            11.009305          0.00000000  0.00000000  2.43439065
	      15.000000            30.973762          0.00000000  0.00000000 -0.86527914

	 - Coordinate -           - BOHR/RAD -       - ANG/DEG -
	 R(1,2)           =         3.299670           1.746110

	        --- Internal Coordinate Step in ANG or DEG, aJ/ANG or AJ/DEG ---
	-------------------------------------------------------------------------------
	           Coordinate      Previous         Force          Change          New
	           ----------      --------        ------          ------        ------
	               R(1,2)       1.74611        0.00038        0.00008       1.74619
	-------------------------------------------------------------------------------

	                                 ==> Convergence Check <==

	Measures of convergence in internal coordinates in au.

	Criteria marked as inactive (o), active & met (*), and active & unmet ( ).

	----------------------------------------------------------------------------------------------
	   Step    Total Energy     Delta E     Max Force     RMS Force      Max Disp      RMS Disp
	----------------------------------------------------------------------------------------------
	  Convergence Criteria     1.00e-06 *    3.00e-04 *             o    1.20e-03 *             o
	----------------------------------------------------------------------------------------------
	    11    -365.68088560   -2.77e-07 *    4.57e-05 *    4.57e-05 o    1.59e-04 *    1.59e-04 o  ~
	----------------------------------------------------------------------------------------------

Next Geometry in Ang
	Fragment 1 (Ang)

	    B   0.0000000000   0.0000000000   1.2882662383
	    P   0.0000000000   0.0000000000  -0.4579281841

    Final optimized geometry and variables:
    Molecular point group: c2v
    Full point group: C_inf_v

    Geometry (in Angstrom), charge = 1, multiplicity = 2:

    B            0.000000000000     0.000000000000     1.288224054066
    P            0.000000000000     0.000000000000    -0.457885999900

    Psi4 stopped on: Thursday, 17 July 2025 01:36PM
    Psi4 wall time for execution: 0:00:14.20

*** Psi4 exiting successfully. Buy a developer a beer!
