                               Psi4 1.9.1 release

  ==> Input File <==

--------------------------------------------------------------------------
molecule {
1 4
O   0.00000        0.60000        0.00000
Mg   0.00000       -0.60000        0.00000
}

set {
basis              cc-pvdz
reference          uks
maxiter            500
geom_maxiter       500
DAMPING_PERCENTAGE 1
guess              SAP
}

optimize('b3lyp')
--------------------------------------------------------------------------

    Molecular point group: c2v
  Charge       = 1
  Multiplicity = 4
  Basis Set: CC-PVDZ
    Blend: CC-PVDZ
  Basis Set: (CC-PVDZ AUX)
    Blend: CC-PVDZ-JKFIT + DEF2-UNIVERSAL-JKFIT
  @DF-UKS Final Energy:  -274.34409326876539
    Total Energy =                       -274.3440932687653913
 Dipole X            :          0.0000000            0.0000000            0.0000000
 Dipole Y            :          0.0000000            0.0000000            0.0000000
 Dipole Z            :          0.1040398           -0.0033262            0.1007137
 Magnitude           :                                                    0.1007137
    Molecular point group: c2v
  Basis Set: CC-PVDZ
    Blend: CC-PVDZ
  Basis Set: (CC-PVDZ AUX)
    Blend: CC-PVDZ-JKFIT + DEF2-UNIVERSAL-JKFIT
  Basis Set: CC-PVDZ
    Blend: CC-PVDZ
  Basis Set: (CC-PVDZ AUX)
    Blend: CC-PVDZ-JKFIT + DEF2-UNIVERSAL-JKFIT
  @DF-UKS Final Energy:  -274.58307289676327
    Total Energy =                       -274.5830728967632695
  Basis Set: CC-PVDZ
    Blend: CC-PVDZ
  Basis Set: (CC-PVDZ AUX)
    Blend: CC-PVDZ-JKFIT + DEF2-UNIVERSAL-JKFIT
  Basis Set: CC-PVDZ
    Blend: CC-PVDZ
  @DF-UKS Final Energy:  -274.71760746208554
    Total Energy =                       -274.7176074620855388
  @DF-UKS Final Energy:  -274.78650051403793
    Total Energy =                       -274.7865005140379253
  @DF-UKS Final Energy:  -274.82514489323717
    Total Energy =                       -274.8251448932371659
  @DF-UKS Final Energy:  -274.84721656920448
    Total Energy =                       -274.8472165692044769
  @DF-UKS Final Energy:  -274.85971287067918
    Total Energy =                       -274.8597128706791750
  @DF-UKS Final Energy:  -274.86684863068854
    Total Energy =                       -274.8668486306885370
  @DF-UKS Final Energy:  -274.87091937876363
    Total Energy =                       -274.8709193787636309
  @DF-UKS Final Energy:  -274.87314378444552
    Total Energy =                       -274.8731437844455172
  @DF-UKS Final Energy:  -274.87425868921292
    Total Energy =                       -274.8742586892129225
  @DF-UKS Final Energy:  -274.87475355462408
    Total Energy =                       -274.8747535546240783
  @DF-UKS Final Energy:  -274.87494299587746
    Total Energy =                       -274.8749429958774613
  @DF-UKS Final Energy:  -274.87499845982575
    Total Energy =                       -274.8749984598257470
  @DF-UKS Final Energy:  -274.87500878418132
    Total Energy =                       -274.8750087841813183
  Basis Set: (CC-PVDZ AUX)
    Blend: CC-PVDZ-JKFIT + DEF2-UNIVERSAL-JKFIT
  Basis Set: CC-PVDZ
    Blend: CC-PVDZ
  Basis Set: (CC-PVDZ AUX)
    Blend: CC-PVDZ-JKFIT + DEF2-UNIVERSAL-JKFIT
  @DF-UKS Final Energy:  -274.87501122475885
    Total Energy =                       -274.8750112247588504
  Basis Set: CC-PVDZ
    Blend: CC-PVDZ
  Basis Set: (CC-PVDZ AUX)
    Blend: CC-PVDZ-JKFIT + DEF2-UNIVERSAL-JKFIT
  Charge       = 1
  Multiplicity = 4
  Basis Set: CC-PVDZ
    Blend: CC-PVDZ
  Basis Set: (CC-PVDZ AUX)
    Blend: CC-PVDZ-JKFIT + DEF2-UNIVERSAL-JKFIT

    Orbital Energies [Eh]
    ---------------------

    Alpha Occupied:

       1A1   -47.168031     2A1   -19.439527     3A1    -3.438422
       4A1    -2.181322     1B1    -2.181259     1B2    -2.181237
       5A1    -1.168561     6A1    -0.610439     2B1    -0.605087
       2B2    -0.528390     7A1    -0.460844

    Alpha Virtual:

       3B1    -0.255457     3B2    -0.254796     8A1    -0.249599
       9A1    -0.077718     4B1    -0.031095     4B2    -0.030492
      10A1    -0.030284     5B1     0.053810    11A1     0.054267
       1A2     0.054466     5B2     0.054514    12A1     0.054519
       6B1     0.667561    13A1     0.704401     6B2     0.714817
      14A1     1.008099     7B1     2.276768    15A1     2.278155
       7B2     2.335073     2A2     2.336896    16A1     2.357382

    Beta Occupied:

       1A1   -47.164659     2A1   -19.389615     3A1    -3.432197
       4A1    -2.177177     1B1    -2.177132     1B2    -2.177113
       5A1    -1.010838     2B2    -0.476750

    Beta Virtual:

       6A1    -0.377035     7A1    -0.328380     2B1    -0.323980
       3B2    -0.216441     3B1    -0.212424     8A1    -0.201861
       9A1    -0.064473     4B2    -0.017918    10A1    -0.015594
       4B1    -0.014305    11A1     0.096174     1A2     0.096296
       5B2     0.096981     5B1     0.097337    12A1     0.098054
       6B2     0.744131     6B1     0.780123    13A1     0.814275
      14A1     1.087333     7B2     2.425480     2A2     2.428079
      15A1     2.434841     7B1     2.449989    16A1     2.451397

    Final Occupation by Irrep:
             A1    A2    B1    B2
    DOCC [     5,    0,    1,    2 ]
    SOCC [     2,    0,    1,    0 ]
    NA   [     7,    0,    2,    2 ]
    NB   [     5,    0,    1,    2 ]

  @DF-UKS Final Energy:  -274.87501136767872

   => Energetics <=

    Nuclear Repulsion Energy =             15.0288396475850252
    One-Electron Energy =                -407.5576312920458690
    Two-Electron Energy =                 137.6079568336515990
    DFT Exchange-Correlation Energy =     -19.9541765568694522
    Empirical Dispersion Energy =           0.0000000000000000
    VV10 Nonlocal Energy =                  0.0000000000000000
    Total Energy =                       -274.8750113676787237

  UHF NO Occupations:
  HONO-2 :    6 A1 1.0000000
  HONO-1 :    7 A1 1.0000000
  HONO-0 :    2 B1 1.0000000
  LUNO+0 :    8 A1 0.0007861
  LUNO+1 :    3 B2 0.0002994
  LUNO+2 :    3 B1 0.0000015
  LUNO+3 :    9 A1 0.0000015

Computation Completed

Properties will be evaluated at   0.000000,   0.000000,   0.000000 [a0]

Properties computed using the SCF density matrix

 Multipole Moments:

 ------------------------------------------------------------------------------------
     Multipole            Electronic (a.u.)      Nuclear  (a.u.)        Total (a.u.)
 ------------------------------------------------------------------------------------

 L = 1.  Multiply by 2.5417464519 to convert [e a0] to [Debye]
 Dipole X            :          0.0000000            0.0000000            0.0000000
 Dipole Y            :          0.0000000            0.0000000            0.0000000
 Dipole Z            :         -2.3770114           -0.0093694           -2.3863807
 Magnitude           :                                                    2.3863807

 ------------------------------------------------------------------------------------

*** tstop() called on Joses-MacBook-Pro-2.local at Thu Jul 17 14:07:22 2025
Module time:
	user time   =       2.25 seconds =       0.04 minutes
	system time =       3.86 seconds =       0.06 minutes
	total time  =          0 seconds =       0.00 minutes
Total time:
	user time   =      54.35 seconds =       0.91 minutes
	system time =     122.71 seconds =       2.05 minutes
	total time  =         18 seconds =       0.30 minutes

*** tstart() called on Joses-MacBook-Pro-2.local
*** at Thu Jul 17 14:07:22 2025

         ------------------------------------------------------------
                                   SCF GRAD
                          Rob Parrish, Justin Turney,
                       Andy Simmonett, and Alex Sokolov
         ------------------------------------------------------------

  ==> Geometry <==

    Molecular point group: c2v
    Full point group: C_inf_v

    Geometry (in Angstrom), charge = 1, multiplicity = 4:

       Center              X                  Y                   Z               Mass
    ------------   -----------------  -----------------  -----------------  -----------------
         O            0.000000000000     0.000000000000     2.027893194026    15.994914619570
         MG           0.000000000000     0.000000000000    -1.352341968207    23.985041697000

  Nuclear repulsion =   15.028839647585025

  ==> Basis Set <==

  Basis Set: CC-PVDZ
    Blend: CC-PVDZ
    Number of shells: 14
    Number of basis functions: 32
    Number of Cartesian functions: 34
    Spherical Harmonics?: true
    Max angular momentum: 2

  ==> DFJKGrad: Density-Fitted SCF Gradients <==

    Gradient:                    1
    J tasked:                  Yes
    K tasked:                  Yes
    wK tasked:                  No
    OpenMP threads:              1
    Integrals threads:           1
    Memory [MiB]:              375
    Schwarz Cutoff:          1E-12
    Fitting Condition:       1E-10

   => Auxiliary Basis Set <=

  Basis Set: (CC-PVDZ AUX)
    Blend: CC-PVDZ-JKFIT + DEF2-UNIVERSAL-JKFIT
    Number of shells: 58
    Number of basis functions: 182
    Number of Cartesian functions: 218
    Spherical Harmonics?: true
    Max angular momentum: 4

  ==> DFT Potential <==

   => LibXC <=

    Version 6.2.2
    S. Lehtola, C. Steigemann, M. J.T. Oliveira, and M. A.L. Marques.,  SoftwareX 7, 1â€“5 (2018) (10.1016/j.softx.2017.11.002)

   => Composite Functional: B3LYP <=

    B3LYP Hyb-GGA Exchange-Correlation Functional

    P. J. Stephens, F. J. Devlin, C. F. Chabalowski, and M. J. Frisch.,  J. Phys. Chem. 98, 11623 (1994) (10.1021/j100096a001)

    Deriv               =              1
    GGA                 =           TRUE
    Meta                =          FALSE

    Exchange Hybrid     =           TRUE
    MP2 Hybrid          =          FALSE

   => Exchange Functionals <=

    0.0800   Slater exchange
    0.7200         Becke 88

   => Exact (HF) Exchange <=

    0.2000               HF

   => Correlation Functionals <=

    0.1900   Vosko, Wilk & Nusair (VWN5_RPA)
    0.8100   Lee, Yang & Parr

   => LibXC Density Thresholds  <==

    XC_HYB_GGA_XC_B3LYP:  1.00E-15

   => Molecular Quadrature <=

    Radial Scheme          =       TREUTLER
    Pruning Scheme         =           NONE
    Nuclear Scheme         =       TREUTLER

    Blocking Scheme        =         OCTREE
    BS radius alpha        =              1
    Pruning alpha          =              1
    Radial Points          =             75
    Spherical Points       =            302
    Total Points           =          43552
    Total Blocks           =            412
    Max Points             =            255
    Max Functions          =             32
    Weights Tolerance      =       1.00E-15

  -Total Gradient:
     Atom            X                  Y                   Z
    ------   -----------------  -----------------  -----------------
       1        0.000000000000     0.000000000000    -0.000011121926
       2       -0.000000000000    -0.000000000000     0.000003664362

*** tstop() called on Joses-MacBook-Pro-2.local at Thu Jul 17 14:07:23 2025
Module time:
	user time   =       1.04 seconds =       0.02 minutes
	system time =       1.82 seconds =       0.03 minutes
	total time  =          1 seconds =       0.02 minutes
Total time:
	user time   =      55.39 seconds =       0.92 minutes
	system time =     124.55 seconds =       2.08 minutes
	total time  =         19 seconds =       0.32 minutes

    			-----------------------------------------

    			 OPTKING 3.0: for geometry optimizations

    			     By R.A. King, Bethel University

    			        with contributions from

    			    A.V. Copan, J. Cayton, A. Heide

    			-----------------------------------------

	                            ===> Fragment 1 <==

	 Z (Atomic Numbers)          Masses                          Geom
	       8.000000            15.994915          0.00000000  0.00000000  3.83216275
	      12.000000            23.985042          0.00000000  0.00000000 -2.55555595

	 - Coordinate -           - BOHR/RAD -       - ANG/DEG -
	 R(1,2)           =         6.387719           3.380235

	        --- Internal Coordinate Step in ANG or DEG, aJ/ANG or AJ/DEG ---
	-------------------------------------------------------------------------------
	           Coordinate      Previous         Force          Change          New
	           ----------      --------        ------          ------        ------
	               R(1,2)       3.38024        0.00006        0.00327       3.38351
	-------------------------------------------------------------------------------

	                                 ==> Convergence Check <==

	Measures of convergence in internal coordinates in au.

	Criteria marked as inactive (o), active & met (*), and active & unmet ( ).

	----------------------------------------------------------------------------------------------
	   Step    Total Energy     Delta E     Max Force     RMS Force      Max Disp      RMS Disp
	----------------------------------------------------------------------------------------------
	  Convergence Criteria     1.00e-06 *    3.00e-04 *             o    1.20e-03 *             o
	----------------------------------------------------------------------------------------------
	    17    -274.87501137   -1.43e-07 *    7.39e-06 *    7.39e-06 o    6.18e-03      6.18e-03 o  ~
	----------------------------------------------------------------------------------------------

Next Geometry in Ang
	Fragment 1 (Ang)

	    O   0.0000000000   0.0000000000   2.0295288061
	   Mg   0.0000000000   0.0000000000  -1.3539775803

    Final optimized geometry and variables:
    Molecular point group: c2v
    Full point group: C_inf_v

    Geometry (in Angstrom), charge = 1, multiplicity = 4:

    O            0.000000000000     0.000000000000     2.027893194026
    MG           0.000000000000     0.000000000000    -1.352341968207

    Psi4 stopped on: Thursday, 17 July 2025 02:07PM
    Psi4 wall time for execution: 0:00:19.72

*** Psi4 exiting successfully. Buy a developer a beer!
