                               Psi4 1.9.1 release

  ==> Input File <==

--------------------------------------------------------------------------
molecule {
1 4
He   0.00000        0.60000        0.00000
S   0.00000       -0.60000        0.00000
}

set {
basis              cc-pvdz
reference          uks
maxiter            500
geom_maxiter       500
DAMPING_PERCENTAGE 1
guess              SAP
}

optimize('b3lyp')
--------------------------------------------------------------------------

    Molecular point group: c2v
  Charge       = 1
  Multiplicity = 4
  Basis Set: CC-PVDZ
    Blend: CC-PVDZ
  Basis Set: (CC-PVDZ AUX)
    Blend: CC-PVDZ-JKFIT + DEF2-UNIVERSAL-JKFIT
  @DF-UKS Final Energy:  -400.35936842992322
    Total Energy =                       -400.3593684299232223
 Dipole X            :          0.0000000            0.0000000            0.0000000
 Dipole Y            :          0.0000000            0.0000000            0.0000000
 Dipole Z            :          0.7806745           -0.0061465            0.7745280
 Magnitude           :                                                    0.7745280
    Molecular point group: c2v
  Basis Set: CC-PVDZ
    Blend: CC-PVDZ
  Basis Set: (CC-PVDZ AUX)
    Blend: CC-PVDZ-JKFIT + DEF2-UNIVERSAL-JKFIT
  Basis Set: CC-PVDZ
    Blend: CC-PVDZ
  Basis Set: (CC-PVDZ AUX)
    Blend: CC-PVDZ-JKFIT + DEF2-UNIVERSAL-JKFIT
  @DF-UKS Final Energy:  -400.53167822491628
    Total Energy =                       -400.5316782249162770
  Basis Set: CC-PVDZ
    Blend: CC-PVDZ
  Basis Set: (CC-PVDZ AUX)
    Blend: CC-PVDZ-JKFIT + DEF2-UNIVERSAL-JKFIT
  Basis Set: CC-PVDZ
    Blend: CC-PVDZ
  @DF-UKS Final Energy:  -400.58619525803181
    Total Energy =                       -400.5861952580318075
  @DF-UKS Final Energy:  -400.61829955488895
    Total Energy =                       -400.6182995548889494
  @DF-UKS Final Energy:  -400.63367122398938
    Total Energy =                       -400.6336712239893814
  @DF-UKS Final Energy:  -400.64134898660598
    Total Energy =                       -400.6413489866060331
  @DF-UKS Final Energy:  -400.64498799238919
    Total Energy =                       -400.6449879923891899
  @DF-UKS Final Energy:  -400.64659836518149
    Total Energy =                       -400.6465983651814895
  @DF-UKS Final Energy:  -400.64724517054447
    Total Energy =                       -400.6472451705444655
  @DF-UKS Final Energy:  -400.64747172484880
    Total Energy =                       -400.6474717248487423
  @DF-UKS Final Energy:  -400.64752334692503
    Total Energy =                       -400.6475233469250270
  @DF-UKS Final Energy:  -400.64754129797143
    Total Energy =                       -400.6475412979714292
  Basis Set: (CC-PVDZ AUX)
    Blend: CC-PVDZ-JKFIT + DEF2-UNIVERSAL-JKFIT
  Basis Set: CC-PVDZ
    Blend: CC-PVDZ
  Basis Set: (CC-PVDZ AUX)
    Blend: CC-PVDZ-JKFIT + DEF2-UNIVERSAL-JKFIT
  @DF-UKS Final Energy:  -400.64754442621660
    Total Energy =                       -400.6475444262165979
  Basis Set: CC-PVDZ
    Blend: CC-PVDZ
  Basis Set: (CC-PVDZ AUX)
    Blend: CC-PVDZ-JKFIT + DEF2-UNIVERSAL-JKFIT
  Charge       = 1
  Multiplicity = 4
  Basis Set: CC-PVDZ
    Blend: CC-PVDZ
  Basis Set: (CC-PVDZ AUX)
    Blend: CC-PVDZ-JKFIT + DEF2-UNIVERSAL-JKFIT

    Orbital Energies [Eh]
    ---------------------

    Alpha Occupied:

       1A1   -89.371807     2A1    -8.423531     1B2    -6.388397
       1B1    -6.388397     3A1    -6.388355     4A1    -1.127461
       5A1    -0.844171     2B2    -0.698616     2B1    -0.698616
       6A1    -0.696576

    Alpha Virtual:

       7A1     0.115143     3B1     0.144120     3B2     0.144120
       8A1     0.150847     9A1     0.151973    10A1     0.152558
       1A2     0.152558     4B1     0.152652     4B2     0.152652
      11A1     0.985821     5B2     1.998836     5B1     1.998836
      12A1     2.012050

    Beta Occupied:

       1A1   -89.353029     2A1    -8.404583     1B1    -6.360128
       1B2    -6.360128     3A1    -6.360036     4A1    -0.980671
       5A1    -0.841468

    Beta Virtual:

       2B2    -0.514516     2B1    -0.514516     6A1    -0.512841
       7A1     0.163374     3B2     0.193799     3B1     0.193799
       8A1     0.199904     9A1     0.269050    10A1     0.271112
       1A2     0.271112     4B1     0.271223     4B2     0.271223
      11A1     0.988186     5B2     1.999825     5B1     1.999825
      12A1     2.013333

    Final Occupation by Irrep:
             A1    A2    B1    B2
    DOCC [     5,    0,    1,    1 ]
    SOCC [     1,    0,    1,    1 ]
    NA   [     6,    0,    2,    2 ]
    NB   [     5,    0,    1,    1 ]

  @DF-UKS Final Energy:  -400.64754501307226

   => Energetics <=

    Nuclear Repulsion Energy =              5.9800145285969704
    One-Electron Energy =                -558.4287142234613839
    Two-Electron Energy =                 173.0738592720724398
    DFT Exchange-Correlation Energy =     -21.2727045902802665
    Empirical Dispersion Energy =           0.0000000000000000
    VV10 Nonlocal Energy =                  0.0000000000000000
    Total Energy =                       -400.6475450130722606

  UHF NO Occupations:
  HONO-2 :    2 B1 1.0000000
  HONO-1 :    6 A1 1.0000000
  HONO-0 :    2 B2 1.0000000
  LUNO+0 :    7 A1 0.0001898
  LUNO+1 :    8 A1 0.0000047
  LUNO+2 :    3 B1 0.0000000
  LUNO+3 :    3 B2 0.0000000

Computation Completed

Properties will be evaluated at   0.000000,   0.000000,   0.000000 [a0]

Properties computed using the SCF density matrix

 Multipole Moments:

 ------------------------------------------------------------------------------------
     Multipole            Electronic (a.u.)      Nuclear  (a.u.)        Total (a.u.)
 ------------------------------------------------------------------------------------

 L = 1.  Multiply by 2.5417464519 to convert [e a0] to [Debye]
 Dipole X            :          0.0000000            0.0000000            0.0000000
 Dipole Y            :          0.0000000            0.0000000            0.0000000
 Dipole Z            :         -0.5260232           -0.0145044           -0.5405276
 Magnitude           :                                                    0.5405276

 ------------------------------------------------------------------------------------

*** tstop() called on Joses-MacBook-Pro-2.local at Thu Jul 17 12:41:25 2025
Module time:
	user time   =       1.77 seconds =       0.03 minutes
	system time =       3.73 seconds =       0.06 minutes
	total time  =          1 seconds =       0.02 minutes
Total time:
	user time   =      47.87 seconds =       0.80 minutes
	system time =      68.42 seconds =       1.14 minutes
	total time  =         11 seconds =       0.18 minutes

*** tstart() called on Joses-MacBook-Pro-2.local
*** at Thu Jul 17 12:41:25 2025

         ------------------------------------------------------------
                                   SCF GRAD
                          Rob Parrish, Justin Turney,
                       Andy Simmonett, and Alex Sokolov
         ------------------------------------------------------------

  ==> Geometry <==

    Molecular point group: c2v
    Full point group: C_inf_v

    Geometry (in Angstrom), charge = 1, multiplicity = 4:

       Center              X                  Y                   Z               Mass
    ------------   -----------------  -----------------  -----------------  -----------------
         HE           0.000000000000     0.000000000000     2.516649710488     4.002603254130
         S            0.000000000000     0.000000000000    -0.315060925073    31.972071174400

  Nuclear repulsion =    5.980014528596970

  ==> Basis Set <==

  Basis Set: CC-PVDZ
    Blend: CC-PVDZ
    Number of shells: 11
    Number of basis functions: 23
    Number of Cartesian functions: 24
    Spherical Harmonics?: true
    Max angular momentum: 2

  ==> DFJKGrad: Density-Fitted SCF Gradients <==

    Gradient:                    1
    J tasked:                  Yes
    K tasked:                  Yes
    wK tasked:                  No
    OpenMP threads:              1
    Integrals threads:           1
    Memory [MiB]:              375
    Schwarz Cutoff:          1E-12
    Fitting Condition:       1E-10

   => Auxiliary Basis Set <=

  Basis Set: (CC-PVDZ AUX)
    Blend: CC-PVDZ-JKFIT + DEF2-UNIVERSAL-JKFIT
    Number of shells: 45
    Number of basis functions: 135
    Number of Cartesian functions: 155
    Spherical Harmonics?: true
    Max angular momentum: 3

  ==> DFT Potential <==

   => LibXC <=

    Version 6.2.2
    S. Lehtola, C. Steigemann, M. J.T. Oliveira, and M. A.L. Marques.,  SoftwareX 7, 1â€“5 (2018) (10.1016/j.softx.2017.11.002)

   => Composite Functional: B3LYP <=

    B3LYP Hyb-GGA Exchange-Correlation Functional

    P. J. Stephens, F. J. Devlin, C. F. Chabalowski, and M. J. Frisch.,  J. Phys. Chem. 98, 11623 (1994) (10.1021/j100096a001)

    Deriv               =              1
    GGA                 =           TRUE
    Meta                =          FALSE

    Exchange Hybrid     =           TRUE
    MP2 Hybrid          =          FALSE

   => Exchange Functionals <=

    0.0800   Slater exchange
    0.7200         Becke 88

   => Exact (HF) Exchange <=

    0.2000               HF

   => Correlation Functionals <=

    0.1900   Vosko, Wilk & Nusair (VWN5_RPA)
    0.8100   Lee, Yang & Parr

   => LibXC Density Thresholds  <==

    XC_HYB_GGA_XC_B3LYP:  1.00E-15

   => Molecular Quadrature <=

    Radial Scheme          =       TREUTLER
    Pruning Scheme         =           NONE
    Nuclear Scheme         =       TREUTLER

    Blocking Scheme        =         OCTREE
    BS radius alpha        =              1
    Pruning alpha          =              1
    Radial Points          =             75
    Spherical Points       =            302
    Total Points           =          42506
    Total Blocks           =            375
    Max Points             =            254
    Max Functions          =             23
    Weights Tolerance      =       1.00E-15

  -Total Gradient:
     Atom            X                  Y                   Z
    ------   -----------------  -----------------  -----------------
       1        0.000000000000    -0.000000000000    -0.000035167334
       2        0.000000000000     0.000000000000     0.000023148426

*** tstop() called on Joses-MacBook-Pro-2.local at Thu Jul 17 12:41:25 2025
Module time:
	user time   =       0.46 seconds =       0.01 minutes
	system time =       1.64 seconds =       0.03 minutes
	total time  =          0 seconds =       0.00 minutes
Total time:
	user time   =      48.33 seconds =       0.81 minutes
	system time =      70.06 seconds =       1.17 minutes
	total time  =         11 seconds =       0.18 minutes

    			-----------------------------------------

    			 OPTKING 3.0: for geometry optimizations

    			     By R.A. King, Bethel University

    			        with contributions from

    			    A.V. Copan, J. Cayton, A. Heide

    			-----------------------------------------

	                            ===> Fragment 1 <==

	 Z (Atomic Numbers)          Masses                          Geom
	       2.000000             4.002603          0.00000000  0.00000000  4.75577871
	      16.000000            31.972071          0.00000000  0.00000000 -0.59537886

	 - Coordinate -           - BOHR/RAD -       - ANG/DEG -
	 R(1,2)           =         5.351158           2.831711

	        --- Internal Coordinate Step in ANG or DEG, aJ/ANG or AJ/DEG ---
	-------------------------------------------------------------------------------
	           Coordinate      Previous         Force          Change          New
	           ----------      --------        ------          ------        ------
	               R(1,2)       2.83171        0.00024        0.00485       2.83656
	-------------------------------------------------------------------------------

	                                 ==> Convergence Check <==

	Measures of convergence in internal coordinates in au.

	Criteria marked as inactive (o), active & met (*), and active & unmet ( ).

	----------------------------------------------------------------------------------------------
	   Step    Total Energy     Delta E     Max Force     RMS Force      Max Disp      RMS Disp
	----------------------------------------------------------------------------------------------
	  Convergence Criteria     1.00e-06 *    3.00e-04 *             o    1.20e-03 *             o
	----------------------------------------------------------------------------------------------
	    14    -400.64754501   -5.87e-07 *    2.92e-05 *    2.92e-05 o    9.17e-03      9.17e-03 o  ~
	----------------------------------------------------------------------------------------------

Next Geometry in Ang
	Fragment 1 (Ang)

	   He   0.0000000000   0.0000000000   2.5190750203
	    S   0.0000000000   0.0000000000  -0.3174862349

    Final optimized geometry and variables:
    Molecular point group: c2v
    Full point group: C_inf_v

    Geometry (in Angstrom), charge = 1, multiplicity = 4:

    HE           0.000000000000     0.000000000000     2.516649710488
    S            0.000000000000     0.000000000000    -0.315060925073

    Psi4 stopped on: Thursday, 17 July 2025 12:41PM
    Psi4 wall time for execution: 0:00:11.88

*** Psi4 exiting successfully. Buy a developer a beer!
