                               Psi4 1.9.1 release

  ==> Input File <==

--------------------------------------------------------------------------
molecule {
1 4
Si   0.00000        0.60000        0.00000
S   0.00000       -0.60000        0.00000
}

set {
basis              cc-pvdz
reference          uks
maxiter            500
geom_maxiter       500
DAMPING_PERCENTAGE 1
guess              SAP
}

optimize('b3lyp')
--------------------------------------------------------------------------

    Molecular point group: c2v
  Charge       = 1
  Multiplicity = 4
  Basis Set: CC-PVDZ
    Blend: CC-PVDZ
  Basis Set: (CC-PVDZ AUX)
    Blend: CC-PVDZ-JKFIT
  @DF-UKS Final Energy:  -685.94984071862143
    Total Energy =                       -685.9498407186214308
 Dipole X            :          0.0000000            0.0000000            0.0000000
 Dipole Y            :          0.0000000            0.0000000            0.0000000
 Dipole Z            :         -0.3413106           -0.0008257           -0.3421363
 Magnitude           :                                                    0.3421363
    Molecular point group: c2v
  Basis Set: CC-PVDZ
    Blend: CC-PVDZ
  Basis Set: (CC-PVDZ AUX)
    Blend: CC-PVDZ-JKFIT
  Basis Set: CC-PVDZ
    Blend: CC-PVDZ
  Basis Set: (CC-PVDZ AUX)
    Blend: CC-PVDZ-JKFIT
  @DF-UKS Final Energy:  -685.98148811680471
    Total Energy =                       -685.9814881168047123
  Basis Set: CC-PVDZ
    Blend: CC-PVDZ
  Basis Set: (CC-PVDZ AUX)
    Blend: CC-PVDZ-JKFIT
  Basis Set: CC-PVDZ
    Blend: CC-PVDZ
  @DF-UKS Final Energy:  -686.04121229416671
    Total Energy =                       -686.0412122941667121
  @DF-UKS Final Energy:  -686.24413365842554
    Total Energy =                       -686.2441336584255396
  @DF-UKS Final Energy:  -686.78662800286122
    Total Energy =                       -686.7866280028612209
  @DF-UKS Final Energy:  -687.04164575513698
    Total Energy =                       -687.0416457551369831
  @DF-UKS Final Energy:  -687.17346448994078
    Total Energy =                       -687.1734644899407840
  @DF-UKS Final Energy:  -687.22209187070837
    Total Energy =                       -687.2220918707083683
  @DF-UKS Final Energy:  -687.24279135200004
    Total Energy =                       -687.2427913520000402
  @DF-UKS Final Energy:  -687.24862302305007
    Total Energy =                       -687.2486230230500723
  @DF-UKS Final Energy:  -687.25128326107756
    Total Energy =                       -687.2512832610776741
  @DF-UKS Final Energy:  -687.25202603478624
    Total Energy =                       -687.2520260347862404
  @DF-UKS Final Energy:  -687.25233407447809
    Total Energy =                       -687.2523340744780853
  @DF-UKS Final Energy:  -687.25239674642376
    Total Energy =                       -687.2523967464237558
  @DF-UKS Final Energy:  -687.25241260399400
    Total Energy =                       -687.2524126039938892
  Basis Set: (CC-PVDZ AUX)
    Blend: CC-PVDZ-JKFIT
  Basis Set: CC-PVDZ
    Blend: CC-PVDZ
  Basis Set: (CC-PVDZ AUX)
    Blend: CC-PVDZ-JKFIT
  @DF-UKS Final Energy:  -687.25241487543644
    Total Energy =                       -687.2524148754364433
  Basis Set: CC-PVDZ
    Blend: CC-PVDZ
  Basis Set: (CC-PVDZ AUX)
    Blend: CC-PVDZ-JKFIT
  Charge       = 1
  Multiplicity = 4
  Basis Set: CC-PVDZ
    Blend: CC-PVDZ
  Basis Set: (CC-PVDZ AUX)
    Blend: CC-PVDZ-JKFIT

    Orbital Energies [Eh]
    ---------------------

    Alpha Occupied:

       1A1   -89.207534     2A1   -66.486867     3A1    -8.265488
       1B1    -6.234091     4A1    -6.231637     1B2    -6.217058
       5A1    -5.624869     2B2    -3.984623     6A1    -3.984571
       2B1    -3.982078     7A1    -1.010418     8A1    -0.744880
       3B1    -0.598102     9A1    -0.590537     3B2    -0.553897
       4B1    -0.439934

    Alpha Virtual:

       4B2    -0.363616    10A1    -0.262966    11A1    -0.029564
       5B1     0.025354    12A1     0.039732     5B2     0.043578
       1A2     0.073182     6B1     0.074539    13A1     0.077782
       6B2     0.085965    14A1     0.139793     7B1     0.239543
       7B2     0.265184    15A1     0.304067     2A2     0.305323
      16A1     0.345800    17A1     0.356405     8B1     0.421049
       8B2     0.448760    18A1     0.769865

    Beta Occupied:

       1A1   -89.198446     2A1   -66.480588     3A1    -8.256241
       4A1    -6.217389     1B1    -6.212498     1B2    -6.211425
       5A1    -5.617146     2B2    -3.980355     6A1    -3.976650
       2B1    -3.966105     7A1    -0.939665     8A1    -0.676581
       3B2    -0.532620

    Beta Virtual:

       9A1    -0.468854     3B1    -0.444268     4B2    -0.337622
       4B1    -0.301611    10A1    -0.216611    11A1    -0.007298
       5B2     0.063284    12A1     0.068959     5B1     0.086919
       6B2     0.104957     6B1     0.127116    13A1     0.129628
       1A2     0.130054    14A1     0.175349     7B2     0.277917
       7B1     0.290482     2A2     0.363074    15A1     0.366854
      16A1     0.381522    17A1     0.394406     8B2     0.478802
       8B1     0.496574    18A1     0.806806

    Final Occupation by Irrep:
             A1    A2    B1    B2
    DOCC [     8,    0,    2,    3 ]
    SOCC [     1,    0,    2,    0 ]
    NA   [     9,    0,    4,    3 ]
    NB   [     8,    0,    2,    3 ]

  @DF-UKS Final Energy:  -687.25241500105574

   => Energetics <=

    Nuclear Repulsion Energy =             53.1241017284133932
    One-Electron Energy =               -1047.8190646572440983
    Two-Electron Energy =                 344.6857807227921739
    DFT Exchange-Correlation Energy =     -37.2432327950171924
    Empirical Dispersion Energy =           0.0000000000000000
    VV10 Nonlocal Energy =                  0.0000000000000000
    Total Energy =                       -687.2524150010557378

  UHF NO Occupations:
  HONO-2 :    9 A1 1.0000000
  HONO-1 :    3 B1 1.0000000
  HONO-0 :    4 B1 1.0000000
  LUNO+0 :   10 A1 0.0026779
  LUNO+1 :   11 A1 0.0007727
  LUNO+2 :    4 B2 0.0002506
  LUNO+3 :    5 B2 0.0000003

Computation Completed

Properties will be evaluated at   0.000000,   0.000000,   0.000000 [a0]

Properties computed using the SCF density matrix

 Multipole Moments:

 ------------------------------------------------------------------------------------
     Multipole            Electronic (a.u.)      Nuclear  (a.u.)        Total (a.u.)
 ------------------------------------------------------------------------------------

 L = 1.  Multiply by 2.5417464519 to convert [e a0] to [Debye]
 Dipole X            :          0.0000000            0.0000000            0.0000000
 Dipole Y            :          0.0000000            0.0000000            0.0000000
 Dipole Z            :          0.9423104           -0.0015353            0.9407751
 Magnitude           :                                                    0.9407751

 ------------------------------------------------------------------------------------

*** tstop() called on Joses-MacBook-Pro-2.local at Thu Jul 17 15:41:30 2025
Module time:
	user time   =       8.41 seconds =       0.14 minutes
	system time =       1.50 seconds =       0.03 minutes
	total time  =          1 seconds =       0.02 minutes
Total time:
	user time   =     208.92 seconds =       3.48 minutes
	system time =      52.89 seconds =       0.88 minutes
	total time  =         25 seconds =       0.42 minutes

*** tstart() called on Joses-MacBook-Pro-2.local
*** at Thu Jul 17 15:41:30 2025

         ------------------------------------------------------------
                                   SCF GRAD
                          Rob Parrish, Justin Turney,
                       Andy Simmonett, and Alex Sokolov
         ------------------------------------------------------------

  ==> Geometry <==

    Molecular point group: c2v
    Full point group: C_inf_v

    Geometry (in Angstrom), charge = 1, multiplicity = 4:

       Center              X                  Y                   Z               Mass
    ------------   -----------------  -----------------  -----------------  -----------------
         SI           0.000000000000     0.000000000000     1.189998450885    27.976926534650
         S            0.000000000000     0.000000000000    -1.041299422085    31.972071174400

  Nuclear repulsion =   53.124101728413393

  ==> Basis Set <==

  Basis Set: CC-PVDZ
    Blend: CC-PVDZ
    Number of shells: 16
    Number of basis functions: 36
    Number of Cartesian functions: 38
    Spherical Harmonics?: true
    Max angular momentum: 2

  ==> DFJKGrad: Density-Fitted SCF Gradients <==

    Gradient:                    1
    J tasked:                  Yes
    K tasked:                  Yes
    wK tasked:                  No
    OpenMP threads:              1
    Integrals threads:           1
    Memory [MiB]:              375
    Schwarz Cutoff:          1E-12
    Fitting Condition:       1E-10

   => Auxiliary Basis Set <=

  Basis Set: (CC-PVDZ AUX)
    Blend: CC-PVDZ-JKFIT
    Number of shells: 72
    Number of basis functions: 224
    Number of Cartesian functions: 260
    Spherical Harmonics?: true
    Max angular momentum: 3

  ==> DFT Potential <==

   => LibXC <=

    Version 6.2.2
    S. Lehtola, C. Steigemann, M. J.T. Oliveira, and M. A.L. Marques.,  SoftwareX 7, 1â€“5 (2018) (10.1016/j.softx.2017.11.002)

   => Composite Functional: B3LYP <=

    B3LYP Hyb-GGA Exchange-Correlation Functional

    P. J. Stephens, F. J. Devlin, C. F. Chabalowski, and M. J. Frisch.,  J. Phys. Chem. 98, 11623 (1994) (10.1021/j100096a001)

    Deriv               =              1
    GGA                 =           TRUE
    Meta                =          FALSE

    Exchange Hybrid     =           TRUE
    MP2 Hybrid          =          FALSE

   => Exchange Functionals <=

    0.0800   Slater exchange
    0.7200         Becke 88

   => Exact (HF) Exchange <=

    0.2000               HF

   => Correlation Functionals <=

    0.1900   Vosko, Wilk & Nusair (VWN5_RPA)
    0.8100   Lee, Yang & Parr

   => LibXC Density Thresholds  <==

    XC_HYB_GGA_XC_B3LYP:  1.00E-15

   => Molecular Quadrature <=

    Radial Scheme          =       TREUTLER
    Pruning Scheme         =           NONE
    Nuclear Scheme         =       TREUTLER

    Blocking Scheme        =         OCTREE
    BS radius alpha        =              1
    Pruning alpha          =              1
    Radial Points          =             75
    Spherical Points       =            302
    Total Points           =          41610
    Total Blocks           =            385
    Max Points             =            253
    Max Functions          =             36
    Weights Tolerance      =       1.00E-15

  -Total Gradient:
     Atom            X                  Y                   Z
    ------   -----------------  -----------------  -----------------
       1        0.000000000000     0.000000000000    -0.000013025666
       2        0.000000000000    -0.000000000000     0.000031274520

*** tstop() called on Joses-MacBook-Pro-2.local at Thu Jul 17 15:41:30 2025
Module time:
	user time   =       2.31 seconds =       0.04 minutes
	system time =       1.10 seconds =       0.02 minutes
	total time  =          0 seconds =       0.00 minutes
Total time:
	user time   =     211.23 seconds =       3.52 minutes
	system time =      53.99 seconds =       0.90 minutes
	total time  =         25 seconds =       0.42 minutes

    			-----------------------------------------

    			 OPTKING 3.0: for geometry optimizations

    			     By R.A. King, Bethel University

    			        with contributions from

    			    A.V. Copan, J. Cayton, A. Heide

    			-----------------------------------------

	                            ===> Fragment 1 <==

	 Z (Atomic Numbers)          Masses                          Geom
	      14.000000            27.976927          0.00000000  0.00000000  2.24877116
	      16.000000            31.972071          0.00000000  0.00000000 -1.96777072

	 - Coordinate -           - BOHR/RAD -       - ANG/DEG -
	 R(1,2)           =         4.216542           2.231298

	        --- Internal Coordinate Step in ANG or DEG, aJ/ANG or AJ/DEG ---
	-------------------------------------------------------------------------------
	           Coordinate      Previous         Force          Change          New
	           ----------      --------        ------          ------        ------
	               R(1,2)       2.23130        0.00018        0.00015       2.23144
	-------------------------------------------------------------------------------

	                                 ==> Convergence Check <==

	Measures of convergence in internal coordinates in au.

	Criteria marked as inactive (o), active & met (*), and active & unmet ( ).

	----------------------------------------------------------------------------------------------
	   Step    Total Energy     Delta E     Max Force     RMS Force      Max Disp      RMS Disp
	----------------------------------------------------------------------------------------------
	  Convergence Criteria     1.00e-06 *    3.00e-04 *             o    1.20e-03 *             o
	----------------------------------------------------------------------------------------------
	    17    -687.25241500   -1.26e-07 *    2.22e-05 *    2.22e-05 o    2.74e-04 *    2.74e-04 o  ~
	----------------------------------------------------------------------------------------------

Next Geometry in Ang
	Fragment 1 (Ang)

	   Si   0.0000000000   0.0000000000   1.1900710229
	    S   0.0000000000   0.0000000000  -1.0413719941

    Final optimized geometry and variables:
    Molecular point group: c2v
    Full point group: C_inf_v

    Geometry (in Angstrom), charge = 1, multiplicity = 4:

    SI           0.000000000000     0.000000000000     1.189998450885
    S            0.000000000000     0.000000000000    -1.041299422085

    Psi4 stopped on: Thursday, 17 July 2025 03:41PM
    Psi4 wall time for execution: 0:00:25.69

*** Psi4 exiting successfully. Buy a developer a beer!
