                               Psi4 1.9.1 release

  ==> Input File <==

--------------------------------------------------------------------------
molecule {
1 4
Li   0.00000        0.60000        0.00000
Al   0.00000       -0.60000        0.00000
}

set {
basis              cc-pvdz
reference          uks
maxiter            500
geom_maxiter       500
DAMPING_PERCENTAGE 1
guess              SAP
}

optimize('b3lyp')
--------------------------------------------------------------------------

    Molecular point group: c2v
  Charge       = 1
  Multiplicity = 4
  Basis Set: CC-PVDZ
    Blend: CC-PVDZ
  Basis Set: (CC-PVDZ AUX)
    Blend: CC-PVDZ-JKFIT + DEF2-UNIVERSAL-JKFIT
  @DF-UKS Final Energy:  -249.16854148650899
    Total Energy =                       -249.1685414865089570
 Dipole X            :          0.0000000            0.0000000            0.0000000
 Dipole Y            :          0.0000000            0.0000000            0.0000000
 Dipole Z            :          0.9202239           -0.6845814            0.2356425
 Magnitude           :                                                    0.2356425
    Molecular point group: c2v
  Basis Set: CC-PVDZ
    Blend: CC-PVDZ
  Basis Set: (CC-PVDZ AUX)
    Blend: CC-PVDZ-JKFIT + DEF2-UNIVERSAL-JKFIT
  Basis Set: CC-PVDZ
    Blend: CC-PVDZ
  Basis Set: (CC-PVDZ AUX)
    Blend: CC-PVDZ-JKFIT + DEF2-UNIVERSAL-JKFIT
  @DF-UKS Final Energy:  -249.22893975692992
    Total Energy =                       -249.2289397569299183
  Basis Set: CC-PVDZ
    Blend: CC-PVDZ
  Basis Set: (CC-PVDZ AUX)
    Blend: CC-PVDZ-JKFIT + DEF2-UNIVERSAL-JKFIT
  Basis Set: CC-PVDZ
    Blend: CC-PVDZ
  @DF-UKS Final Energy:  -249.30267927964425
    Total Energy =                       -249.3026792796442237
  @DF-UKS Final Energy:  -249.40056760607362
    Total Energy =                       -249.4005676060736505
  @DF-UKS Final Energy:  -249.46050772497480
    Total Energy =                       -249.4605077249747751
  @DF-UKS Final Energy:  -249.49271237758279
    Total Energy =                       -249.4927123775827909
  @DF-UKS Final Energy:  -249.50884332205601
    Total Energy =                       -249.5088433220560091
  @DF-UKS Final Energy:  -249.51679992032066
    Total Energy =                       -249.5167999203206648
  @DF-UKS Final Energy:  -249.52062133163011
    Total Energy =                       -249.5206213316300818
  @DF-UKS Final Energy:  -249.52237271922417
    Total Energy =                       -249.5223727192241654
  @DF-UKS Final Energy:  -249.52312532693620
    Total Energy =                       -249.5231253269362242
  @DF-UKS Final Energy:  -249.52342330446049
    Total Energy =                       -249.5234233044604935
  @DF-UKS Final Energy:  -249.52353002048267
    Total Energy =                       -249.5235300204826672
  @DF-UKS Final Energy:  -249.52355646090896
    Total Energy =                       -249.5235564609089636
  @DF-UKS Final Energy:  -249.52356756145056
    Total Energy =                       -249.5235675614505624
  Basis Set: (CC-PVDZ AUX)
    Blend: CC-PVDZ-JKFIT + DEF2-UNIVERSAL-JKFIT
  Basis Set: CC-PVDZ
    Blend: CC-PVDZ
  Basis Set: (CC-PVDZ AUX)
    Blend: CC-PVDZ-JKFIT + DEF2-UNIVERSAL-JKFIT
  @DF-UKS Final Energy:  -249.52357045759979
    Total Energy =                       -249.5235704575997886
  Basis Set: CC-PVDZ
    Blend: CC-PVDZ
  Basis Set: (CC-PVDZ AUX)
    Blend: CC-PVDZ-JKFIT + DEF2-UNIVERSAL-JKFIT
  Charge       = 1
  Multiplicity = 4
  Basis Set: CC-PVDZ
    Blend: CC-PVDZ
  Basis Set: (CC-PVDZ AUX)
    Blend: CC-PVDZ-JKFIT + DEF2-UNIVERSAL-JKFIT

    Orbital Energies [Eh]
    ---------------------

    Alpha Occupied:

       1A1   -56.287169     2A1    -4.366876     3A1    -2.922605
       1B2    -2.918416     1B1    -2.918416     4A1    -2.334084
       5A1    -0.536895     2B1    -0.317917     2B2    -0.317917

    Alpha Virtual:

       6A1    -0.304003     7A1    -0.223541     3B2    -0.183685
       3B1    -0.183685     8A1    -0.137694     9A1    -0.082459
       4B1    -0.064205     4B2    -0.064205    10A1    -0.047380
       5B2     0.014186     5B1     0.014186    11A1     0.025456
      12A1     0.042559     1A2     0.042560     6B1     0.061907
       6B2     0.061907    13A1     0.085236     2A2     0.085237
      14A1     0.092630    15A1     0.143032     7B2     0.170924
       7B1     0.170924    16A1     0.280054

    Beta Occupied:

       1A1   -56.278077     2A1    -4.353704     3A1    -2.914846
       1B2    -2.903168     1B1    -2.903168     4A1    -2.333714

    Beta Virtual:

       5A1    -0.379003     6A1    -0.268002     7A1    -0.207461
       2B1    -0.195917     2B2    -0.195917     3B1    -0.151368
       3B2    -0.151368     8A1    -0.116735     9A1    -0.066323
       4B1    -0.060424     4B2    -0.060424    10A1    -0.043923
      11A1     0.051797     5B2     0.052850     5B1     0.052850
      12A1     0.061450     1A2     0.061452     6B1     0.121380
       6B2     0.121380    13A1     0.145016    14A1     0.166730
       2A2     0.185945    15A1     0.185951     7B2     0.221476
       7B1     0.221476    16A1     0.314078

    Final Occupation by Irrep:
             A1    A2    B1    B2
    DOCC [     4,    0,    1,    1 ]
    SOCC [     1,    0,    1,    1 ]
    NA   [     5,    0,    2,    2 ]
    NB   [     4,    0,    1,    1 ]

  @DF-UKS Final Energy:  -249.52357133985009

   => Energetics <=

    Nuclear Repulsion Energy =              6.1276942167460140
    One-Electron Energy =                -355.0343029042235230
    Two-Electron Energy =                 115.7175458354115278
    DFT Exchange-Correlation Energy =     -16.3345084877841273
    Empirical Dispersion Energy =           0.0000000000000000
    VV10 Nonlocal Energy =                  0.0000000000000000
    Total Energy =                       -249.5235713398500934

  UHF NO Occupations:
  HONO-2 :    5 A1 1.0000000
  HONO-1 :    2 B1 1.0000000
  HONO-0 :    2 B2 1.0000000
  LUNO+0 :    6 A1 0.0000009
  LUNO+1 :    7 A1 0.0000003
  LUNO+2 :    3 B2 0.0000002
  LUNO+3 :    3 B1 0.0000002

Computation Completed

Properties will be evaluated at   0.000000,   0.000000,   0.000000 [a0]

Properties computed using the SCF density matrix

 Multipole Moments:

 ------------------------------------------------------------------------------------
     Multipole            Electronic (a.u.)      Nuclear  (a.u.)        Total (a.u.)
 ------------------------------------------------------------------------------------

 L = 1.  Multiply by 2.5417464519 to convert [e a0] to [Debye]
 Dipole X            :          0.0000000            0.0000000            0.0000000
 Dipole Y            :          0.0000000            0.0000000            0.0000000
 Dipole Z            :          5.7641192           -1.9213766            3.8427427
 Magnitude           :                                                    3.8427427

 ------------------------------------------------------------------------------------

*** tstop() called on Joses-MacBook-Pro-2.local at Thu Jul 17 12:53:22 2025
Module time:
	user time   =       3.05 seconds =       0.05 minutes
	system time =       2.66 seconds =       0.04 minutes
	total time  =          0 seconds =       0.00 minutes
Total time:
	user time   =      81.37 seconds =       1.36 minutes
	system time =      80.08 seconds =       1.33 minutes
	total time  =         16 seconds =       0.27 minutes

*** tstart() called on Joses-MacBook-Pro-2.local
*** at Thu Jul 17 12:53:22 2025

         ------------------------------------------------------------
                                   SCF GRAD
                          Rob Parrish, Justin Turney,
                       Andy Simmonett, and Alex Sokolov
         ------------------------------------------------------------

  ==> Geometry <==

    Molecular point group: c2v
    Full point group: C_inf_v

    Geometry (in Angstrom), charge = 1, multiplicity = 4:

       Center              X                  Y                   Z               Mass
    ------------   -----------------  -----------------  -----------------  -----------------
         LI           0.000000000000     0.000000000000     2.672931606326     7.016003436600
         AL           0.000000000000     0.000000000000    -0.695041808492    26.981538530000

  Nuclear repulsion =    6.127694216746014

  ==> Basis Set <==

  Basis Set: CC-PVDZ
    Blend: CC-PVDZ
    Number of shells: 14
    Number of basis functions: 32
    Number of Cartesian functions: 34
    Spherical Harmonics?: true
    Max angular momentum: 2

  ==> DFJKGrad: Density-Fitted SCF Gradients <==

    Gradient:                    1
    J tasked:                  Yes
    K tasked:                  Yes
    wK tasked:                  No
    OpenMP threads:              1
    Integrals threads:           1
    Memory [MiB]:              375
    Schwarz Cutoff:          1E-12
    Fitting Condition:       1E-10

   => Auxiliary Basis Set <=

  Basis Set: (CC-PVDZ AUX)
    Blend: CC-PVDZ-JKFIT + DEF2-UNIVERSAL-JKFIT
    Number of shells: 53
    Number of basis functions: 163
    Number of Cartesian functions: 190
    Spherical Harmonics?: true
    Max angular momentum: 3

  ==> DFT Potential <==

   => LibXC <=

    Version 6.2.2
    S. Lehtola, C. Steigemann, M. J.T. Oliveira, and M. A.L. Marques.,  SoftwareX 7, 1â€“5 (2018) (10.1016/j.softx.2017.11.002)

   => Composite Functional: B3LYP <=

    B3LYP Hyb-GGA Exchange-Correlation Functional

    P. J. Stephens, F. J. Devlin, C. F. Chabalowski, and M. J. Frisch.,  J. Phys. Chem. 98, 11623 (1994) (10.1021/j100096a001)

    Deriv               =              1
    GGA                 =           TRUE
    Meta                =          FALSE

    Exchange Hybrid     =           TRUE
    MP2 Hybrid          =          FALSE

   => Exchange Functionals <=

    0.0800   Slater exchange
    0.7200         Becke 88

   => Exact (HF) Exchange <=

    0.2000               HF

   => Correlation Functionals <=

    0.1900   Vosko, Wilk & Nusair (VWN5_RPA)
    0.8100   Lee, Yang & Parr

   => LibXC Density Thresholds  <==

    XC_HYB_GGA_XC_B3LYP:  1.00E-15

   => Molecular Quadrature <=

    Radial Scheme          =       TREUTLER
    Pruning Scheme         =           NONE
    Nuclear Scheme         =       TREUTLER

    Blocking Scheme        =         OCTREE
    BS radius alpha        =              1
    Pruning alpha          =              1
    Radial Points          =             75
    Spherical Points       =            302
    Total Points           =          44347
    Total Blocks           =            456
    Max Points             =            256
    Max Functions          =             32
    Weights Tolerance      =       1.00E-15

  -Total Gradient:
     Atom            X                  Y                   Z
    ------   -----------------  -----------------  -----------------
       1        0.000000000000     0.000000000000    -0.000023358994
       2        0.000000000000     0.000000000000     0.000034215872

*** tstop() called on Joses-MacBook-Pro-2.local at Thu Jul 17 12:53:23 2025
Module time:
	user time   =       1.12 seconds =       0.02 minutes
	system time =       1.49 seconds =       0.02 minutes
	total time  =          1 seconds =       0.02 minutes
Total time:
	user time   =      82.49 seconds =       1.37 minutes
	system time =      81.57 seconds =       1.36 minutes
	total time  =         17 seconds =       0.28 minutes

    			-----------------------------------------

    			 OPTKING 3.0: for geometry optimizations

    			     By R.A. King, Bethel University

    			        with contributions from

    			    A.V. Copan, J. Cayton, A. Heide

    			-----------------------------------------

	                            ===> Fragment 1 <==

	 Z (Atomic Numbers)          Masses                          Geom
	       3.000000             7.016003          0.00000000  0.00000000  5.05110869
	      13.000000            26.981539          0.00000000  0.00000000 -1.31343866

	 - Coordinate -           - BOHR/RAD -       - ANG/DEG -
	 R(1,2)           =         6.364547           3.367973

	        --- Internal Coordinate Step in ANG or DEG, aJ/ANG or AJ/DEG ---
	-------------------------------------------------------------------------------
	           Coordinate      Previous         Force          Change          New
	           ----------      --------        ------          ------        ------
	               R(1,2)       3.36797        0.00024        0.01380       3.38177
	-------------------------------------------------------------------------------

	                                 ==> Convergence Check <==

	Measures of convergence in internal coordinates in au.

	Criteria marked as inactive (o), active & met (*), and active & unmet ( ).

	----------------------------------------------------------------------------------------------
	   Step    Total Energy     Delta E     Max Force     RMS Force      Max Disp      RMS Disp
	----------------------------------------------------------------------------------------------
	  Convergence Criteria     1.00e-06 *    3.00e-04 *             o    1.20e-03 *             o
	----------------------------------------------------------------------------------------------
	    17    -249.52357134   -8.82e-07 *    2.88e-05 *    2.88e-05 o    2.61e-02      2.61e-02 o  ~
	----------------------------------------------------------------------------------------------

Next Geometry in Ang
	Fragment 1 (Ang)

	   Li   0.0000000000   0.0000000000   2.6798295030
	   Al   0.0000000000   0.0000000000  -0.7019397052

    Final optimized geometry and variables:
    Molecular point group: c2v
    Full point group: C_inf_v

    Geometry (in Angstrom), charge = 1, multiplicity = 4:

    LI           0.000000000000     0.000000000000     2.672931606326
    AL           0.000000000000     0.000000000000    -0.695041808492

    Psi4 stopped on: Thursday, 17 July 2025 12:53PM
    Psi4 wall time for execution: 0:00:17.50

*** Psi4 exiting successfully. Buy a developer a beer!
