                               Psi4 1.9.1 release

  ==> Input File <==

--------------------------------------------------------------------------
molecule {
1 4
N   0.00000        0.60000        0.00000
Na   0.00000       -0.60000        0.00000
}

set {
basis              cc-pvdz
reference          uks
maxiter            500
geom_maxiter       500
DAMPING_PERCENTAGE 1
guess              SAP
}

optimize('b3lyp')
--------------------------------------------------------------------------

    Molecular point group: c2v
  Charge       = 1
  Multiplicity = 4
  Basis Set: CC-PVDZ
    Blend: CC-PVDZ
  Basis Set: (CC-PVDZ AUX)
    Blend: CC-PVDZ-JKFIT + DEF2-UNIVERSAL-JKFIT
  @DF-UKS Final Energy:  -216.12424589981057
    Total Energy =                       -216.1242458998105747
 Dipole X            :          0.0000000            0.0000000            0.0000000
 Dipole Y            :          0.0000000            0.0000000            0.0000000
 Dipole Z            :         -1.5105045            0.4226391           -1.0878654
 Magnitude           :                                                    1.0878654
    Molecular point group: c2v
  Basis Set: CC-PVDZ
    Blend: CC-PVDZ
  Basis Set: (CC-PVDZ AUX)
    Blend: CC-PVDZ-JKFIT + DEF2-UNIVERSAL-JKFIT
  Basis Set: CC-PVDZ
    Blend: CC-PVDZ
  Basis Set: (CC-PVDZ AUX)
    Blend: CC-PVDZ-JKFIT + DEF2-UNIVERSAL-JKFIT
  @DF-UKS Final Energy:  -216.35192549181687
    Total Energy =                       -216.3519254918168713
  Basis Set: CC-PVDZ
    Blend: CC-PVDZ
  Basis Set: (CC-PVDZ AUX)
    Blend: CC-PVDZ-JKFIT + DEF2-UNIVERSAL-JKFIT
  Basis Set: CC-PVDZ
    Blend: CC-PVDZ
  @DF-UKS Final Energy:  -216.51175708652406
    Total Energy =                       -216.5117570865240566
  @DF-UKS Final Energy:  -216.60318934182615
    Total Energy =                       -216.6031893418261518
  @DF-UKS Final Energy:  -216.64724295056911
    Total Energy =                       -216.6472429505691082
  @DF-UKS Final Energy:  -216.66927865495873
    Total Energy =                       -216.6692786549587311
  @DF-UKS Final Energy:  -216.68005982368078
    Total Energy =                       -216.6800598236807787
  @DF-UKS Final Energy:  -216.68524358883428
    Total Energy =                       -216.6852435888342825
  @DF-UKS Final Energy:  -216.68759952581223
    Total Energy =                       -216.6875995258122316
  @DF-UKS Final Energy:  -216.68853973927816
    Total Energy =                       -216.6885397392781556
  @DF-UKS Final Energy:  -216.68877930968225
    Total Energy =                       -216.6887793096822179
  @DF-UKS Final Energy:  -216.68887002700797
    Total Energy =                       -216.6888700270079653
  @DF-UKS Final Energy:  -216.68888714773757
    Total Energy =                       -216.6888871477375744
  @DF-UKS Final Energy:  -216.68889083284316
    Total Energy =                       -216.6888908328431569
  Basis Set: (CC-PVDZ AUX)
    Blend: CC-PVDZ-JKFIT + DEF2-UNIVERSAL-JKFIT
  Basis Set: CC-PVDZ
    Blend: CC-PVDZ
  Basis Set: (CC-PVDZ AUX)
    Blend: CC-PVDZ-JKFIT + DEF2-UNIVERSAL-JKFIT
  @DF-UKS Final Energy:  -216.68889193318327
    Total Energy =                       -216.6888919331832710
  Basis Set: CC-PVDZ
    Blend: CC-PVDZ
  Basis Set: (CC-PVDZ AUX)
    Blend: CC-PVDZ-JKFIT + DEF2-UNIVERSAL-JKFIT
  Charge       = 1
  Multiplicity = 4
  Basis Set: CC-PVDZ
    Blend: CC-PVDZ
  Basis Set: (CC-PVDZ AUX)
    Blend: CC-PVDZ-JKFIT + DEF2-UNIVERSAL-JKFIT

    Orbital Energies [Eh]
    ---------------------

    Alpha Occupied:

       1A1   -38.761970     2A1   -14.649420     3A1    -2.499915
       1B2    -1.431119     1B1    -1.431119     4A1    -1.431073
       5A1    -1.011661     6A1    -0.560518     2B2    -0.551166
       2B1    -0.551166

    Alpha Virtual:

       7A1    -0.243109     3B1    -0.148015     3B2    -0.148015
       8A1    -0.134458     9A1    -0.066708     4B1    -0.046772
       4B2    -0.046772    10A1    -0.044082     5B2     0.007848
       5B1     0.007848    11A1     0.011227     1A2     0.011227
      12A1     0.055351     6B2     0.524926     6B1     0.524926
      13A1     0.546302    14A1     0.920639     2A2     1.475403
      15A1     1.475483    16A1     1.483959     7B1     1.484796
       7B2     1.484796

    Beta Occupied:

       1A1   -38.761861     2A1   -14.592707     3A1    -2.499729
       1B2    -1.431038     1B1    -1.431038     4A1    -1.430844
       5A1    -0.816365

    Beta Virtual:

       6A1    -0.324591     2B2    -0.300482     2B1    -0.300482
       7A1    -0.233102     3B1    -0.143450     3B2    -0.143450
       8A1    -0.126958     9A1    -0.062569     4B1    -0.046534
       4B2    -0.046534    10A1    -0.036078     1A2     0.009216
      11A1     0.009216     5B2     0.016667     5B1     0.016667
      12A1     0.070318     6B2     0.625185     6B1     0.625185
      13A1     0.648143    14A1     1.006243     2A2     1.623200
      15A1     1.623294    16A1     1.628485     7B1     1.630188
       7B2     1.630188

    Final Occupation by Irrep:
             A1    A2    B1    B2
    DOCC [     5,    0,    1,    1 ]
    SOCC [     1,    0,    1,    1 ]
    NA   [     6,    0,    2,    2 ]
    NB   [     5,    0,    1,    1 ]

  @DF-UKS Final Energy:  -216.68889211869245

   => Energetics <=

    Nuclear Repulsion Energy =             15.1513475759856107
    One-Electron Energy =                -327.6660030835444104
    Two-Electron Energy =                 112.8216080490455226
    DFT Exchange-Correlation Energy =     -16.9958446601791664
    Empirical Dispersion Energy =           0.0000000000000000
    VV10 Nonlocal Energy =                  0.0000000000000000
    Total Energy =                       -216.6888921186924506

  UHF NO Occupations:
  HONO-2 :    2 B1 1.0000000
  HONO-1 :    6 A1 1.0000000
  HONO-0 :    2 B2 1.0000000
  LUNO+0 :    7 A1 0.0014982
  LUNO+1 :    8 A1 0.0000005
  LUNO+2 :    9 A1 0.0000001
  LUNO+3 :    3 B1 0.0000000

Computation Completed

Properties will be evaluated at   0.000000,   0.000000,   0.000000 [a0]

Properties computed using the SCF density matrix

 Multipole Moments:

 ------------------------------------------------------------------------------------
     Multipole            Electronic (a.u.)      Nuclear  (a.u.)        Total (a.u.)
 ------------------------------------------------------------------------------------

 L = 1.  Multiply by 2.5417464519 to convert [e a0] to [Debye]
 Dipole X            :          0.0000000            0.0000000            0.0000000
 Dipole Y            :          0.0000000            0.0000000            0.0000000
 Dipole Z            :         -2.5966130            0.9471723           -1.6494407
 Magnitude           :                                                    1.6494407

 ------------------------------------------------------------------------------------

*** tstop() called on Joses-MacBook-Pro-2.local at Thu Jul 17 13:53:26 2025
Module time:
	user time   =       1.46 seconds =       0.02 minutes
	system time =       3.37 seconds =       0.06 minutes
	total time  =          1 seconds =       0.02 minutes
Total time:
	user time   =      42.88 seconds =       0.71 minutes
	system time =     113.00 seconds =       1.88 minutes
	total time  =         16 seconds =       0.27 minutes

*** tstart() called on Joses-MacBook-Pro-2.local
*** at Thu Jul 17 13:53:26 2025

         ------------------------------------------------------------
                                   SCF GRAD
                          Rob Parrish, Justin Turney,
                       Andy Simmonett, and Alex Sokolov
         ------------------------------------------------------------

  ==> Geometry <==

    Molecular point group: c2v
    Full point group: C_inf_v

    Geometry (in Angstrom), charge = 1, multiplicity = 4:

       Center              X                  Y                   Z               Mass
    ------------   -----------------  -----------------  -----------------  -----------------
         N            0.000000000000     0.000000000000     1.671311867484    14.003074004430
         NA           0.000000000000     0.000000000000    -1.017996460851    22.989769282000

  Nuclear repulsion =   15.151347575985611

  ==> Basis Set <==

  Basis Set: CC-PVDZ
    Blend: CC-PVDZ
    Number of shells: 14
    Number of basis functions: 32
    Number of Cartesian functions: 34
    Spherical Harmonics?: true
    Max angular momentum: 2

  ==> DFJKGrad: Density-Fitted SCF Gradients <==

    Gradient:                    1
    J tasked:                  Yes
    K tasked:                  Yes
    wK tasked:                  No
    OpenMP threads:              1
    Integrals threads:           1
    Memory [MiB]:              375
    Schwarz Cutoff:          1E-12
    Fitting Condition:       1E-10

   => Auxiliary Basis Set <=

  Basis Set: (CC-PVDZ AUX)
    Blend: CC-PVDZ-JKFIT + DEF2-UNIVERSAL-JKFIT
    Number of shells: 58
    Number of basis functions: 182
    Number of Cartesian functions: 218
    Spherical Harmonics?: true
    Max angular momentum: 4

  ==> DFT Potential <==

   => LibXC <=

    Version 6.2.2
    S. Lehtola, C. Steigemann, M. J.T. Oliveira, and M. A.L. Marques.,  SoftwareX 7, 1â€“5 (2018) (10.1016/j.softx.2017.11.002)

   => Composite Functional: B3LYP <=

    B3LYP Hyb-GGA Exchange-Correlation Functional

    P. J. Stephens, F. J. Devlin, C. F. Chabalowski, and M. J. Frisch.,  J. Phys. Chem. 98, 11623 (1994) (10.1021/j100096a001)

    Deriv               =              1
    GGA                 =           TRUE
    Meta                =          FALSE

    Exchange Hybrid     =           TRUE
    MP2 Hybrid          =          FALSE

   => Exchange Functionals <=

    0.0800   Slater exchange
    0.7200         Becke 88

   => Exact (HF) Exchange <=

    0.2000               HF

   => Correlation Functionals <=

    0.1900   Vosko, Wilk & Nusair (VWN5_RPA)
    0.8100   Lee, Yang & Parr

   => LibXC Density Thresholds  <==

    XC_HYB_GGA_XC_B3LYP:  1.00E-15

   => Molecular Quadrature <=

    Radial Scheme          =       TREUTLER
    Pruning Scheme         =           NONE
    Nuclear Scheme         =       TREUTLER

    Blocking Scheme        =         OCTREE
    BS radius alpha        =              1
    Pruning alpha          =              1
    Radial Points          =             75
    Spherical Points       =            302
    Total Points           =          43824
    Total Blocks           =            423
    Max Points             =            255
    Max Functions          =             32
    Weights Tolerance      =       1.00E-15

  -Total Gradient:
     Atom            X                  Y                   Z
    ------   -----------------  -----------------  -----------------
       1        0.000000000000     0.000000000000    -0.000009138726
       2        0.000000000000     0.000000000000     0.000001412201

*** tstop() called on Joses-MacBook-Pro-2.local at Thu Jul 17 13:53:26 2025
Module time:
	user time   =       0.75 seconds =       0.01 minutes
	system time =       1.82 seconds =       0.03 minutes
	total time  =          0 seconds =       0.00 minutes
Total time:
	user time   =      43.63 seconds =       0.73 minutes
	system time =     114.82 seconds =       1.91 minutes
	total time  =         16 seconds =       0.27 minutes

    			-----------------------------------------

    			 OPTKING 3.0: for geometry optimizations

    			     By R.A. King, Bethel University

    			        with contributions from

    			    A.V. Copan, J. Cayton, A. Heide

    			-----------------------------------------

	                            ===> Fragment 1 <==

	 Z (Atomic Numbers)          Masses                          Geom
	       7.000000            14.003074          0.00000000  0.00000000  3.15832170
	      11.000000            22.989769          0.00000000  0.00000000 -1.92373451

	 - Coordinate -           - BOHR/RAD -       - ANG/DEG -
	 R(1,2)           =         5.082056           2.689308

	        --- Internal Coordinate Step in ANG or DEG, aJ/ANG or AJ/DEG ---
	-------------------------------------------------------------------------------
	           Coordinate      Previous         Force          Change          New
	           ----------      --------        ------          ------        ------
	               R(1,2)       2.68931        0.00004        0.00035       2.68966
	-------------------------------------------------------------------------------

	                                 ==> Convergence Check <==

	Measures of convergence in internal coordinates in au.

	Criteria marked as inactive (o), active & met (*), and active & unmet ( ).

	----------------------------------------------------------------------------------------------
	   Step    Total Energy     Delta E     Max Force     RMS Force      Max Disp      RMS Disp
	----------------------------------------------------------------------------------------------
	  Convergence Criteria     1.00e-06 *    3.00e-04 *             o    1.20e-03 *             o
	----------------------------------------------------------------------------------------------
	    16    -216.68889212   -1.86e-07 *    5.28e-06 *    5.28e-06 o    6.58e-04 *    6.58e-04 o  ~
	----------------------------------------------------------------------------------------------

Next Geometry in Ang
	Fragment 1 (Ang)

	    N   0.0000000000   0.0000000000   1.6714858397
	   Na   0.0000000000   0.0000000000  -1.0181704330

    Final optimized geometry and variables:
    Molecular point group: c2v
    Full point group: C_inf_v

    Geometry (in Angstrom), charge = 1, multiplicity = 4:

    N            0.000000000000     0.000000000000     1.671311867484
    NA           0.000000000000     0.000000000000    -1.017996460851

    Psi4 stopped on: Thursday, 17 July 2025 01:53PM
    Psi4 wall time for execution: 0:00:17.13

*** Psi4 exiting successfully. Buy a developer a beer!
