                               Psi4 1.9.1 release

  ==> Input File <==

--------------------------------------------------------------------------
molecule {
1 4
Al   0.00000        0.60000        0.00000
P   0.00000       -0.60000        0.00000
}

set {
basis              cc-pvdz
reference          uks
maxiter            500
geom_maxiter       500
DAMPING_PERCENTAGE 1
guess              SAP
}

optimize('b3lyp')
--------------------------------------------------------------------------

    Molecular point group: c2v
  Charge       = 1
  Multiplicity = 4
  Basis Set: CC-PVDZ
    Blend: CC-PVDZ
  Basis Set: (CC-PVDZ AUX)
    Blend: CC-PVDZ-JKFIT
  @DF-UKS Final Energy:  -582.18544616784936
    Total Energy =                       -582.1854461678493635
 Dipole X            :          0.0000000            0.0000000            0.0000000
 Dipole Y            :          0.0000000            0.0000000            0.0000000
 Dipole Z            :          0.1130645           -0.0807668            0.0322977
 Magnitude           :                                                    0.0322977
    Molecular point group: c2v
  Basis Set: CC-PVDZ
    Blend: CC-PVDZ
  Basis Set: (CC-PVDZ AUX)
    Blend: CC-PVDZ-JKFIT
  Basis Set: CC-PVDZ
    Blend: CC-PVDZ
  Basis Set: (CC-PVDZ AUX)
    Blend: CC-PVDZ-JKFIT
  @DF-UKS Final Energy:  -582.20756285511402
    Total Energy =                       -582.2075628551140198
  Basis Set: CC-PVDZ
    Blend: CC-PVDZ
  Basis Set: (CC-PVDZ AUX)
    Blend: CC-PVDZ-JKFIT
  Basis Set: CC-PVDZ
    Blend: CC-PVDZ
  @DF-UKS Final Energy:  -582.25003483006435
    Total Energy =                       -582.2500348300643509
  @DF-UKS Final Energy:  -582.40154596007801
    Total Energy =                       -582.4015459600782378
  @DF-UKS Final Energy:  -582.97812920970762
    Total Energy =                       -582.9781292097076175
  @DF-UKS Final Energy:  -583.19119058207070
    Total Energy =                       -583.1911905820707034
  @DF-UKS Final Energy:  -583.35357587982890
    Total Energy =                       -583.3535758798288953
  @DF-UKS Final Energy:  -583.43165402899785
    Total Energy =                       -583.4316540289977411
  @DF-UKS Final Energy:  -583.44902009337238
    Total Energy =                       -583.4490200933722690
  @DF-UKS Final Energy:  -583.45797290608334
    Total Energy =                       -583.4579729060833415
  @DF-UKS Final Energy:  -583.46050070743979
    Total Energy =                       -583.4605007074397918
  @DF-UKS Final Energy:  -583.46162638998385
    Total Energy =                       -583.4616263899838486
  @DF-UKS Final Energy:  -583.46203453314934
    Total Energy =                       -583.4620345331492217
  @DF-UKS Final Energy:  -583.46210984512595
    Total Energy =                       -583.4621098451258376
  @DF-UKS Final Energy:  -583.46212563071617
    Total Energy =                       -583.4621256307161730
  Basis Set: (CC-PVDZ AUX)
    Blend: CC-PVDZ-JKFIT
  Basis Set: CC-PVDZ
    Blend: CC-PVDZ
  Basis Set: (CC-PVDZ AUX)
    Blend: CC-PVDZ-JKFIT
  @DF-UKS Final Energy:  -583.46212958740807
    Total Energy =                       -583.4621295874080715
  Basis Set: CC-PVDZ
    Blend: CC-PVDZ
  Basis Set: (CC-PVDZ AUX)
    Blend: CC-PVDZ-JKFIT
  Charge       = 1
  Multiplicity = 4
  Basis Set: CC-PVDZ
    Blend: CC-PVDZ
  Basis Set: (CC-PVDZ AUX)
    Blend: CC-PVDZ-JKFIT

    Orbital Energies [Eh]
    ---------------------

    Alpha Occupied:

       1A1   -77.347166     2A1   -56.353305     3A1    -6.814407
       1B1    -4.977910     1B2    -4.977910     4A1    -4.976458
       5A1    -4.427490     2B1    -2.980264     2B2    -2.980264
       6A1    -2.978819     7A1    -0.829221     8A1    -0.579392
       3B1    -0.475995     3B2    -0.475995     9A1    -0.462136

    Alpha Virtual:

       4B2    -0.284213     4B1    -0.284213    10A1    -0.206952
      11A1    -0.055604    12A1    -0.002797     5B2     0.004815
       5B1     0.004815     6B2     0.028754     6B1     0.028754
      13A1     0.036054     1A2     0.036054    14A1     0.094097
       7B1     0.214349     7B2     0.214349    15A1     0.224255
       2A2     0.224256    16A1     0.256824    17A1     0.279740
       8B1     0.338068     8B2     0.338068    18A1     0.592468

    Beta Occupied:

       1A1   -77.336298     2A1   -56.351676     3A1    -6.802885
       4A1    -4.961640     1B1    -4.959788     1B2    -4.959788
       5A1    -4.425206     2B1    -2.978563     2B2    -2.978563
       6A1    -2.974918     7A1    -0.732093     8A1    -0.537470

    Beta Virtual:

       9A1    -0.359810     3B2    -0.345452     3B1    -0.345452
       4B2    -0.258005     4B1    -0.258005    10A1    -0.173323
      11A1    -0.042080    12A1     0.017554     5B2     0.018427
       5B1     0.018427    13A1     0.048404     1A2     0.048404
       6B2     0.055558     6B1     0.055558    14A1     0.124852
       7B1     0.264539     7B2     0.264539    15A1     0.296677
       2A2     0.315411    16A1     0.315414    17A1     0.319095
       8B1     0.398613     8B2     0.398613    18A1     0.636684

    Final Occupation by Irrep:
             A1    A2    B1    B2
    DOCC [     8,    0,    2,    2 ]
    SOCC [     1,    0,    1,    1 ]
    NA   [     9,    0,    3,    3 ]
    NB   [     8,    0,    2,    2 ]

  @DF-UKS Final Energy:  -583.46213010058602

   => Energetics <=

    Nuclear Repulsion Energy =             40.4193754370947644
    One-Electron Energy =                -882.2667057764163019
    Two-Electron Energy =                 291.8714010580418972
    DFT Exchange-Correlation Energy =     -33.4862008193064469
    Empirical Dispersion Energy =           0.0000000000000000
    VV10 Nonlocal Energy =                  0.0000000000000000
    Total Energy =                       -583.4621301005860232

  UHF NO Occupations:
  HONO-2 :    3 B1 1.0000000
  HONO-1 :    3 B2 1.0000000
  HONO-0 :    9 A1 1.0000000
  LUNO+0 :   10 A1 0.0039857
  LUNO+1 :   11 A1 0.0001978
  LUNO+2 :    4 B1 0.0000002
  LUNO+3 :    4 B2 0.0000002

Computation Completed

Properties will be evaluated at   0.000000,   0.000000,   0.000000 [a0]

Properties computed using the SCF density matrix

 Multipole Moments:

 ------------------------------------------------------------------------------------
     Multipole            Electronic (a.u.)      Nuclear  (a.u.)        Total (a.u.)
 ------------------------------------------------------------------------------------

 L = 1.  Multiply by 2.5417464519 to convert [e a0] to [Debye]
 Dipole X            :          0.0000000            0.0000000            0.0000000
 Dipole Y            :          0.0000000            0.0000000            0.0000000
 Dipole Z            :          1.4655745           -0.1718295            1.2937450
 Magnitude           :                                                    1.2937450

 ------------------------------------------------------------------------------------

*** tstop() called on Joses-MacBook-Pro-2.local at Thu Jul 17 15:18:57 2025
Module time:
	user time   =       8.94 seconds =       0.15 minutes
	system time =       1.38 seconds =       0.02 minutes
	total time  =          1 seconds =       0.02 minutes
Total time:
	user time   =     436.21 seconds =       7.27 minutes
	system time =      63.91 seconds =       1.07 minutes
	total time  =         50 seconds =       0.83 minutes

*** tstart() called on Joses-MacBook-Pro-2.local
*** at Thu Jul 17 15:18:57 2025

         ------------------------------------------------------------
                                   SCF GRAD
                          Rob Parrish, Justin Turney,
                       Andy Simmonett, and Alex Sokolov
         ------------------------------------------------------------

  ==> Geometry <==

    Molecular point group: c2v
    Full point group: C_inf_v

    Geometry (in Angstrom), charge = 1, multiplicity = 4:

       Center              X                  Y                   Z               Mass
    ------------   -----------------  -----------------  -----------------  -----------------
         AL           0.000000000000     0.000000000000     1.364416429715    26.981538530000
         P            0.000000000000     0.000000000000    -1.188556122799    30.973761998420

  Nuclear repulsion =   40.419375437094764

  ==> Basis Set <==

  Basis Set: CC-PVDZ
    Blend: CC-PVDZ
    Number of shells: 16
    Number of basis functions: 36
    Number of Cartesian functions: 38
    Spherical Harmonics?: true
    Max angular momentum: 2

  ==> DFJKGrad: Density-Fitted SCF Gradients <==

    Gradient:                    1
    J tasked:                  Yes
    K tasked:                  Yes
    wK tasked:                  No
    OpenMP threads:              1
    Integrals threads:           1
    Memory [MiB]:              375
    Schwarz Cutoff:          1E-12
    Fitting Condition:       1E-10

   => Auxiliary Basis Set <=

  Basis Set: (CC-PVDZ AUX)
    Blend: CC-PVDZ-JKFIT
    Number of shells: 72
    Number of basis functions: 224
    Number of Cartesian functions: 260
    Spherical Harmonics?: true
    Max angular momentum: 3

  ==> DFT Potential <==

   => LibXC <=

    Version 6.2.2
    S. Lehtola, C. Steigemann, M. J.T. Oliveira, and M. A.L. Marques.,  SoftwareX 7, 1â€“5 (2018) (10.1016/j.softx.2017.11.002)

   => Composite Functional: B3LYP <=

    B3LYP Hyb-GGA Exchange-Correlation Functional

    P. J. Stephens, F. J. Devlin, C. F. Chabalowski, and M. J. Frisch.,  J. Phys. Chem. 98, 11623 (1994) (10.1021/j100096a001)

    Deriv               =              1
    GGA                 =           TRUE
    Meta                =          FALSE

    Exchange Hybrid     =           TRUE
    MP2 Hybrid          =          FALSE

   => Exchange Functionals <=

    0.0800   Slater exchange
    0.7200         Becke 88

   => Exact (HF) Exchange <=

    0.2000               HF

   => Correlation Functionals <=

    0.1900   Vosko, Wilk & Nusair (VWN5_RPA)
    0.8100   Lee, Yang & Parr

   => LibXC Density Thresholds  <==

    XC_HYB_GGA_XC_B3LYP:  1.00E-15

   => Molecular Quadrature <=

    Radial Scheme          =       TREUTLER
    Pruning Scheme         =           NONE
    Nuclear Scheme         =       TREUTLER

    Blocking Scheme        =         OCTREE
    BS radius alpha        =              1
    Pruning alpha          =              1
    Radial Points          =             75
    Spherical Points       =            302
    Total Points           =          42688
    Total Blocks           =            401
    Max Points             =            256
    Max Functions          =             36
    Weights Tolerance      =       1.00E-15

  -Total Gradient:
     Atom            X                  Y                   Z
    ------   -----------------  -----------------  -----------------
       1        0.000000000000    -0.000000000000    -0.000028634355
       2        0.000000000000     0.000000000000     0.000054340276

*** tstop() called on Joses-MacBook-Pro-2.local at Thu Jul 17 15:18:57 2025
Module time:
	user time   =       2.55 seconds =       0.04 minutes
	system time =       1.97 seconds =       0.03 minutes
	total time  =          0 seconds =       0.00 minutes
Total time:
	user time   =     438.77 seconds =       7.31 minutes
	system time =      65.88 seconds =       1.10 minutes
	total time  =         50 seconds =       0.83 minutes

    			-----------------------------------------

    			 OPTKING 3.0: for geometry optimizations

    			     By R.A. King, Bethel University

    			        with contributions from

    			    A.V. Copan, J. Cayton, A. Heide

    			-----------------------------------------

	                            ===> Fragment 1 <==

	 Z (Atomic Numbers)          Masses                          Geom
	      13.000000            26.981539          0.00000000  0.00000000  2.57837337
	      15.000000            30.973762          0.00000000  0.00000000 -2.24604556

	 - Coordinate -           - BOHR/RAD -       - ANG/DEG -
	 R(1,2)           =         4.824419           2.552973

	        --- Internal Coordinate Step in ANG or DEG, aJ/ANG or AJ/DEG ---
	-------------------------------------------------------------------------------
	           Coordinate      Previous         Force          Change          New
	           ----------      --------        ------          ------        ------
	               R(1,2)       2.55297        0.00034        0.00072       2.55369
	-------------------------------------------------------------------------------

	                                 ==> Convergence Check <==

	Measures of convergence in internal coordinates in au.

	Criteria marked as inactive (o), active & met (*), and active & unmet ( ).

	----------------------------------------------------------------------------------------------
	   Step    Total Energy     Delta E     Max Force     RMS Force      Max Disp      RMS Disp
	----------------------------------------------------------------------------------------------
	  Convergence Criteria     1.00e-06 *    3.00e-04 *             o    1.20e-03 *             o
	----------------------------------------------------------------------------------------------
	    17    -583.46213010   -5.13e-07 *    4.15e-05 *    4.15e-05 o    1.36e-03      1.36e-03 o  ~
	----------------------------------------------------------------------------------------------

Next Geometry in Ang
	Fragment 1 (Ang)

	   Al   0.0000000000   0.0000000000   1.3647752049
	    P   0.0000000000   0.0000000000  -1.1889148980

    Final optimized geometry and variables:
    Molecular point group: c2v
    Full point group: C_inf_v

    Geometry (in Angstrom), charge = 1, multiplicity = 4:

    AL           0.000000000000     0.000000000000     1.364416429715
    P            0.000000000000     0.000000000000    -1.188556122799

    Psi4 stopped on: Thursday, 17 July 2025 03:18PM
    Psi4 wall time for execution: 0:00:50.81

*** Psi4 exiting successfully. Buy a developer a beer!
