                               Psi4 1.9.1 release

  ==> Input File <==

--------------------------------------------------------------------------
molecule {
1 4
Li   0.00000        0.60000        0.00000
Na   0.00000       -0.60000        0.00000
}

set {
basis              cc-pvdz
reference          uks
maxiter            500
geom_maxiter       500
DAMPING_PERCENTAGE 1
guess              SAP
}

optimize('b3lyp')
--------------------------------------------------------------------------

    Molecular point group: c2v
  Charge       = 1
  Multiplicity = 4
  Basis Set: CC-PVDZ
    Blend: CC-PVDZ
  Basis Set: (CC-PVDZ AUX)
    Blend: DEF2-UNIVERSAL-JKFIT
  @DF-UKS Final Energy:  -167.94697402732169
    Total Energy =                       -167.9469740273216303
 Dipole X            :          0.0000000            0.0000000            0.0000000
 Dipole Y            :          0.0000000            0.0000000            0.0000000
 Dipole Z            :          0.7184885           -0.6202195            0.0982689
 Magnitude           :                                                    0.0982689
    Molecular point group: c2v
  Basis Set: CC-PVDZ
    Blend: CC-PVDZ
  Basis Set: (CC-PVDZ AUX)
    Blend: DEF2-UNIVERSAL-JKFIT
  Basis Set: CC-PVDZ
    Blend: CC-PVDZ
  Basis Set: (CC-PVDZ AUX)
    Blend: DEF2-UNIVERSAL-JKFIT
  @DF-UKS Final Energy:  -167.99958881784119
    Total Energy =                       -167.9995888178411576
  Basis Set: CC-PVDZ
    Blend: CC-PVDZ
  Basis Set: (CC-PVDZ AUX)
    Blend: DEF2-UNIVERSAL-JKFIT
  Basis Set: CC-PVDZ
    Blend: CC-PVDZ
  @DF-UKS Final Energy:  -168.06155474031462
    Total Energy =                       -168.0615547403146195
  @DF-UKS Final Energy:  -168.13984715697600
    Total Energy =                       -168.1398471569760034
  @DF-UKS Final Energy:  -168.19380602731187
    Total Energy =                       -168.1938060273118651
  @DF-UKS Final Energy:  -168.22624682419826
    Total Energy =                       -168.2262468241982560
  @DF-UKS Final Energy:  -168.24130014740985
    Total Energy =                       -168.2413001474098451
  @DF-UKS Final Energy:  -168.24646353525034
    Total Energy =                       -168.2464635352503421
  @DF-UKS Final Energy:  -168.24817069585117
    Total Energy =                       -168.2481706958511438
  @DF-UKS Final Energy:  -168.24891841343467
    Total Energy =                       -168.2489184134346658
  @DF-UKS Final Energy:  -168.24926830029437
    Total Energy =                       -168.2492683002943750
  @DF-UKS Final Energy:  -168.24967521357934
    Total Energy =                       -168.2496752135793372
  @DF-UKS Final Energy:  -168.25010238740876
    Total Energy =                       -168.2501023874087593
  Basis Set: (CC-PVDZ AUX)
    Blend: DEF2-UNIVERSAL-JKFIT
  Basis Set: CC-PVDZ
    Blend: CC-PVDZ
  Basis Set: (CC-PVDZ AUX)
    Blend: DEF2-UNIVERSAL-JKFIT
  @DF-UKS Final Energy:  -168.25010839623263
    Total Energy =                       -168.2501083962326334
  Basis Set: CC-PVDZ
    Blend: CC-PVDZ
  Basis Set: (CC-PVDZ AUX)
    Blend: DEF2-UNIVERSAL-JKFIT
  Charge       = 1
  Multiplicity = 4
  Basis Set: CC-PVDZ
    Blend: CC-PVDZ
  Basis Set: (CC-PVDZ AUX)
    Blend: DEF2-UNIVERSAL-JKFIT

    Orbital Energies [Eh]
    ---------------------

    Alpha Occupied:

       1A1   -39.940726     2A1    -3.227242     3A1    -2.274260
       1B2    -2.241980     4A1    -2.122727     1B1    -2.118926
       5A1    -0.420298     2B1    -0.275754

    Alpha Virtual:

       6A1    -0.265611     2B2    -0.231329     7A1    -0.189706
       3B1    -0.166444     3B2    -0.150742     8A1    -0.108659
       9A1    -0.082152     4B1    -0.073325     4B2    -0.070633
       1A2    -0.062528    10A1    -0.059833    11A1    -0.055893
      12A1    -0.047707     5B1    -0.041262     5B2    -0.036507
       6B1    -0.031475     6B2    -0.022471    13A1     0.042960
       2A2     0.080992    14A1     0.088221    15A1     0.124399
       7B1     0.151327     7B2     0.165884    16A1     0.259652

    Beta Occupied:

       1A1   -39.897062     2A1    -3.107967     3A1    -2.272379
       4A1    -2.077472     1B1    -2.072320

    Beta Virtual:

       1B2    -1.841177     5A1    -0.314969     6A1    -0.230597
       2B2    -0.190040     7A1    -0.177731     2B1    -0.177258
       3B2    -0.140243     3B1    -0.133053     8A1    -0.085168
       9A1    -0.066773     4B2    -0.058082     4B1    -0.054043
      10A1    -0.053016    11A1    -0.039716     5B2    -0.034630
       5B1    -0.032359     1A2    -0.008676    12A1    -0.006185
       6B2     0.000490     6B1     0.012952    13A1     0.057500
       2A2     0.103410    14A1     0.105066    15A1     0.138776
       7B2     0.177048     7B1     0.182317    16A1     0.270693

    Final Occupation by Irrep:
             A1    A2    B1    B2
    DOCC [     4,    0,    1,    0 ]
    SOCC [     1,    0,    1,    1 ]
    NA   [     5,    0,    2,    1 ]
    NB   [     4,    0,    1,    0 ]

  @DF-UKS Final Energy:  -168.25011051148351

   => Energetics <=

    Nuclear Repulsion Energy =              5.6620857282842705
    One-Electron Energy =                -236.9264249867664489
    Two-Electron Energy =                  75.3557240618142004
    DFT Exchange-Correlation Energy =     -12.3414953148155604
    Empirical Dispersion Energy =           0.0000000000000000
    VV10 Nonlocal Energy =                  0.0000000000000000
    Total Energy =                       -168.2501105114835696

  UHF NO Occupations:
  HONO-2 :    5 A1 1.0000000
  HONO-1 :    2 B1 1.0000000
  HONO-0 :    1 B2 1.0000000
  LUNO+0 :    6 A1 0.0000030
  LUNO+1 :    7 A1 0.0000022
  LUNO+2 :    3 B1 0.0000008
  LUNO+3 :    8 A1 0.0000002

Computation Completed

Properties will be evaluated at   0.000000,   0.000000,   0.000000 [a0]

Properties computed using the SCF density matrix

 Multipole Moments:

 ------------------------------------------------------------------------------------
     Multipole            Electronic (a.u.)      Nuclear  (a.u.)        Total (a.u.)
 ------------------------------------------------------------------------------------

 L = 1.  Multiply by 2.5417464519 to convert [e a0] to [Debye]
 Dipole X            :          0.0000000            0.0000000            0.0000000
 Dipole Y            :          0.0000000            0.0000000            0.0000000
 Dipole Z            :          3.1800856           -1.5940533            1.5860324
 Magnitude           :                                                    1.5860324

 ------------------------------------------------------------------------------------

*** tstop() called on Joses-MacBook-Pro-2.local at Thu Jul 17 12:51:36 2025
Module time:
	user time   =       2.77 seconds =       0.05 minutes
	system time =       3.17 seconds =       0.05 minutes
	total time  =          1 seconds =       0.02 minutes
Total time:
	user time   =      66.06 seconds =       1.10 minutes
	system time =      76.11 seconds =       1.27 minutes
	total time  =         14 seconds =       0.23 minutes

*** tstart() called on Joses-MacBook-Pro-2.local
*** at Thu Jul 17 12:51:36 2025

         ------------------------------------------------------------
                                   SCF GRAD
                          Rob Parrish, Justin Turney,
                       Andy Simmonett, and Alex Sokolov
         ------------------------------------------------------------

  ==> Geometry <==

    Molecular point group: c2v
    Full point group: C_inf_v

    Geometry (in Angstrom), charge = 1, multiplicity = 4:

       Center              X                  Y                   Z               Mass
    ------------   -----------------  -----------------  -----------------  -----------------
         LI           0.000000000000     0.000000000000     2.363025615839     7.016003436600
         NA           0.000000000000     0.000000000000    -0.721146682167    22.989769282000

  Nuclear repulsion =    5.662085728284271

  ==> Basis Set <==

  Basis Set: CC-PVDZ
    Blend: CC-PVDZ
    Number of shells: 14
    Number of basis functions: 32
    Number of Cartesian functions: 34
    Spherical Harmonics?: true
    Max angular momentum: 2

  ==> DFJKGrad: Density-Fitted SCF Gradients <==

    Gradient:                    1
    J tasked:                  Yes
    K tasked:                  Yes
    wK tasked:                  No
    OpenMP threads:              1
    Integrals threads:           1
    Memory [MiB]:              375
    Schwarz Cutoff:          1E-12
    Fitting Condition:       1E-10

   => Auxiliary Basis Set <=

  Basis Set: (CC-PVDZ AUX)
    Blend: DEF2-UNIVERSAL-JKFIT
    Number of shells: 51
    Number of basis functions: 163
    Number of Cartesian functions: 197
    Spherical Harmonics?: true
    Max angular momentum: 4

  ==> DFT Potential <==

   => LibXC <=

    Version 6.2.2
    S. Lehtola, C. Steigemann, M. J.T. Oliveira, and M. A.L. Marques.,  SoftwareX 7, 1â€“5 (2018) (10.1016/j.softx.2017.11.002)

   => Composite Functional: B3LYP <=

    B3LYP Hyb-GGA Exchange-Correlation Functional

    P. J. Stephens, F. J. Devlin, C. F. Chabalowski, and M. J. Frisch.,  J. Phys. Chem. 98, 11623 (1994) (10.1021/j100096a001)

    Deriv               =              1
    GGA                 =           TRUE
    Meta                =          FALSE

    Exchange Hybrid     =           TRUE
    MP2 Hybrid          =          FALSE

   => Exchange Functionals <=

    0.0800   Slater exchange
    0.7200         Becke 88

   => Exact (HF) Exchange <=

    0.2000               HF

   => Correlation Functionals <=

    0.1900   Vosko, Wilk & Nusair (VWN5_RPA)
    0.8100   Lee, Yang & Parr

   => LibXC Density Thresholds  <==

    XC_HYB_GGA_XC_B3LYP:  1.00E-15

   => Molecular Quadrature <=

    Radial Scheme          =       TREUTLER
    Pruning Scheme         =           NONE
    Nuclear Scheme         =       TREUTLER

    Blocking Scheme        =         OCTREE
    BS radius alpha        =              1
    Pruning alpha          =              1
    Radial Points          =             75
    Spherical Points       =            302
    Total Points           =          43636
    Total Blocks           =            458
    Max Points             =            256
    Max Functions          =             32
    Weights Tolerance      =       1.00E-15

  -Total Gradient:
     Atom            X                  Y                   Z
    ------   -----------------  -----------------  -----------------
       1        0.000000000000    -0.000000000000    -0.000003708788
       2        0.000000000000     0.000000000000     0.000003220190

*** tstop() called on Joses-MacBook-Pro-2.local at Thu Jul 17 12:51:36 2025
Module time:
	user time   =       0.56 seconds =       0.01 minutes
	system time =       2.38 seconds =       0.04 minutes
	total time  =          0 seconds =       0.00 minutes
Total time:
	user time   =      66.62 seconds =       1.11 minutes
	system time =      78.49 seconds =       1.31 minutes
	total time  =         14 seconds =       0.23 minutes

    			-----------------------------------------

    			 OPTKING 3.0: for geometry optimizations

    			     By R.A. King, Bethel University

    			        with contributions from

    			    A.V. Copan, J. Cayton, A. Heide

    			-----------------------------------------

	                            ===> Fragment 1 <==

	 Z (Atomic Numbers)          Masses                          Geom
	       3.000000             7.016003          0.00000000  0.00000000  4.46547124
	      11.000000            22.989769          0.00000000  0.00000000 -1.36276973

	 - Coordinate -           - BOHR/RAD -       - ANG/DEG -
	 R(1,2)           =         5.828241           3.084172

	        --- Internal Coordinate Step in ANG or DEG, aJ/ANG or AJ/DEG ---
	-------------------------------------------------------------------------------
	           Coordinate      Previous         Force          Change          New
	           ----------      --------        ------          ------        ------
	               R(1,2)       3.08417        0.00003        0.00057       3.08475
	-------------------------------------------------------------------------------

	                                 ==> Convergence Check <==

	Measures of convergence in internal coordinates in au.

	Criteria marked as inactive (o), active & met (*), and active & unmet ( ).

	----------------------------------------------------------------------------------------------
	   Step    Total Energy     Delta E     Max Force     RMS Force      Max Disp      RMS Disp
	----------------------------------------------------------------------------------------------
	  Convergence Criteria     1.00e-06 *    3.00e-04 *             o    1.20e-03 *             o
	----------------------------------------------------------------------------------------------
	    15    -168.25011051   -2.12e-06      3.46e-06 *    3.46e-06 o    1.09e-03 *    1.09e-03 o  ~
	----------------------------------------------------------------------------------------------

Next Geometry in Ang
	Fragment 1 (Ang)

	   Li   0.0000000000   0.0000000000   2.3633129881
	   Na   0.0000000000   0.0000000000  -0.7214340544

    Final optimized geometry and variables:
    Molecular point group: c2v
    Full point group: C_inf_v

    Geometry (in Angstrom), charge = 1, multiplicity = 4:

    LI           0.000000000000     0.000000000000     2.363025615839
    NA           0.000000000000     0.000000000000    -0.721146682167

    Psi4 stopped on: Thursday, 17 July 2025 12:51PM
    Psi4 wall time for execution: 0:00:15.20

*** Psi4 exiting successfully. Buy a developer a beer!
