                               Psi4 1.9.1 release

  ==> Input File <==

--------------------------------------------------------------------------
molecule {
1 4
Be   0.00000        0.60000        0.00000
Ne   0.00000       -0.60000        0.00000
}

set {
basis              cc-pvdz
reference          uks
maxiter            500
geom_maxiter       500
DAMPING_PERCENTAGE 1
guess              SAP
}

optimize('b3lyp')
--------------------------------------------------------------------------

    Molecular point group: c2v
  Charge       = 1
  Multiplicity = 4
  Basis Set: CC-PVDZ
    Blend: CC-PVDZ
  Basis Set: (CC-PVDZ AUX)
    Blend: CC-PVDZ-JKFIT + DEF2-UNIVERSAL-JKFIT
  @DF-UKS Final Energy:  -142.35886021950438
    Total Energy =                       -142.3588602195043507
 Dipole X            :          0.0000000            0.0000000            0.0000000
 Dipole Y            :          0.0000000            0.0000000            0.0000000
 Dipole Z            :         -0.0119048           -0.7937203           -0.8056251
 Magnitude           :                                                    0.8056251
    Molecular point group: c2v
  Basis Set: CC-PVDZ
    Blend: CC-PVDZ
  Basis Set: (CC-PVDZ AUX)
    Blend: CC-PVDZ-JKFIT + DEF2-UNIVERSAL-JKFIT
  Basis Set: CC-PVDZ
    Blend: CC-PVDZ
  Basis Set: (CC-PVDZ AUX)
    Blend: CC-PVDZ-JKFIT + DEF2-UNIVERSAL-JKFIT
  @DF-UKS Final Energy:  -142.51637551861003
    Total Energy =                       -142.5163755186100332
  Basis Set: CC-PVDZ
    Blend: CC-PVDZ
  Basis Set: (CC-PVDZ AUX)
    Blend: CC-PVDZ-JKFIT + DEF2-UNIVERSAL-JKFIT
  Basis Set: CC-PVDZ
    Blend: CC-PVDZ
  @DF-UKS Final Energy:  -142.58474131907991
    Total Energy =                       -142.5847413190799102
  @DF-UKS Final Energy:  -142.64192351451325
    Total Energy =                       -142.6419235145132518
  @DF-UKS Final Energy:  -142.67545924122393
    Total Energy =                       -142.6754592412239333
  @DF-UKS Final Energy:  -142.69227473391808
    Total Energy =                       -142.6922747339181115
  @DF-UKS Final Energy:  -142.70021912000760
    Total Energy =                       -142.7002191200075742
  @DF-UKS Final Energy:  -142.70390870163203
    Total Energy =                       -142.7039087016320309
  @DF-UKS Final Energy:  -142.70555094115286
    Total Energy =                       -142.7055509411528647
  @DF-UKS Final Energy:  -142.70622425027261
    Total Energy =                       -142.7062242502726122
  @DF-UKS Final Energy:  -142.70646111194452
    Total Energy =                       -142.7064611119445487
  @DF-UKS Final Energy:  -142.70652605174050
    Total Energy =                       -142.7065260517404681
  @DF-UKS Final Energy:  -142.70653484501418
    Total Energy =                       -142.7065348450141755
  Basis Set: (CC-PVDZ AUX)
    Blend: CC-PVDZ-JKFIT + DEF2-UNIVERSAL-JKFIT
  Basis Set: CC-PVDZ
    Blend: CC-PVDZ
  Basis Set: (CC-PVDZ AUX)
    Blend: CC-PVDZ-JKFIT + DEF2-UNIVERSAL-JKFIT
  @DF-UKS Final Energy:  -142.70653647566039
    Total Energy =                       -142.7065364756603856
  Basis Set: CC-PVDZ
    Blend: CC-PVDZ
  Basis Set: (CC-PVDZ AUX)
    Blend: CC-PVDZ-JKFIT + DEF2-UNIVERSAL-JKFIT
  Charge       = 1
  Multiplicity = 4
  Basis Set: CC-PVDZ
    Blend: CC-PVDZ
  Basis Set: (CC-PVDZ AUX)
    Blend: CC-PVDZ-JKFIT + DEF2-UNIVERSAL-JKFIT

    Orbital Energies [Eh]
    ---------------------

    Alpha Occupied:

       1A1   -31.844240     2A1    -4.271212     3A1    -2.210125
       1B1    -1.382689     4A1    -1.272789     1B2    -1.272573
       5A1    -0.429763     2B1    -0.288495

    Alpha Virtual:

       6A1    -0.230582     2B2    -0.213034     7A1    -0.008428
       3B1     0.023411     3B2     0.043634     8A1     0.060336
       4B1     0.282560     9A1     0.284670     1A2     0.293481
       4B2     0.302839    10A1     0.305911     5B1     0.715125
       5B2     0.772974    11A1     0.810547    12A1     1.249470
      13A1     3.888374     2A2     3.914402     6B1     3.914561
       6B2     3.997643    14A1     3.997981

    Beta Occupied:

       1A1   -31.804119     2A1    -4.252948     3A1    -2.101948
       4A1    -1.232976     1B2    -1.232946

    Beta Virtual:

       1B1    -1.020359     5A1    -0.278547     6A1    -0.175368
       2B2    -0.151467     2B1    -0.120863     7A1     0.034616
       3B2     0.066836     8A1     0.091795     3B1     0.092710
       9A1     0.358231     4B2     0.369227     4B1     0.397971
       1A2     0.406270    10A1     0.409492     5B2     0.791175
       5B1     0.828222    11A1     0.831393    12A1     1.301221
       6B2     4.016674    13A1     4.017002     2A2     4.028597
       6B1     4.028862    14A1     4.052585

    Final Occupation by Irrep:
             A1    A2    B1    B2
    DOCC [     4,    0,    0,    1 ]
    SOCC [     1,    0,    2,    0 ]
    NA   [     5,    0,    2,    1 ]
    NB   [     4,    0,    0,    1 ]

  @DF-UKS Final Energy:  -142.70653684928251

   => Energetics <=

    Nuclear Repulsion Energy =              6.3486572425686800
    One-Electron Energy =                -205.9635643514911862
    Two-Electron Energy =                  68.8182569051731434
    DFT Exchange-Correlation Energy =     -11.9098866455331542
    Empirical Dispersion Energy =           0.0000000000000000
    VV10 Nonlocal Energy =                  0.0000000000000000
    Total Energy =                       -142.7065368492825144

  UHF NO Occupations:
  HONO-2 :    1 B1 1.0000000
  HONO-1 :    5 A1 1.0000000
  HONO-0 :    2 B1 1.0000000
  LUNO+0 :    6 A1 0.0002627
  LUNO+1 :    7 A1 0.0000488
  LUNO+2 :    2 B2 0.0000429
  LUNO+3 :    8 A1 0.0000008

Computation Completed

Properties will be evaluated at   0.000000,   0.000000,   0.000000 [a0]

Properties computed using the SCF density matrix

 Multipole Moments:

 ------------------------------------------------------------------------------------
     Multipole            Electronic (a.u.)      Nuclear  (a.u.)        Total (a.u.)
 ------------------------------------------------------------------------------------

 L = 1.  Multiply by 2.5417464519 to convert [e a0] to [Debye]
 Dipole X            :          0.0000000            0.0000000            0.0000000
 Dipole Y            :          0.0000000            0.0000000            0.0000000
 Dipole Z            :          0.9425548           -2.2052889           -1.2627341
 Magnitude           :                                                    1.2627341

 ------------------------------------------------------------------------------------

*** tstop() called on Joses-MacBook-Pro-2.local at Thu Jul 17 13:20:20 2025
Module time:
	user time   =       1.48 seconds =       0.02 minutes
	system time =       3.15 seconds =       0.05 minutes
	total time  =          1 seconds =       0.02 minutes
Total time:
	user time   =      38.75 seconds =       0.65 minutes
	system time =      79.41 seconds =       1.32 minutes
	total time  =         12 seconds =       0.20 minutes

*** tstart() called on Joses-MacBook-Pro-2.local
*** at Thu Jul 17 13:20:20 2025

         ------------------------------------------------------------
                                   SCF GRAD
                          Rob Parrish, Justin Turney,
                       Andy Simmonett, and Alex Sokolov
         ------------------------------------------------------------

  ==> Geometry <==

    Molecular point group: c2v
    Full point group: C_inf_v

    Geometry (in Angstrom), charge = 1, multiplicity = 4:

       Center              X                  Y                   Z               Mass
    ------------   -----------------  -----------------  -----------------  -----------------
         BE           0.000000000000     0.000000000000     2.298147081571     9.012183065000
         NE           0.000000000000     0.000000000000    -1.035957693352    19.992440176200

  Nuclear repulsion =    6.348657242568680

  ==> Basis Set <==

  Basis Set: CC-PVDZ
    Blend: CC-PVDZ
    Number of shells: 12
    Number of basis functions: 28
    Number of Cartesian functions: 30
    Spherical Harmonics?: true
    Max angular momentum: 2

  ==> DFJKGrad: Density-Fitted SCF Gradients <==

    Gradient:                    1
    J tasked:                  Yes
    K tasked:                  Yes
    wK tasked:                  No
    OpenMP threads:              1
    Integrals threads:           1
    Memory [MiB]:              375
    Schwarz Cutoff:          1E-12
    Fitting Condition:       1E-10

   => Auxiliary Basis Set <=

  Basis Set: (CC-PVDZ AUX)
    Blend: CC-PVDZ-JKFIT + DEF2-UNIVERSAL-JKFIT
    Number of shells: 41
    Number of basis functions: 121
    Number of Cartesian functions: 141
    Spherical Harmonics?: true
    Max angular momentum: 3

  ==> DFT Potential <==

   => LibXC <=

    Version 6.2.2
    S. Lehtola, C. Steigemann, M. J.T. Oliveira, and M. A.L. Marques.,  SoftwareX 7, 1â€“5 (2018) (10.1016/j.softx.2017.11.002)

   => Composite Functional: B3LYP <=

    B3LYP Hyb-GGA Exchange-Correlation Functional

    P. J. Stephens, F. J. Devlin, C. F. Chabalowski, and M. J. Frisch.,  J. Phys. Chem. 98, 11623 (1994) (10.1021/j100096a001)

    Deriv               =              1
    GGA                 =           TRUE
    Meta                =          FALSE

    Exchange Hybrid     =           TRUE
    MP2 Hybrid          =          FALSE

   => Exchange Functionals <=

    0.0800   Slater exchange
    0.7200         Becke 88

   => Exact (HF) Exchange <=

    0.2000               HF

   => Correlation Functionals <=

    0.1900   Vosko, Wilk & Nusair (VWN5_RPA)
    0.8100   Lee, Yang & Parr

   => LibXC Density Thresholds  <==

    XC_HYB_GGA_XC_B3LYP:  1.00E-15

   => Molecular Quadrature <=

    Radial Scheme          =       TREUTLER
    Pruning Scheme         =           NONE
    Nuclear Scheme         =       TREUTLER

    Blocking Scheme        =         OCTREE
    BS radius alpha        =              1
    Pruning alpha          =              1
    Radial Points          =             75
    Spherical Points       =            302
    Total Points           =          43653
    Total Blocks           =            400
    Max Points             =            251
    Max Functions          =             28
    Weights Tolerance      =       1.00E-15

  -Total Gradient:
     Atom            X                  Y                   Z
    ------   -----------------  -----------------  -----------------
       1       -0.000000000000    -0.000000000000    -0.000015550799
       2        0.000000000000    -0.000000000000     0.000012199867

*** tstop() called on Joses-MacBook-Pro-2.local at Thu Jul 17 13:20:20 2025
Module time:
	user time   =       0.33 seconds =       0.01 minutes
	system time =       1.14 seconds =       0.02 minutes
	total time  =          0 seconds =       0.00 minutes
Total time:
	user time   =      39.08 seconds =       0.65 minutes
	system time =      80.56 seconds =       1.34 minutes
	total time  =         12 seconds =       0.20 minutes

    			-----------------------------------------

    			 OPTKING 3.0: for geometry optimizations

    			     By R.A. King, Bethel University

    			        with contributions from

    			    A.V. Copan, J. Cayton, A. Heide

    			-----------------------------------------

	                            ===> Fragment 1 <==

	 Z (Atomic Numbers)          Masses                          Geom
	       4.000000             9.012183          0.00000000  0.00000000  4.34286858
	      10.000000            19.992440          0.00000000  0.00000000 -1.95767632

	 - Coordinate -           - BOHR/RAD -       - ANG/DEG -
	 R(1,2)           =         6.300545           3.334105

	        --- Internal Coordinate Step in ANG or DEG, aJ/ANG or AJ/DEG ---
	-------------------------------------------------------------------------------
	           Coordinate      Previous         Force          Change          New
	           ----------      --------        ------          ------        ------
	               R(1,2)       3.33410        0.00011        0.00301       3.33712
	-------------------------------------------------------------------------------

	                                 ==> Convergence Check <==

	Measures of convergence in internal coordinates in au.

	Criteria marked as inactive (o), active & met (*), and active & unmet ( ).

	----------------------------------------------------------------------------------------------
	   Step    Total Energy     Delta E     Max Force     RMS Force      Max Disp      RMS Disp
	----------------------------------------------------------------------------------------------
	  Convergence Criteria     1.00e-06 *    3.00e-04 *             o    1.20e-03 *             o
	----------------------------------------------------------------------------------------------
	    15    -142.70653685   -3.74e-07 *    1.39e-05 *    1.39e-05 o    5.70e-03      5.70e-03 o  ~
	----------------------------------------------------------------------------------------------

Next Geometry in Ang
	Fragment 1 (Ang)

	   Be   0.0000000000   0.0000000000   2.2996545479
	   Ne   0.0000000000   0.0000000000  -1.0374651596

    Final optimized geometry and variables:
    Molecular point group: c2v
    Full point group: C_inf_v

    Geometry (in Angstrom), charge = 1, multiplicity = 4:

    BE           0.000000000000     0.000000000000     2.298147081571
    NE           0.000000000000     0.000000000000    -1.035957693352

    Psi4 stopped on: Thursday, 17 July 2025 01:20PM
    Psi4 wall time for execution: 0:00:12.55

*** Psi4 exiting successfully. Buy a developer a beer!
