                               Psi4 1.9.1 release

  ==> Input File <==

--------------------------------------------------------------------------
molecule {
1 4
C   0.00000        0.60000        0.00000
Mg   0.00000       -0.60000        0.00000
}

set {
basis              cc-pvdz
reference          uks
maxiter            500
geom_maxiter       500
DAMPING_PERCENTAGE 1
guess              SAP
}

optimize('b3lyp')
--------------------------------------------------------------------------

    Molecular point group: c2v
  Charge       = 1
  Multiplicity = 4
  Basis Set: CC-PVDZ
    Blend: CC-PVDZ
  Basis Set: (CC-PVDZ AUX)
    Blend: CC-PVDZ-JKFIT + DEF2-UNIVERSAL-JKFIT
  @DF-UKS Final Energy:  -237.19260555163930
    Total Energy =                       -237.1926055516393035
 Dipole X            :          0.0000000            0.0000000            0.0000000
 Dipole Y            :          0.0000000            0.0000000            0.0000000
 Dipole Z            :         -1.4508359           -0.0056558           -1.4564917
 Magnitude           :                                                    1.4564917
    Molecular point group: c2v
  Basis Set: CC-PVDZ
    Blend: CC-PVDZ
  Basis Set: (CC-PVDZ AUX)
    Blend: CC-PVDZ-JKFIT + DEF2-UNIVERSAL-JKFIT
  Basis Set: CC-PVDZ
    Blend: CC-PVDZ
  Basis Set: (CC-PVDZ AUX)
    Blend: CC-PVDZ-JKFIT + DEF2-UNIVERSAL-JKFIT
  @DF-UKS Final Energy:  -237.41756457247720
    Total Energy =                       -237.4175645724772039
  Basis Set: CC-PVDZ
    Blend: CC-PVDZ
  Basis Set: (CC-PVDZ AUX)
    Blend: CC-PVDZ-JKFIT + DEF2-UNIVERSAL-JKFIT
  Basis Set: CC-PVDZ
    Blend: CC-PVDZ
  @DF-UKS Final Energy:  -237.57788438883486
    Total Energy =                       -237.5778843888348604
  @DF-UKS Final Energy:  -237.65599464700367
    Total Energy =                       -237.6559946470036664
  @DF-UKS Final Energy:  -237.68674268690742
    Total Energy =                       -237.6867426869074222
  @DF-UKS Final Energy:  -237.69810692131060
    Total Energy =                       -237.6981069213105968
  @DF-UKS Final Energy:  -237.70061065254200
    Total Energy =                       -237.7006106525419966
  @DF-UKS Final Energy:  -237.70139338802954
    Total Energy =                       -237.7013933880295440
  @DF-UKS Final Energy:  -237.70151158795190
    Total Energy =                       -237.7015115879518987
  @DF-UKS Final Energy:  -237.70153126347265
    Total Energy =                       -237.7015312634726456
  Basis Set: (CC-PVDZ AUX)
    Blend: CC-PVDZ-JKFIT + DEF2-UNIVERSAL-JKFIT
  Basis Set: CC-PVDZ
    Blend: CC-PVDZ
  Basis Set: (CC-PVDZ AUX)
    Blend: CC-PVDZ-JKFIT + DEF2-UNIVERSAL-JKFIT
  @DF-UKS Final Energy:  -237.70153512867785
    Total Energy =                       -237.7015351286778468
  Basis Set: CC-PVDZ
    Blend: CC-PVDZ
  Basis Set: (CC-PVDZ AUX)
    Blend: CC-PVDZ-JKFIT + DEF2-UNIVERSAL-JKFIT
  Charge       = 1
  Multiplicity = 4
  Basis Set: CC-PVDZ
    Blend: CC-PVDZ
  Basis Set: (CC-PVDZ AUX)
    Blend: CC-PVDZ-JKFIT + DEF2-UNIVERSAL-JKFIT

    Orbital Energies [Eh]
    ---------------------

    Alpha Occupied:

       1A1   -47.176987     2A1   -10.461590     3A1    -3.450656
       1B2    -2.194275     1B1    -2.194275     4A1    -2.192797
       5A1    -0.796901     6A1    -0.489239     2B2    -0.448855
       2B1    -0.448855

    Alpha Virtual:

       7A1    -0.352653     3B2    -0.228178     3B1    -0.228178
       8A1    -0.153072     9A1    -0.079053     4B2    -0.033233
       4B1    -0.033233    10A1     0.009837     1A2     0.058319
      11A1     0.058319     5B2     0.097355     5B1     0.097355
      12A1     0.254723     6B2     0.340732     6B1     0.340732
      13A1     0.416353    14A1     0.638672    15A1     0.943344
       2A2     0.943346     7B2     1.057106     7B1     1.057106
      16A1     1.382045

    Beta Occupied:

       1A1   -47.174976     2A1   -10.426386     3A1    -3.447149
       1B2    -2.191367     1B1    -2.191367     4A1    -2.190502
       5A1    -0.670960

    Beta Virtual:

       6A1    -0.376756     2B2    -0.282762     2B1    -0.282762
       7A1    -0.278272     3B2    -0.185474     3B1    -0.185474
       8A1    -0.134871     9A1    -0.072669     4B2    -0.025779
       4B1    -0.025779    10A1     0.033560    11A1     0.078783
       1A2     0.078783     5B2     0.136080     5B1     0.136080
      12A1     0.296832     6B2     0.410474     6B1     0.410474
      13A1     0.467424    14A1     0.706205     2A2     1.057224
      15A1     1.057231     7B2     1.152745     7B1     1.152745
      16A1     1.461339

    Final Occupation by Irrep:
             A1    A2    B1    B2
    DOCC [     5,    0,    1,    1 ]
    SOCC [     1,    0,    1,    1 ]
    NA   [     6,    0,    2,    2 ]
    NB   [     5,    0,    1,    1 ]

  @DF-UKS Final Energy:  -237.70153537276960

   => Energetics <=

    Nuclear Repulsion Energy =             18.8800215009261514
    One-Electron Energy =                -362.5604653906794965
    Two-Electron Energy =                 123.3853304357058960
    DFT Exchange-Correlation Energy =     -17.4064219187221454
    Empirical Dispersion Energy =           0.0000000000000000
    VV10 Nonlocal Energy =                  0.0000000000000000
    Total Energy =                       -237.7015353727695981

  UHF NO Occupations:
  HONO-2 :    6 A1 1.0000000
  HONO-1 :    2 B1 1.0000000
  HONO-0 :    2 B2 1.0000000
  LUNO+0 :    7 A1 0.0012814
  LUNO+1 :    8 A1 0.0000005
  LUNO+2 :    3 B1 0.0000002
  LUNO+3 :    3 B2 0.0000002

Computation Completed

Properties will be evaluated at   0.000000,   0.000000,   0.000000 [a0]

Properties computed using the SCF density matrix

 Multipole Moments:

 ------------------------------------------------------------------------------------
     Multipole            Electronic (a.u.)      Nuclear  (a.u.)        Total (a.u.)
 ------------------------------------------------------------------------------------

 L = 1.  Multiply by 2.5417464519 to convert [e a0] to [Debye]
 Dipole X            :          0.0000000            0.0000000            0.0000000
 Dipole Y            :          0.0000000            0.0000000            0.0000000
 Dipole Z            :         -2.2943855           -0.0095113           -2.3038968
 Magnitude           :                                                    2.3038968

 ------------------------------------------------------------------------------------

*** tstop() called on Joses-MacBook-Pro-2.local at Thu Jul 17 13:43:32 2025
Module time:
	user time   =       2.96 seconds =       0.05 minutes
	system time =       2.74 seconds =       0.05 minutes
	total time  =          0 seconds =       0.00 minutes
Total time:
	user time   =      47.14 seconds =       0.79 minutes
	system time =      73.99 seconds =       1.23 minutes
	total time  =         12 seconds =       0.20 minutes

*** tstart() called on Joses-MacBook-Pro-2.local
*** at Thu Jul 17 13:43:32 2025

         ------------------------------------------------------------
                                   SCF GRAD
                          Rob Parrish, Justin Turney,
                       Andy Simmonett, and Alex Sokolov
         ------------------------------------------------------------

  ==> Geometry <==

    Molecular point group: c2v
    Full point group: C_inf_v

    Geometry (in Angstrom), charge = 1, multiplicity = 4:

       Center              X                  Y                   Z               Mass
    ------------   -----------------  -----------------  -----------------  -----------------
         C            0.000000000000     0.000000000000     1.345084636440    12.000000000000
         MG           0.000000000000     0.000000000000    -0.672961750127    23.985041697000

  Nuclear repulsion =   18.880021500926151

  ==> Basis Set <==

  Basis Set: CC-PVDZ
    Blend: CC-PVDZ
    Number of shells: 14
    Number of basis functions: 32
    Number of Cartesian functions: 34
    Spherical Harmonics?: true
    Max angular momentum: 2

  ==> DFJKGrad: Density-Fitted SCF Gradients <==

    Gradient:                    1
    J tasked:                  Yes
    K tasked:                  Yes
    wK tasked:                  No
    OpenMP threads:              1
    Integrals threads:           1
    Memory [MiB]:              375
    Schwarz Cutoff:          1E-12
    Fitting Condition:       1E-10

   => Auxiliary Basis Set <=

  Basis Set: (CC-PVDZ AUX)
    Blend: CC-PVDZ-JKFIT + DEF2-UNIVERSAL-JKFIT
    Number of shells: 58
    Number of basis functions: 182
    Number of Cartesian functions: 218
    Spherical Harmonics?: true
    Max angular momentum: 4

  ==> DFT Potential <==

   => LibXC <=

    Version 6.2.2
    S. Lehtola, C. Steigemann, M. J.T. Oliveira, and M. A.L. Marques.,  SoftwareX 7, 1â€“5 (2018) (10.1016/j.softx.2017.11.002)

   => Composite Functional: B3LYP <=

    B3LYP Hyb-GGA Exchange-Correlation Functional

    P. J. Stephens, F. J. Devlin, C. F. Chabalowski, and M. J. Frisch.,  J. Phys. Chem. 98, 11623 (1994) (10.1021/j100096a001)

    Deriv               =              1
    GGA                 =           TRUE
    Meta                =          FALSE

    Exchange Hybrid     =           TRUE
    MP2 Hybrid          =          FALSE

   => Exchange Functionals <=

    0.0800   Slater exchange
    0.7200         Becke 88

   => Exact (HF) Exchange <=

    0.2000               HF

   => Correlation Functionals <=

    0.1900   Vosko, Wilk & Nusair (VWN5_RPA)
    0.8100   Lee, Yang & Parr

   => LibXC Density Thresholds  <==

    XC_HYB_GGA_XC_B3LYP:  1.00E-15

   => Molecular Quadrature <=

    Radial Scheme          =       TREUTLER
    Pruning Scheme         =           NONE
    Nuclear Scheme         =       TREUTLER

    Blocking Scheme        =         OCTREE
    BS radius alpha        =              1
    Pruning alpha          =              1
    Radial Points          =             75
    Spherical Points       =            302
    Total Points           =          43458
    Total Blocks           =            411
    Max Points             =            254
    Max Functions          =             32
    Weights Tolerance      =       1.00E-15

  -Total Gradient:
     Atom            X                  Y                   Z
    ------   -----------------  -----------------  -----------------
       1        0.000000000000     0.000000000000    -0.000051447346
       2        0.000000000000     0.000000000000     0.000019221880

*** tstop() called on Joses-MacBook-Pro-2.local at Thu Jul 17 13:43:32 2025
Module time:
	user time   =       0.65 seconds =       0.01 minutes
	system time =       1.87 seconds =       0.03 minutes
	total time  =          0 seconds =       0.00 minutes
Total time:
	user time   =      47.79 seconds =       0.80 minutes
	system time =      75.86 seconds =       1.26 minutes
	total time  =         12 seconds =       0.20 minutes

    			-----------------------------------------

    			 OPTKING 3.0: for geometry optimizations

    			     By R.A. King, Bethel University

    			        with contributions from

    			    A.V. Copan, J. Cayton, A. Heide

    			-----------------------------------------

	                            ===> Fragment 1 <==

	 Z (Atomic Numbers)          Masses                          Geom
	       6.000000            12.000000          0.00000000  0.00000000  2.54184158
	      12.000000            23.985042          0.00000000  0.00000000 -1.27171340

	 - Coordinate -           - BOHR/RAD -       - ANG/DEG -
	 R(1,2)           =         3.813555           2.018046

	        --- Internal Coordinate Step in ANG or DEG, aJ/ANG or AJ/DEG ---
	-------------------------------------------------------------------------------
	           Coordinate      Previous         Force          Change          New
	           ----------      --------        ------          ------        ------
	               R(1,2)       2.01805        0.00029        0.00017       2.01821
	-------------------------------------------------------------------------------

	                                 ==> Convergence Check <==

	Measures of convergence in internal coordinates in au.

	Criteria marked as inactive (o), active & met (*), and active & unmet ( ).

	----------------------------------------------------------------------------------------------
	   Step    Total Energy     Delta E     Max Force     RMS Force      Max Disp      RMS Disp
	----------------------------------------------------------------------------------------------
	  Convergence Criteria     1.00e-06 *    3.00e-04 *             o    1.20e-03 *             o
	----------------------------------------------------------------------------------------------
	    12    -237.70153537   -2.44e-07 *    3.53e-05 *    3.53e-05 o    3.15e-04 *    3.15e-04 o  ~
	----------------------------------------------------------------------------------------------

Next Geometry in Ang
	Fragment 1 (Ang)

	    C   0.0000000000   0.0000000000   1.3451679101
	   Mg   0.0000000000   0.0000000000  -0.6730450237

    Final optimized geometry and variables:
    Molecular point group: c2v
    Full point group: C_inf_v

    Geometry (in Angstrom), charge = 1, multiplicity = 4:

    C            0.000000000000     0.000000000000     1.345084636440
    MG           0.000000000000     0.000000000000    -0.672961750127

    Psi4 stopped on: Thursday, 17 July 2025 01:43PM
    Psi4 wall time for execution: 0:00:12.80

*** Psi4 exiting successfully. Buy a developer a beer!
