                               Psi4 1.9.1 release

  ==> Input File <==

--------------------------------------------------------------------------
molecule {
1 4
B   0.00000        0.60000        0.00000
Al   0.00000       -0.60000        0.00000
}

set {
basis              cc-pvdz
reference          uks
maxiter            500
geom_maxiter       500
DAMPING_PERCENTAGE 1
guess              SAP
}

optimize('b3lyp')
--------------------------------------------------------------------------

    Molecular point group: c2v
  Charge       = 1
  Multiplicity = 4
  Basis Set: CC-PVDZ
    Blend: CC-PVDZ
  Basis Set: (CC-PVDZ AUX)
    Blend: CC-PVDZ-JKFIT
  @DF-UKS Final Energy:  -266.29157768398585
    Total Energy =                       -266.2915776839858495
 Dipole X            :          0.0000000            0.0000000            0.0000000
 Dipole Y            :          0.0000000            0.0000000            0.0000000
 Dipole Z            :         -0.0651236           -0.4902500           -0.5553736
 Magnitude           :                                                    0.5553736
    Molecular point group: c2v
  Basis Set: CC-PVDZ
    Blend: CC-PVDZ
  Basis Set: (CC-PVDZ AUX)
    Blend: CC-PVDZ-JKFIT
  Basis Set: CC-PVDZ
    Blend: CC-PVDZ
  Basis Set: (CC-PVDZ AUX)
    Blend: CC-PVDZ-JKFIT
  @DF-UKS Final Energy:  -266.49770216718582
    Total Energy =                       -266.4977021671858211
  Basis Set: CC-PVDZ
    Blend: CC-PVDZ
  Basis Set: (CC-PVDZ AUX)
    Blend: CC-PVDZ-JKFIT
  Basis Set: CC-PVDZ
    Blend: CC-PVDZ
  @DF-UKS Final Energy:  -266.65307928652214
    Total Energy =                       -266.6530792865221429
  @DF-UKS Final Energy:  -266.73320171761833
    Total Energy =                       -266.7332017176183285
  @DF-UKS Final Energy:  -266.76095072123127
    Total Energy =                       -266.7609507212312678
  @DF-UKS Final Energy:  -266.76951748885386
    Total Energy =                       -266.7695174888538645
  @DF-UKS Final Energy:  -266.77094993214416
    Total Energy =                       -266.7709499321441626
  @DF-UKS Final Energy:  -266.77122313388128
    Total Energy =                       -266.7712231338812785
  @DF-UKS Final Energy:  -266.77128849313607
    Total Energy =                       -266.7712884931360691
  Basis Set: (CC-PVDZ AUX)
    Blend: CC-PVDZ-JKFIT
  Basis Set: CC-PVDZ
    Blend: CC-PVDZ
  Basis Set: (CC-PVDZ AUX)
    Blend: CC-PVDZ-JKFIT
  @DF-UKS Final Energy:  -266.77129426254538
    Total Energy =                       -266.7712942625453820
  Basis Set: CC-PVDZ
    Blend: CC-PVDZ
  Basis Set: (CC-PVDZ AUX)
    Blend: CC-PVDZ-JKFIT
  Charge       = 1
  Multiplicity = 4
  Basis Set: CC-PVDZ
    Blend: CC-PVDZ
  Basis Set: (CC-PVDZ AUX)
    Blend: CC-PVDZ-JKFIT

    Orbital Energies [Eh]
    ---------------------

    Alpha Occupied:

       1A1   -56.390625     2A1    -7.093959     3A1    -4.466048
       1B1    -3.018491     1B2    -3.018491     4A1    -3.017921
       5A1    -0.722910     6A1    -0.544664     2B1    -0.447218
       2B2    -0.447218

    Alpha Virtual:

       7A1    -0.383442     3B1    -0.275796     3B2    -0.275796
       8A1    -0.148830     9A1    -0.043175     4B1    -0.000865
       4B2    -0.000865     1A2     0.007912    10A1     0.007912
      11A1     0.026846    12A1     0.062025     5B2     0.071207
       5B1     0.071207     6B2     0.112723     6B1     0.112723
      13A1     0.339614    14A1     0.416225    15A1     0.470068
       2A2     0.470068     7B2     0.640983     7B1     0.640983
      16A1     0.846075

    Beta Occupied:

       1A1   -56.386242     2A1    -7.070816     3A1    -4.459355
       4A1    -3.013477     1B1    -3.011521     1B2    -3.011521
       5A1    -0.653388

    Beta Virtual:

       6A1    -0.420461     2B1    -0.322715     2B2    -0.322715
       7A1    -0.319223     3B1    -0.203452     3B2    -0.203452
       8A1    -0.123829     9A1    -0.024541     4B1     0.017679
       4B2     0.017679    10A1     0.052333     1A2     0.052333
      11A1     0.060264    12A1     0.083839     5B2     0.118048
       5B1     0.118048     6B2     0.157851     6B1     0.157851
      13A1     0.376652    14A1     0.453505    15A1     0.556449
       2A2     0.556450     7B2     0.704876     7B1     0.704876
      16A1     0.890138

    Final Occupation by Irrep:
             A1    A2    B1    B2
    DOCC [     5,    0,    1,    1 ]
    SOCC [     1,    0,    1,    1 ]
    NA   [     6,    0,    2,    2 ]
    NB   [     5,    0,    1,    1 ]

  @DF-UKS Final Energy:  -266.77129482138275

   => Energetics <=

    Nuclear Repulsion Energy =             17.6694321072698557
    One-Electron Energy =                -399.2327733596818007
    Two-Electron Energy =                 132.8040970191493670
    DFT Exchange-Correlation Energy =     -18.0120505881201751
    Empirical Dispersion Energy =           0.0000000000000000
    VV10 Nonlocal Energy =                  0.0000000000000000
    Total Energy =                       -266.7712948213827531

  UHF NO Occupations:
  HONO-2 :    2 B1 1.0000000
  HONO-1 :    2 B2 1.0000000
  HONO-0 :    6 A1 1.0000000
  LUNO+0 :    7 A1 0.0079864
  LUNO+1 :    3 B1 0.0000005
  LUNO+2 :    3 B2 0.0000005
  LUNO+3 :    8 A1 0.0000004

Computation Completed

Properties will be evaluated at   0.000000,   0.000000,   0.000000 [a0]

Properties computed using the SCF density matrix

 Multipole Moments:

 ------------------------------------------------------------------------------------
     Multipole            Electronic (a.u.)      Nuclear  (a.u.)        Total (a.u.)
 ------------------------------------------------------------------------------------

 L = 1.  Multiply by 2.5417464519 to convert [e a0] to [Debye]
 Dipole X            :          0.0000000            0.0000000            0.0000000
 Dipole Y            :          0.0000000            0.0000000            0.0000000
 Dipole Z            :          0.1424180           -0.7952951           -0.6528770
 Magnitude           :                                                    0.6528770

 ------------------------------------------------------------------------------------

*** tstop() called on Joses-MacBook-Pro-2.local at Thu Jul 17 13:35:36 2025
Module time:
	user time   =       2.93 seconds =       0.05 minutes
	system time =       3.36 seconds =       0.06 minutes
	total time  =          0 seconds =       0.00 minutes
Total time:
	user time   =      59.23 seconds =       0.99 minutes
	system time =      56.49 seconds =       0.94 minutes
	total time  =         12 seconds =       0.20 minutes

*** tstart() called on Joses-MacBook-Pro-2.local
*** at Thu Jul 17 13:35:36 2025

         ------------------------------------------------------------
                                   SCF GRAD
                          Rob Parrish, Justin Turney,
                       Andy Simmonett, and Alex Sokolov
         ------------------------------------------------------------

  ==> Geometry <==

    Molecular point group: c2v
    Full point group: C_inf_v

    Geometry (in Angstrom), charge = 1, multiplicity = 4:

       Center              X                  Y                   Z               Mass
    ------------   -----------------  -----------------  -----------------  -----------------
         B            0.000000000000     0.000000000000     1.382546246262    11.009305360000
         AL           0.000000000000     0.000000000000    -0.564121789515    26.981538530000

  Nuclear repulsion =   17.669432107269856

  ==> Basis Set <==

  Basis Set: CC-PVDZ
    Blend: CC-PVDZ
    Number of shells: 14
    Number of basis functions: 32
    Number of Cartesian functions: 34
    Spherical Harmonics?: true
    Max angular momentum: 2

  ==> DFJKGrad: Density-Fitted SCF Gradients <==

    Gradient:                    1
    J tasked:                  Yes
    K tasked:                  Yes
    wK tasked:                  No
    OpenMP threads:              1
    Integrals threads:           1
    Memory [MiB]:              375
    Schwarz Cutoff:          1E-12
    Fitting Condition:       1E-10

   => Auxiliary Basis Set <=

  Basis Set: (CC-PVDZ AUX)
    Blend: CC-PVDZ-JKFIT
    Number of shells: 60
    Number of basis functions: 182
    Number of Cartesian functions: 211
    Spherical Harmonics?: true
    Max angular momentum: 3

  ==> DFT Potential <==

   => LibXC <=

    Version 6.2.2
    S. Lehtola, C. Steigemann, M. J.T. Oliveira, and M. A.L. Marques.,  SoftwareX 7, 1â€“5 (2018) (10.1016/j.softx.2017.11.002)

   => Composite Functional: B3LYP <=

    B3LYP Hyb-GGA Exchange-Correlation Functional

    P. J. Stephens, F. J. Devlin, C. F. Chabalowski, and M. J. Frisch.,  J. Phys. Chem. 98, 11623 (1994) (10.1021/j100096a001)

    Deriv               =              1
    GGA                 =           TRUE
    Meta                =          FALSE

    Exchange Hybrid     =           TRUE
    MP2 Hybrid          =          FALSE

   => Exchange Functionals <=

    0.0800   Slater exchange
    0.7200         Becke 88

   => Exact (HF) Exchange <=

    0.2000               HF

   => Correlation Functionals <=

    0.1900   Vosko, Wilk & Nusair (VWN5_RPA)
    0.8100   Lee, Yang & Parr

   => LibXC Density Thresholds  <==

    XC_HYB_GGA_XC_B3LYP:  1.00E-15

   => Molecular Quadrature <=

    Radial Scheme          =       TREUTLER
    Pruning Scheme         =           NONE
    Nuclear Scheme         =       TREUTLER

    Blocking Scheme        =         OCTREE
    BS radius alpha        =              1
    Pruning alpha          =              1
    Radial Points          =             75
    Spherical Points       =            302
    Total Points           =          42967
    Total Blocks           =            405
    Max Points             =            254
    Max Functions          =             32
    Weights Tolerance      =       1.00E-15

  -Total Gradient:
     Atom            X                  Y                   Z
    ------   -----------------  -----------------  -----------------
       1        0.000000000000     0.000000000000    -0.000066730514
       2        0.000000000000     0.000000000000     0.000058711433

*** tstop() called on Joses-MacBook-Pro-2.local at Thu Jul 17 13:35:36 2025
Module time:
	user time   =       0.81 seconds =       0.01 minutes
	system time =       1.62 seconds =       0.03 minutes
	total time  =          0 seconds =       0.00 minutes
Total time:
	user time   =      60.04 seconds =       1.00 minutes
	system time =      58.11 seconds =       0.97 minutes
	total time  =         12 seconds =       0.20 minutes

    			-----------------------------------------

    			 OPTKING 3.0: for geometry optimizations

    			     By R.A. King, Bethel University

    			        with contributions from

    			    A.V. Copan, J. Cayton, A. Heide

    			-----------------------------------------

	                            ===> Fragment 1 <==

	 Z (Atomic Numbers)          Masses                          Geom
	       5.000000            11.009305          0.00000000  0.00000000  2.61263376
	      13.000000            26.981539          0.00000000  0.00000000 -1.06603568

	 - Coordinate -           - BOHR/RAD -       - ANG/DEG -
	 R(1,2)           =         3.678669           1.946668

	        --- Internal Coordinate Step in ANG or DEG, aJ/ANG or AJ/DEG ---
	-------------------------------------------------------------------------------
	           Coordinate      Previous         Force          Change          New
	           ----------      --------        ------          ------        ------
	               R(1,2)       1.94667        0.00052        0.00020       1.94687
	-------------------------------------------------------------------------------

	                                 ==> Convergence Check <==

	Measures of convergence in internal coordinates in au.

	Criteria marked as inactive (o), active & met (*), and active & unmet ( ).

	----------------------------------------------------------------------------------------------
	   Step    Total Energy     Delta E     Max Force     RMS Force      Max Disp      RMS Disp
	----------------------------------------------------------------------------------------------
	  Convergence Criteria     1.00e-06 *    3.00e-04 *             o    1.20e-03 *             o
	----------------------------------------------------------------------------------------------
	    11    -266.77129482   -5.59e-07 *    6.27e-05 *    6.27e-05 o    3.73e-04 *    3.73e-04 o  ~
	----------------------------------------------------------------------------------------------

Next Geometry in Ang
	Fragment 1 (Ang)

	    B   0.0000000000   0.0000000000   1.3826449841
	   Al   0.0000000000   0.0000000000  -0.5642205273

    Final optimized geometry and variables:
    Molecular point group: c2v
    Full point group: C_inf_v

    Geometry (in Angstrom), charge = 1, multiplicity = 4:

    B            0.000000000000     0.000000000000     1.382546246262
    AL           0.000000000000     0.000000000000    -0.564121789515

    Psi4 stopped on: Thursday, 17 July 2025 01:35PM
    Psi4 wall time for execution: 0:00:13.63

*** Psi4 exiting successfully. Buy a developer a beer!
