                               Psi4 1.9.1 release

  ==> Input File <==

--------------------------------------------------------------------------
molecule {
1 4
P   0.00000        0.60000        0.00000
P   0.00000       -0.60000        0.00000
}

set {
basis              cc-pvdz
reference          uks
maxiter            500
geom_maxiter       500
DAMPING_PERCENTAGE 1
guess              SAP
}

optimize('b3lyp')
--------------------------------------------------------------------------

    Molecular point group: d2h
  Charge       = 1
  Multiplicity = 4
  Basis Set: CC-PVDZ
    Blend: CC-PVDZ
  Basis Set: (CC-PVDZ AUX)
    Blend: CC-PVDZ-JKFIT
  @DF-UKS Final Energy:  -680.96447244566593
    Total Energy =                       -680.9644724456660470
 Dipole X            :          0.0000000            0.0000000            0.0000000
 Dipole Y            :          0.0000000            0.0000000            0.0000000
 Dipole Z            :          0.0000000            0.0000000            0.0000000
 Magnitude           :                                                    0.0000000
    Molecular point group: d2h
  Basis Set: CC-PVDZ
    Blend: CC-PVDZ
  Basis Set: (CC-PVDZ AUX)
    Blend: CC-PVDZ-JKFIT
  Basis Set: CC-PVDZ
    Blend: CC-PVDZ
  Basis Set: (CC-PVDZ AUX)
    Blend: CC-PVDZ-JKFIT
  @DF-UKS Final Energy:  -680.99737613226341
    Total Energy =                       -680.9973761322634118
  Basis Set: CC-PVDZ
    Blend: CC-PVDZ
  Basis Set: (CC-PVDZ AUX)
    Blend: CC-PVDZ-JKFIT
  Basis Set: CC-PVDZ
    Blend: CC-PVDZ
  @DF-UKS Final Energy:  -681.05933645248047
    Total Energy =                       -681.0593364524804656
  @DF-UKS Final Energy:  -681.26855773433988
    Total Energy =                       -681.2685577343398791
  @DF-UKS Final Energy:  -681.80182248481776
    Total Energy =                       -681.8018224848177624
  @DF-UKS Final Energy:  -682.05151768793382
    Total Energy =                       -682.0515176879339379
  @DF-UKS Final Energy:  -682.18629546616967
    Total Energy =                       -682.1862954661696676
  @DF-UKS Final Energy:  -682.23396734984522
    Total Energy =                       -682.2339673498452157
  @DF-UKS Final Energy:  -682.25298846887290
    Total Energy =                       -682.2529884688727861
  @DF-UKS Final Energy:  -682.25753898173855
    Total Energy =                       -682.2575389817386622
  @DF-UKS Final Energy:  -682.25913483143154
    Total Energy =                       -682.2591348314315383
  @DF-UKS Final Energy:  -682.25942017745115
    Total Energy =                       -682.2594201774509202
  @DF-UKS Final Energy:  -682.25947645697465
    Total Energy =                       -682.2594764569746530
  Basis Set: (CC-PVDZ AUX)
    Blend: CC-PVDZ-JKFIT
  Basis Set: CC-PVDZ
    Blend: CC-PVDZ
  Basis Set: (CC-PVDZ AUX)
    Blend: CC-PVDZ-JKFIT
  @DF-UKS Final Energy:  -682.25948997994840
    Total Energy =                       -682.2594899799485120
  Basis Set: CC-PVDZ
    Blend: CC-PVDZ
  Basis Set: (CC-PVDZ AUX)
    Blend: CC-PVDZ-JKFIT
  Charge       = 1
  Multiplicity = 4
  Basis Set: CC-PVDZ
    Blend: CC-PVDZ
  Basis Set: (CC-PVDZ AUX)
    Blend: CC-PVDZ-JKFIT

    Orbital Energies [Eh]
    ---------------------

    Alpha Occupied:

       1Ag   -77.429001     1B2u  -77.429001     2B2u   -6.893796
       2Ag    -6.893793     3Ag    -5.059284     3B2u   -5.058736
       1B1u   -5.057388     1B3g   -5.057352     1B3u   -5.051728
       1B1g   -5.051687     4Ag    -0.966063     4B2u   -0.796166
       5Ag    -0.601731     2B1u   -0.577153     2B3u   -0.539505
       2B3g   -0.469656

    Alpha Virtual:

       2B1g   -0.387988     5B2u   -0.257330     6Ag    -0.013505
       3B1u    0.038563     3B3u    0.058947     7Ag     0.108836
       6B2u    0.130306     1B2g    0.135284     8Ag     0.137562
       4B1u    0.152139     4B3u    0.167701     3B3g    0.185515
       3B1g    0.203172     1Au     0.222530     7B2u    0.224125
       8B2u    0.286857     9Ag     0.402660     4B3g    0.406749
       4B1g    0.426732     9B2u    0.736399

    Beta Occupied:

       1B2u  -77.421564     1Ag   -77.421564     2B2u   -6.885785
       2Ag    -6.885746     3Ag    -5.047630     1B3u   -5.047188
       1B1g   -5.047153     3B2u   -5.047114     1B1u   -5.039061
       1B3g   -5.039026     4Ag    -0.901540     4B2u   -0.716445
       2B3u   -0.520855

    Beta Virtual:

       5Ag    -0.479893     2B1u   -0.433676     2B1g   -0.363722
       2B3g   -0.322293     5B2u   -0.205542     6Ag     0.025131
       3B3u    0.093595     3B1u    0.121204     7Ag     0.138138
       6B2u    0.163938     4B3u    0.178271     1B2g    0.189612
       8Ag     0.192492     4B1u    0.197504     3B1g    0.211585
       3B3g    0.230802     1Au     0.277942     7B2u    0.279662
       8B2u    0.311520     9Ag     0.443406     4B1g    0.456756
       4B3g    0.480450     9B2u    0.778471

    Final Occupation by Irrep:
             Ag   B1g   B2g   B3g    Au   B1u   B2u   B3u
    DOCC [     4,    1,    0,    1,    0,    1,    4,    2 ]
    SOCC [     1,    0,    0,    1,    0,    1,    0,    0 ]
    NA   [     5,    1,    0,    2,    0,    2,    4,    2 ]
    NB   [     4,    1,    0,    1,    0,    1,    4,    2 ]

  @DF-UKS Final Energy:  -682.25949114722050

   => Energetics <=

    Nuclear Repulsion Energy =             55.8169116286023339
    One-Electron Energy =               -1045.7588403224128797
    Two-Electron Energy =                 344.8247643900676280
    DFT Exchange-Correlation Energy =     -37.1423268434777114
    Empirical Dispersion Energy =           0.0000000000000000
    VV10 Nonlocal Energy =                  0.0000000000000000
    Total Energy =                       -682.2594911472205013

  UHF NO Occupations:
  HONO-2 :    2B3g 1.0000000
  HONO-1 :    5 Ag 1.0000000
  HONO-0 :    2B1u 1.0000000
  LUNO+0 :    5B2u 0.0017720
  LUNO+1 :    6 Ag 0.0007828
  LUNO+2 :    3B3u 0.0001675
  LUNO+3 :    6B2u 0.0000001

Computation Completed

Properties will be evaluated at   0.000000,   0.000000,   0.000000 [a0]

Properties computed using the SCF density matrix

 Multipole Moments:

 ------------------------------------------------------------------------------------
     Multipole            Electronic (a.u.)      Nuclear  (a.u.)        Total (a.u.)
 ------------------------------------------------------------------------------------

 L = 1.  Multiply by 2.5417464519 to convert [e a0] to [Debye]
 Dipole X            :          0.0000000            0.0000000            0.0000000
 Dipole Y            :          0.0000000            0.0000000            0.0000000
 Dipole Z            :          0.0000000            0.0000000            0.0000000
 Magnitude           :                                                    0.0000000

 ------------------------------------------------------------------------------------

*** tstop() called on Joses-MacBook-Pro-2.local at Thu Jul 17 15:45:10 2025
Module time:
	user time   =       6.27 seconds =       0.10 minutes
	system time =       1.92 seconds =       0.03 minutes
	total time  =          1 seconds =       0.02 minutes
Total time:
	user time   =     166.79 seconds =       2.78 minutes
	system time =      47.66 seconds =       0.79 minutes
	total time  =         20 seconds =       0.33 minutes

*** tstart() called on Joses-MacBook-Pro-2.local
*** at Thu Jul 17 15:45:10 2025

         ------------------------------------------------------------
                                   SCF GRAD
                          Rob Parrish, Justin Turney,
                       Andy Simmonett, and Alex Sokolov
         ------------------------------------------------------------

  ==> Geometry <==

    Molecular point group: d2h
    Full point group: D_inf_h

    Geometry (in Angstrom), charge = 1, multiplicity = 4:

       Center              X                  Y                   Z               Mass
    ------------   -----------------  -----------------  -----------------  -----------------
         P           -0.000000000000     1.066566287230     0.000000000000    30.973761998420
         P            0.000000000000    -1.066566287230     0.000000000000    30.973761998420

  Nuclear repulsion =   55.816911628602334

  ==> Basis Set <==

  Basis Set: CC-PVDZ
    Blend: CC-PVDZ
    Number of shells: 16
    Number of basis functions: 36
    Number of Cartesian functions: 38
    Spherical Harmonics?: true
    Max angular momentum: 2

  ==> DFJKGrad: Density-Fitted SCF Gradients <==

    Gradient:                    1
    J tasked:                  Yes
    K tasked:                  Yes
    wK tasked:                  No
    OpenMP threads:              1
    Integrals threads:           1
    Memory [MiB]:              375
    Schwarz Cutoff:          1E-12
    Fitting Condition:       1E-10

   => Auxiliary Basis Set <=

  Basis Set: (CC-PVDZ AUX)
    Blend: CC-PVDZ-JKFIT
    Number of shells: 72
    Number of basis functions: 224
    Number of Cartesian functions: 260
    Spherical Harmonics?: true
    Max angular momentum: 3

  ==> DFT Potential <==

   => LibXC <=

    Version 6.2.2
    S. Lehtola, C. Steigemann, M. J.T. Oliveira, and M. A.L. Marques.,  SoftwareX 7, 1â€“5 (2018) (10.1016/j.softx.2017.11.002)

   => Composite Functional: B3LYP <=

    B3LYP Hyb-GGA Exchange-Correlation Functional

    P. J. Stephens, F. J. Devlin, C. F. Chabalowski, and M. J. Frisch.,  J. Phys. Chem. 98, 11623 (1994) (10.1021/j100096a001)

    Deriv               =              1
    GGA                 =           TRUE
    Meta                =          FALSE

    Exchange Hybrid     =           TRUE
    MP2 Hybrid          =          FALSE

   => Exchange Functionals <=

    0.0800   Slater exchange
    0.7200         Becke 88

   => Exact (HF) Exchange <=

    0.2000               HF

   => Correlation Functionals <=

    0.1900   Vosko, Wilk & Nusair (VWN5_RPA)
    0.8100   Lee, Yang & Parr

   => LibXC Density Thresholds  <==

    XC_HYB_GGA_XC_B3LYP:  1.00E-15

   => Molecular Quadrature <=

    Radial Scheme          =       TREUTLER
    Pruning Scheme         =           NONE
    Nuclear Scheme         =       TREUTLER

    Blocking Scheme        =         OCTREE
    BS radius alpha        =              1
    Pruning alpha          =              1
    Radial Points          =             75
    Spherical Points       =            302
    Total Points           =          40842
    Total Blocks           =            376
    Max Points             =            252
    Max Functions          =             36
    Weights Tolerance      =       1.00E-15

  -Total Gradient:
     Atom            X                  Y                   Z
    ------   -----------------  -----------------  -----------------
       1        0.000000000000    -0.000107727775     0.000000000000
       2       -0.000000000000     0.000107727775     0.000000000000

*** tstop() called on Joses-MacBook-Pro-2.local at Thu Jul 17 15:45:10 2025
Module time:
	user time   =       2.55 seconds =       0.04 minutes
	system time =       0.93 seconds =       0.02 minutes
	total time  =          0 seconds =       0.00 minutes
Total time:
	user time   =     169.34 seconds =       2.82 minutes
	system time =      48.60 seconds =       0.81 minutes
	total time  =         20 seconds =       0.33 minutes

    			-----------------------------------------

    			 OPTKING 3.0: for geometry optimizations

    			     By R.A. King, Bethel University

    			        with contributions from

    			    A.V. Copan, J. Cayton, A. Heide

    			-----------------------------------------

	                            ===> Fragment 1 <==

	 Z (Atomic Numbers)          Masses                          Geom
	      15.000000            30.973762         -0.00000000  2.01551818  0.00000000
	      15.000000            30.973762          0.00000000 -2.01551818  0.00000000

	 - Coordinate -           - BOHR/RAD -       - ANG/DEG -
	 R(1,2)           =         4.031036           2.133133

	        --- Internal Coordinate Step in ANG or DEG, aJ/ANG or AJ/DEG ---
	-------------------------------------------------------------------------------
	           Coordinate      Previous         Force          Change          New
	           ----------      --------        ------          ------        ------
	               R(1,2)       2.13313        0.00089        0.00035       2.13348
	-------------------------------------------------------------------------------

	                                 ==> Convergence Check <==

	Measures of convergence in internal coordinates in au.

	Criteria marked as inactive (o), active & met (*), and active & unmet ( ).

	----------------------------------------------------------------------------------------------
	   Step    Total Energy     Delta E     Max Force     RMS Force      Max Disp      RMS Disp
	----------------------------------------------------------------------------------------------
	  Convergence Criteria     1.00e-06 *    3.00e-04 *             o    1.20e-03 *             o
	----------------------------------------------------------------------------------------------
	    15    -682.25949115   -1.17e-06      1.08e-04 *    1.08e-04 o    6.57e-04 *    6.57e-04 o  ~
	----------------------------------------------------------------------------------------------

Next Geometry in Ang
	Fragment 1 (Ang)

	    P  -0.0000000000   1.0667400723   0.0000000000
	    P   0.0000000000  -1.0667400723   0.0000000000

    Final optimized geometry and variables:
    Molecular point group: d2h
    Full point group: D_inf_h

    Geometry (in Angstrom), charge = 1, multiplicity = 4:

    P           -0.000000000000     1.066566287230     0.000000000000
    P            0.000000000000    -1.066566287230     0.000000000000

    Psi4 stopped on: Thursday, 17 July 2025 03:45PM
    Psi4 wall time for execution: 0:00:21.24

*** Psi4 exiting successfully. Buy a developer a beer!
