                               Psi4 1.9.1 release

  ==> Input File <==

--------------------------------------------------------------------------
molecule {
1 4
C   0.00000        0.60000        0.00000
O   0.00000       -0.60000        0.00000
}

set {
basis              cc-pvdz
reference          uks
maxiter            500
geom_maxiter       500
DAMPING_PERCENTAGE 1
guess              SAP
}

optimize('b3lyp')
--------------------------------------------------------------------------

    Molecular point group: c2v
  Charge       = 1
  Multiplicity = 4
  Basis Set: CC-PVDZ
    Blend: CC-PVDZ
  Basis Set: (CC-PVDZ AUX)
    Blend: CC-PVDZ-JKFIT
  @DF-UKS Final Energy:  -112.57253660352198
    Total Energy =                       -112.5725366035219821
 Dipole X            :          0.0000000            0.0000000            0.0000000
 Dipole Y            :          0.0000000            0.0000000            0.0000000
 Dipole Z            :          0.7343311           -0.0024716            0.7318595
 Magnitude           :                                                    0.7318595
    Molecular point group: c2v
  Basis Set: CC-PVDZ
    Blend: CC-PVDZ
  Basis Set: (CC-PVDZ AUX)
    Blend: CC-PVDZ-JKFIT
  Basis Set: CC-PVDZ
    Blend: CC-PVDZ
  Basis Set: (CC-PVDZ AUX)
    Blend: CC-PVDZ-JKFIT
  @DF-UKS Final Energy:  -112.58960281731554
    Total Energy =                       -112.5896028173155372
  Basis Set: CC-PVDZ
    Blend: CC-PVDZ
  Basis Set: (CC-PVDZ AUX)
    Blend: CC-PVDZ-JKFIT
  Basis Set: CC-PVDZ
    Blend: CC-PVDZ
  @DF-UKS Final Energy:  -112.59088954963080
    Total Energy =                       -112.5908895496308020
  @DF-UKS Final Energy:  -112.59105339989291
    Total Energy =                       -112.5910533998929139
  @DF-UKS Final Energy:  -112.59107693323973
    Total Energy =                       -112.5910769332397336
  Basis Set: (CC-PVDZ AUX)
    Blend: CC-PVDZ-JKFIT
  Basis Set: CC-PVDZ
    Blend: CC-PVDZ
  Basis Set: (CC-PVDZ AUX)
    Blend: CC-PVDZ-JKFIT
  @DF-UKS Final Energy:  -112.59108047044646
    Total Energy =                       -112.5910804704464567
  Basis Set: CC-PVDZ
    Blend: CC-PVDZ
  Basis Set: (CC-PVDZ AUX)
    Blend: CC-PVDZ-JKFIT
  Charge       = 1
  Multiplicity = 4
  Basis Set: CC-PVDZ
    Blend: CC-PVDZ
  Basis Set: (CC-PVDZ AUX)
    Blend: CC-PVDZ-JKFIT

    Orbital Energies [Eh]
    ---------------------

    Alpha Occupied:

       1A1   -19.714666     2A1   -10.785032     3A1    -1.526678
       4A1    -1.011392     1B2    -0.904542     5A1    -0.839940
       1B1    -0.827534     2B2    -0.628304

    Alpha Virtual:

       2B1    -0.492087     6A1    -0.186744     3B2     0.109489
       7A1     0.118333     3B1     0.132785     8A1     0.185569
       9A1     0.510652     4B2     0.530281     4B1     0.571903
       1A2     0.698905    10A1     0.704250     5B2     0.776493
       5B1     0.797506    11A1     1.256759    12A1     1.294006
       2A2     2.098642    13A1     2.098968     6B2     2.394955
       6B1     2.440567    14A1     2.755079

    Beta Occupied:

       1A1   -19.682499     2A1   -10.747203     3A1    -1.437267
       4A1    -0.915541     1B1    -0.796333

    Beta Virtual:

       1B2    -0.637417     5A1    -0.607813     2B1    -0.429081
       2B2    -0.359270     6A1    -0.114816     3B1     0.154158
       7A1     0.164256     3B2     0.186472     8A1     0.259407
       9A1     0.543487     4B1     0.590165     4B2     0.632591
       1A2     0.795497    10A1     0.798432     5B1     0.855636
       5B2     0.894735    11A1     1.337521    12A1     1.351553
       2A2     2.184926    13A1     2.193062     6B1     2.471570
       6B2     2.505312    14A1     2.813586

    Final Occupation by Irrep:
             A1    A2    B1    B2
    DOCC [     4,    0,    1,    0 ]
    SOCC [     1,    0,    0,    2 ]
    NA   [     5,    0,    1,    2 ]
    NB   [     4,    0,    1,    0 ]

  @DF-UKS Final Energy:  -112.59108109464695

   => Energetics <=

    Nuclear Repulsion Energy =             19.1206295727866653
    One-Electron Energy =                -185.7789798242392578
    Two-Electron Energy =                  64.9441609618873770
    DFT Exchange-Correlation Energy =     -10.8768918050817369
    Empirical Dispersion Energy =           0.0000000000000000
    VV10 Nonlocal Energy =                  0.0000000000000000
    Total Energy =                       -112.5910810946469525

  UHF NO Occupations:
  HONO-2 :    1 B2 1.0000000
  HONO-1 :    2 B2 1.0000000
  HONO-0 :    5 A1 1.0000000
  LUNO+0 :    2 B1 0.0009512
  LUNO+1 :    6 A1 0.0006699
  LUNO+2 :    7 A1 0.0004911
  LUNO+3 :    8 A1 0.0000003

Computation Completed

Properties will be evaluated at   0.000000,   0.000000,   0.000000 [a0]

Properties computed using the SCF density matrix

 Multipole Moments:

 ------------------------------------------------------------------------------------
     Multipole            Electronic (a.u.)      Nuclear  (a.u.)        Total (a.u.)
 ------------------------------------------------------------------------------------

 L = 1.  Multiply by 2.5417464519 to convert [e a0] to [Debye]
 Dipole X            :          0.0000000            0.0000000            0.0000000
 Dipole Y            :          0.0000000            0.0000000            0.0000000
 Dipole Z            :          0.8301254           -0.0027361            0.8273893
 Magnitude           :                                                    0.8273893

 ------------------------------------------------------------------------------------

*** tstop() called on Joses-MacBook-Pro-2.local at Thu Jul 17 13:41:13 2025
Module time:
	user time   =       3.25 seconds =       0.05 minutes
	system time =       3.33 seconds =       0.06 minutes
	total time  =          1 seconds =       0.02 minutes
Total time:
	user time   =      24.83 seconds =       0.41 minutes
	system time =      36.55 seconds =       0.61 minutes
	total time  =          6 seconds =       0.10 minutes

*** tstart() called on Joses-MacBook-Pro-2.local
*** at Thu Jul 17 13:41:13 2025

         ------------------------------------------------------------
                                   SCF GRAD
                          Rob Parrish, Justin Turney,
                       Andy Simmonett, and Alex Sokolov
         ------------------------------------------------------------

  ==> Geometry <==

    Molecular point group: c2v
    Full point group: C_inf_v

    Geometry (in Angstrom), charge = 1, multiplicity = 4:

       Center              X                  Y                   Z               Mass
    ------------   -----------------  -----------------  -----------------  -----------------
         C            0.000000000000     0.000000000000     0.759002071353    12.000000000000
         O            0.000000000000     0.000000000000    -0.569432539833    15.994914619570

  Nuclear repulsion =   19.120629572786665

  ==> Basis Set <==

  Basis Set: CC-PVDZ
    Blend: CC-PVDZ
    Number of shells: 12
    Number of basis functions: 28
    Number of Cartesian functions: 30
    Spherical Harmonics?: true
    Max angular momentum: 2

  ==> DFJKGrad: Density-Fitted SCF Gradients <==

    Gradient:                    1
    J tasked:                  Yes
    K tasked:                  Yes
    wK tasked:                  No
    OpenMP threads:              1
    Integrals threads:           1
    Memory [MiB]:              375
    Schwarz Cutoff:          1E-12
    Fitting Condition:       1E-10

   => Auxiliary Basis Set <=

  Basis Set: (CC-PVDZ AUX)
    Blend: CC-PVDZ-JKFIT
    Number of shells: 48
    Number of basis functions: 140
    Number of Cartesian functions: 162
    Spherical Harmonics?: true
    Max angular momentum: 3

  ==> DFT Potential <==

   => LibXC <=

    Version 6.2.2
    S. Lehtola, C. Steigemann, M. J.T. Oliveira, and M. A.L. Marques.,  SoftwareX 7, 1â€“5 (2018) (10.1016/j.softx.2017.11.002)

   => Composite Functional: B3LYP <=

    B3LYP Hyb-GGA Exchange-Correlation Functional

    P. J. Stephens, F. J. Devlin, C. F. Chabalowski, and M. J. Frisch.,  J. Phys. Chem. 98, 11623 (1994) (10.1021/j100096a001)

    Deriv               =              1
    GGA                 =           TRUE
    Meta                =          FALSE

    Exchange Hybrid     =           TRUE
    MP2 Hybrid          =          FALSE

   => Exchange Functionals <=

    0.0800   Slater exchange
    0.7200         Becke 88

   => Exact (HF) Exchange <=

    0.2000               HF

   => Correlation Functionals <=

    0.1900   Vosko, Wilk & Nusair (VWN5_RPA)
    0.8100   Lee, Yang & Parr

   => LibXC Density Thresholds  <==

    XC_HYB_GGA_XC_B3LYP:  1.00E-15

   => Molecular Quadrature <=

    Radial Scheme          =       TREUTLER
    Pruning Scheme         =           NONE
    Nuclear Scheme         =       TREUTLER

    Blocking Scheme        =         OCTREE
    BS radius alpha        =              1
    Pruning alpha          =              1
    Radial Points          =             75
    Spherical Points       =            302
    Total Points           =          42769
    Total Blocks           =            381
    Max Points             =            256
    Max Functions          =             28
    Weights Tolerance      =       1.00E-15

  -Total Gradient:
     Atom            X                  Y                   Z
    ------   -----------------  -----------------  -----------------
       1        0.000000000000     0.000000000000    -0.000110089252
       2        0.000000000000     0.000000000000     0.000115806810

*** tstop() called on Joses-MacBook-Pro-2.local at Thu Jul 17 13:41:13 2025
Module time:
	user time   =       0.51 seconds =       0.01 minutes
	system time =       1.26 seconds =       0.02 minutes
	total time  =          0 seconds =       0.00 minutes
Total time:
	user time   =      25.34 seconds =       0.42 minutes
	system time =      37.81 seconds =       0.63 minutes
	total time  =          6 seconds =       0.10 minutes

    			-----------------------------------------

    			 OPTKING 3.0: for geometry optimizations

    			     By R.A. King, Bethel University

    			        with contributions from

    			    A.V. Copan, J. Cayton, A. Heide

    			-----------------------------------------

	                            ===> Fragment 1 <==

	 Z (Atomic Numbers)          Masses                          Geom
	       6.000000            12.000000          0.00000000  0.00000000  1.43430604
	       8.000000            15.994915          0.00000000  0.00000000 -1.07607155

	 - Coordinate -           - BOHR/RAD -       - ANG/DEG -
	 R(1,2)           =         2.510378           1.328435

	        --- Internal Coordinate Step in ANG or DEG, aJ/ANG or AJ/DEG ---
	-------------------------------------------------------------------------------
	           Coordinate      Previous         Force          Change          New
	           ----------      --------        ------          ------        ------
	               R(1,2)       1.32843        0.00093        0.00013       1.32856
	-------------------------------------------------------------------------------

	                                 ==> Convergence Check <==

	Measures of convergence in internal coordinates in au.

	Criteria marked as inactive (o), active & met (*), and active & unmet ( ).

	----------------------------------------------------------------------------------------------
	   Step    Total Energy     Delta E     Max Force     RMS Force      Max Disp      RMS Disp
	----------------------------------------------------------------------------------------------
	  Convergence Criteria     1.00e-06 *    3.00e-04 *             o    1.20e-03 *             o
	----------------------------------------------------------------------------------------------
	     7    -112.59108109   -6.24e-07 *    1.13e-04 *    1.13e-04 o    2.38e-04 *    2.38e-04 o  ~
	----------------------------------------------------------------------------------------------

Next Geometry in Ang
	Fragment 1 (Ang)

	    C   0.0000000000   0.0000000000   0.7590650732
	    O   0.0000000000   0.0000000000  -0.5694955417

    Final optimized geometry and variables:
    Molecular point group: c2v
    Full point group: C_inf_v

    Geometry (in Angstrom), charge = 1, multiplicity = 4:

    C            0.000000000000     0.000000000000     0.759002071353
    O            0.000000000000     0.000000000000    -0.569432539833

    Psi4 stopped on: Thursday, 17 July 2025 01:41PM
    Psi4 wall time for execution: 0:00:06.60

*** Psi4 exiting successfully. Buy a developer a beer!
