                               Psi4 1.9.1 release

  ==> Input File <==

--------------------------------------------------------------------------
molecule {
1 4
F   0.00000        0.60000        0.00000
Na   0.00000       -0.60000        0.00000
}

set {
basis              cc-pvdz
reference          uks
maxiter            500
geom_maxiter       500
DAMPING_PERCENTAGE 1
guess              SAP
}

optimize('b3lyp')
--------------------------------------------------------------------------

    Molecular point group: c2v
  Charge       = 1
  Multiplicity = 4
  Basis Set: CC-PVDZ
    Blend: CC-PVDZ
  Basis Set: (CC-PVDZ AUX)
    Blend: CC-PVDZ-JKFIT + DEF2-UNIVERSAL-JKFIT
  @DF-UKS Final Energy:  -260.84826653833773
    Total Energy =                       -260.8482665383377253
 Dipole X            :          0.0000000            0.0000000            0.0000000
 Dipole Y            :          0.0000000            0.0000000            0.0000000
 Dipole Z            :          0.4519982           -0.1120389            0.3399592
 Magnitude           :                                                    0.3399592
    Molecular point group: c2v
  Basis Set: CC-PVDZ
    Blend: CC-PVDZ
  Basis Set: (CC-PVDZ AUX)
    Blend: CC-PVDZ-JKFIT + DEF2-UNIVERSAL-JKFIT
  Basis Set: CC-PVDZ
    Blend: CC-PVDZ
  Basis Set: (CC-PVDZ AUX)
    Blend: CC-PVDZ-JKFIT + DEF2-UNIVERSAL-JKFIT
  @DF-UKS Final Energy:  -261.03451226614789
    Total Energy =                       -261.0345122661478854
  Basis Set: CC-PVDZ
    Blend: CC-PVDZ
  Basis Set: (CC-PVDZ AUX)
    Blend: CC-PVDZ-JKFIT + DEF2-UNIVERSAL-JKFIT
  Basis Set: CC-PVDZ
    Blend: CC-PVDZ
  @DF-UKS Final Energy:  -261.15818263183610
    Total Energy =                       -261.1581826318360982
  @DF-UKS Final Energy:  -261.23500872617791
    Total Energy =                       -261.2350087261779095
  @DF-UKS Final Energy:  -261.28611168821772
    Total Energy =                       -261.2861116882177157
  @DF-UKS Final Energy:  -261.32371277293555
    Total Energy =                       -261.3237127729355507
  @DF-UKS Final Energy:  -261.35504341473904
    Total Energy =                       -261.3550434147390433
  @DF-UKS Final Energy:  -261.35964615426826
    Total Energy =                       -261.3596461542682619
  @DF-UKS Final Energy:  -261.38242816352914
    Total Energy =                       -261.3824281635291413
  @DF-UKS Final Energy:  -261.38403753841072
    Total Energy =                       -261.3840375384107233
  @DF-UKS Final Energy:  -261.39367692190945
    Total Energy =                       -261.3936769219094458
  @DF-UKS Final Energy:  -261.39403663304671
    Total Energy =                       -261.3940366330467100
  @DF-UKS Final Energy:  -261.39698816747028
    Total Energy =                       -261.3969881674702833
  @DF-UKS Final Energy:  -261.39749081303330
    Total Energy =                       -261.3974908130333006
  @DF-UKS Final Energy:  -261.39755934357146
    Total Energy =                       -261.3975593435714586
  Basis Set: (CC-PVDZ AUX)
    Blend: CC-PVDZ-JKFIT + DEF2-UNIVERSAL-JKFIT
  Basis Set: CC-PVDZ
    Blend: CC-PVDZ
  Basis Set: (CC-PVDZ AUX)
    Blend: CC-PVDZ-JKFIT + DEF2-UNIVERSAL-JKFIT
  @DF-UKS Final Energy:  -261.39756197072575
    Total Energy =                       -261.3975619707257465
  Basis Set: CC-PVDZ
    Blend: CC-PVDZ
  Basis Set: (CC-PVDZ AUX)
    Blend: CC-PVDZ-JKFIT + DEF2-UNIVERSAL-JKFIT
  Charge       = 1
  Multiplicity = 4
  Basis Set: CC-PVDZ
    Blend: CC-PVDZ
  Basis Set: (CC-PVDZ AUX)
    Blend: CC-PVDZ-JKFIT + DEF2-UNIVERSAL-JKFIT

    Orbital Energies [Eh]
    ---------------------

    Alpha Occupied:

       1A1   -38.638095     2A1   -25.532939     3A1    -2.382988
       4A1    -1.872892     5A1    -1.313905     1B1    -1.313861
       1B2    -1.313850     2B1    -1.166394     6A1    -1.165989
       2B2    -1.068999     7A1    -0.291789

    Alpha Virtual:

       8A1    -0.160327     3B1    -0.144079     3B2    -0.143182
       9A1    -0.097467     4B1    -0.036279     4B2    -0.035836
      10A1    -0.034562    11A1     0.013736     5B1     0.016263
       5B2     0.017265     1A2     0.035139    12A1     0.035141
       6B1     0.560049     6B2     0.609836    13A1     0.613768
      14A1     1.001277     7B1     2.782967    15A1     2.784615
       2A2     2.852615     7B2     2.854155    16A1     2.879284

    Beta Occupied:

       1A1   -38.636755     2A1   -25.463587     3A1    -2.380411
       4A1    -1.678282     1B1    -1.312292     1B2    -1.312283
       5A1    -1.311570     2B2    -1.000789

    Beta Virtual:

       2B1    -0.807581     6A1    -0.806816     7A1    -0.215533
       8A1    -0.147123     3B2    -0.120978     3B1    -0.120750
       9A1    -0.069618    10A1    -0.028170     4B2    -0.025596
       4B1    -0.025336    11A1     0.034545     5B2     0.038475
       5B1     0.038631    12A1     0.050247     1A2     0.050257
       6B2     0.639709     6B1     0.673791    13A1     0.726037
      14A1     1.092235     2A2     2.965304     7B2     2.967015
      15A1     2.975938     7B1     2.996834    16A1     2.998501

    Final Occupation by Irrep:
             A1    A2    B1    B2
    DOCC [     5,    0,    1,    2 ]
    SOCC [     2,    0,    1,    0 ]
    NA   [     7,    0,    2,    2 ]
    NB   [     5,    0,    1,    2 ]

  @DF-UKS Final Energy:  -261.39756220370737

   => Energetics <=

    Nuclear Repulsion Energy =             14.9200154134958680
    One-Electron Energy =                -389.4069990466881563
    Two-Electron Energy =                 132.7384062326139258
    DFT Exchange-Correlation Energy =     -19.6489848031289966
    Empirical Dispersion Energy =           0.0000000000000000
    VV10 Nonlocal Energy =                  0.0000000000000000
    Total Energy =                       -261.3975622037073663

  UHF NO Occupations:
  HONO-2 :    6 A1 1.0000000
  HONO-1 :    7 A1 1.0000000
  HONO-0 :    2 B1 1.0000000
  LUNO+0 :    8 A1 0.0006339
  LUNO+1 :    3 B2 0.0002055
  LUNO+2 :    9 A1 0.0000012
  LUNO+3 :    3 B1 0.0000005

Computation Completed

Properties will be evaluated at   0.000000,   0.000000,   0.000000 [a0]

Properties computed using the SCF density matrix

 Multipole Moments:

 ------------------------------------------------------------------------------------
     Multipole            Electronic (a.u.)      Nuclear  (a.u.)        Total (a.u.)
 ------------------------------------------------------------------------------------

 L = 1.  Multiply by 2.5417464519 to convert [e a0] to [Debye]
 Dipole X            :          0.0000000            0.0000000            0.0000000
 Dipole Y            :          0.0000000            0.0000000            0.0000000
 Dipole Z            :          1.7685221           -0.3278346            1.4406875
 Magnitude           :                                                    1.4406875

 ------------------------------------------------------------------------------------

*** tstop() called on Joses-MacBook-Pro-2.local at Thu Jul 17 14:26:01 2025
Module time:
	user time   =       3.09 seconds =       0.05 minutes
	system time =       2.26 seconds =       0.04 minutes
	total time  =          0 seconds =       0.00 minutes
Total time:
	user time   =      74.95 seconds =       1.25 minutes
	system time =      82.24 seconds =       1.37 minutes
	total time  =         15 seconds =       0.25 minutes

*** tstart() called on Joses-MacBook-Pro-2.local
*** at Thu Jul 17 14:26:01 2025

         ------------------------------------------------------------
                                   SCF GRAD
                          Rob Parrish, Justin Turney,
                       Andy Simmonett, and Alex Sokolov
         ------------------------------------------------------------

  ==> Geometry <==

    Molecular point group: c2v
    Full point group: C_inf_v

    Geometry (in Angstrom), charge = 1, multiplicity = 4:

       Center              X                  Y                   Z               Mass
    ------------   -----------------  -----------------  -----------------  -----------------
         F            0.000000000000     0.000000000000     1.922536953608    18.998403162730
         NA           0.000000000000     0.000000000000    -1.588755924075    22.989769282000

  Nuclear repulsion =   14.920015413495868

  ==> Basis Set <==

  Basis Set: CC-PVDZ
    Blend: CC-PVDZ
    Number of shells: 14
    Number of basis functions: 32
    Number of Cartesian functions: 34
    Spherical Harmonics?: true
    Max angular momentum: 2

  ==> DFJKGrad: Density-Fitted SCF Gradients <==

    Gradient:                    1
    J tasked:                  Yes
    K tasked:                  Yes
    wK tasked:                  No
    OpenMP threads:              1
    Integrals threads:           1
    Memory [MiB]:              375
    Schwarz Cutoff:          1E-12
    Fitting Condition:       1E-10

   => Auxiliary Basis Set <=

  Basis Set: (CC-PVDZ AUX)
    Blend: CC-PVDZ-JKFIT + DEF2-UNIVERSAL-JKFIT
    Number of shells: 58
    Number of basis functions: 182
    Number of Cartesian functions: 218
    Spherical Harmonics?: true
    Max angular momentum: 4

  ==> DFT Potential <==

   => LibXC <=

    Version 6.2.2
    S. Lehtola, C. Steigemann, M. J.T. Oliveira, and M. A.L. Marques.,  SoftwareX 7, 1â€“5 (2018) (10.1016/j.softx.2017.11.002)

   => Composite Functional: B3LYP <=

    B3LYP Hyb-GGA Exchange-Correlation Functional

    P. J. Stephens, F. J. Devlin, C. F. Chabalowski, and M. J. Frisch.,  J. Phys. Chem. 98, 11623 (1994) (10.1021/j100096a001)

    Deriv               =              1
    GGA                 =           TRUE
    Meta                =          FALSE

    Exchange Hybrid     =           TRUE
    MP2 Hybrid          =          FALSE

   => Exchange Functionals <=

    0.0800   Slater exchange
    0.7200         Becke 88

   => Exact (HF) Exchange <=

    0.2000               HF

   => Correlation Functionals <=

    0.1900   Vosko, Wilk & Nusair (VWN5_RPA)
    0.8100   Lee, Yang & Parr

   => LibXC Density Thresholds  <==

    XC_HYB_GGA_XC_B3LYP:  1.00E-15

   => Molecular Quadrature <=

    Radial Scheme          =       TREUTLER
    Pruning Scheme         =           NONE
    Nuclear Scheme         =       TREUTLER

    Blocking Scheme        =         OCTREE
    BS radius alpha        =              1
    Pruning alpha          =              1
    Radial Points          =             75
    Spherical Points       =            302
    Total Points           =          43886
    Total Blocks           =            424
    Max Points             =            256
    Max Functions          =             32
    Weights Tolerance      =       1.00E-15

  -Total Gradient:
     Atom            X                  Y                   Z
    ------   -----------------  -----------------  -----------------
       1        0.000000000000     0.000000000000     0.000033418170
       2        0.000000000000     0.000000000000     0.000040904169

*** tstop() called on Joses-MacBook-Pro-2.local at Thu Jul 17 14:26:01 2025
Module time:
	user time   =       0.81 seconds =       0.01 minutes
	system time =       2.03 seconds =       0.03 minutes
	total time  =          0 seconds =       0.00 minutes
Total time:
	user time   =      75.76 seconds =       1.26 minutes
	system time =      84.27 seconds =       1.40 minutes
	total time  =         15 seconds =       0.25 minutes

    			-----------------------------------------

    			 OPTKING 3.0: for geometry optimizations

    			     By R.A. King, Bethel University

    			        with contributions from

    			    A.V. Copan, J. Cayton, A. Heide

    			-----------------------------------------

	                            ===> Fragment 1 <==

	 Z (Atomic Numbers)          Masses                          Geom
	       9.000000            18.998403          0.00000000  0.00000000  3.63306831
	      11.000000            22.989769          0.00000000  0.00000000 -3.00231358

	 - Coordinate -           - BOHR/RAD -       - ANG/DEG -
	 R(1,2)           =         6.635382           3.511293

	        --- Internal Coordinate Step in ANG or DEG, aJ/ANG or AJ/DEG ---
	-------------------------------------------------------------------------------
	           Coordinate      Previous         Force          Change          New
	           ----------      --------        ------          ------        ------
	               R(1,2)       3.51129        0.00003        0.00020       3.51150
	-------------------------------------------------------------------------------

	                                 ==> Convergence Check <==

	Measures of convergence in internal coordinates in au.

	Criteria marked as inactive (o), active & met (*), and active & unmet ( ).

	----------------------------------------------------------------------------------------------
	   Step    Total Energy     Delta E     Max Force     RMS Force      Max Disp      RMS Disp
	----------------------------------------------------------------------------------------------
	  Convergence Criteria     1.00e-06 *    3.00e-04 *             o    1.20e-03 *             o
	----------------------------------------------------------------------------------------------
	    17    -261.39756220   -2.33e-07 *    3.74e-06 *    3.74e-06 o    3.84e-04 *    3.84e-04 o  ~
	----------------------------------------------------------------------------------------------

Next Geometry in Ang
	Fragment 1 (Ang)

	    F   0.0000000000   0.0000000000   1.9226386190
	   Na   0.0000000000   0.0000000000  -1.5888575894

    Final optimized geometry and variables:
    Molecular point group: c2v
    Full point group: C_inf_v

    Geometry (in Angstrom), charge = 1, multiplicity = 4:

    F            0.000000000000     0.000000000000     1.922536953608
    NA           0.000000000000     0.000000000000    -1.588755924075

    Psi4 stopped on: Thursday, 17 July 2025 02:26PM
    Psi4 wall time for execution: 0:00:16.17

*** Psi4 exiting successfully. Buy a developer a beer!
