                               Psi4 1.9.1 release

  ==> Input File <==

--------------------------------------------------------------------------
molecule {
1 4
C   0.00000        0.60000        0.00000
S   0.00000       -0.60000        0.00000
}

set {
basis              cc-pvdz
reference          uks
maxiter            500
geom_maxiter       500
DAMPING_PERCENTAGE 1
guess              SAP
}

optimize('b3lyp')
--------------------------------------------------------------------------

    Molecular point group: c2v
  Charge       = 1
  Multiplicity = 4
  Basis Set: CC-PVDZ
    Blend: CC-PVDZ
  Basis Set: (CC-PVDZ AUX)
    Blend: CC-PVDZ-JKFIT
  @DF-UKS Final Energy:  -435.33917017825001
    Total Energy =                       -435.3391701782500718
 Dipole X            :          0.0000000            0.0000000            0.0000000
 Dipole Y            :          0.0000000            0.0000000            0.0000000
 Dipole Z            :          0.2484108           -0.0086419            0.2397690
 Magnitude           :                                                    0.2397690
    Molecular point group: c2v
  Basis Set: CC-PVDZ
    Blend: CC-PVDZ
  Basis Set: (CC-PVDZ AUX)
    Blend: CC-PVDZ-JKFIT
  Basis Set: CC-PVDZ
    Blend: CC-PVDZ
  Basis Set: (CC-PVDZ AUX)
    Blend: CC-PVDZ-JKFIT
  @DF-UKS Final Energy:  -435.56238932935310
    Total Energy =                       -435.5623893293530955
  Basis Set: CC-PVDZ
    Blend: CC-PVDZ
  Basis Set: (CC-PVDZ AUX)
    Blend: CC-PVDZ-JKFIT
  Basis Set: CC-PVDZ
    Blend: CC-PVDZ
  @DF-UKS Final Energy:  -435.64627611907071
    Total Energy =                       -435.6462761190707056
  @DF-UKS Final Energy:  -435.67271636497327
    Total Energy =                       -435.6727163649732688
  @DF-UKS Final Energy:  -435.68645726266061
    Total Energy =                       -435.6864572626606105
  @DF-UKS Final Energy:  -435.69050312324237
    Total Energy =                       -435.6905031232423653
  @DF-UKS Final Energy:  -435.69227348798267
    Total Energy =                       -435.6922734879826749
  @DF-UKS Final Energy:  -435.69267925590015
    Total Energy =                       -435.6926792559001456
  @DF-UKS Final Energy:  -435.69279682856813
    Total Energy =                       -435.6927968285681345
  Basis Set: (CC-PVDZ AUX)
    Blend: CC-PVDZ-JKFIT
  Basis Set: CC-PVDZ
    Blend: CC-PVDZ
  Basis Set: (CC-PVDZ AUX)
    Blend: CC-PVDZ-JKFIT
  @DF-UKS Final Energy:  -435.69281812830820
    Total Energy =                       -435.6928181283081472
  Basis Set: CC-PVDZ
    Blend: CC-PVDZ
  Basis Set: (CC-PVDZ AUX)
    Blend: CC-PVDZ-JKFIT
  Charge       = 1
  Multiplicity = 4
  Basis Set: CC-PVDZ
    Blend: CC-PVDZ
  Basis Set: (CC-PVDZ AUX)
    Blend: CC-PVDZ-JKFIT

    Orbital Energies [Eh]
    ---------------------

    Alpha Occupied:

       1A1   -89.303712     2A1   -10.654308     3A1    -8.358308
       1B2    -6.326397     4A1    -6.321722     1B1    -6.312067
       5A1    -1.156115     6A1    -0.886364     2B2    -0.703319
       7A1    -0.697565     2B1    -0.652322     3B2    -0.540778

    Alpha Virtual:

       3B1    -0.432007     8A1    -0.238805     9A1     0.104696
       4B2     0.153975    10A1     0.166363     5B2     0.167164
       4B1     0.174114    11A1     0.189730     5B1     0.199879
       1A2     0.219268    12A1     0.220910     6B2     0.275525
       6B1     0.298704    13A1     0.515364    14A1     0.672132
       2A2     0.806204    15A1     0.809580     7B2     1.008361
       7B1     1.028967    16A1     1.407583

    Beta Occupied:

       1A1   -89.296580     2A1   -10.620103     3A1    -8.351041
       4A1    -6.312876     1B1    -6.309867     1B2    -6.304826
       5A1    -1.091612     6A1    -0.795986     2B1    -0.631907

    Beta Virtual:

       2B2    -0.527588     7A1    -0.504513     3B1    -0.383601
       3B2    -0.332420     8A1    -0.184089     9A1     0.134050
       4B1     0.182297    10A1     0.201658     4B2     0.202819
       5B1     0.231949    11A1     0.252234     5B2     0.264957
       1A2     0.271397    12A1     0.275863     6B1     0.314095
       6B2     0.336531    13A1     0.554424    14A1     0.718619
       2A2     0.894709    15A1     0.896875     7B1     1.087523
       7B2     1.120497    16A1     1.488838

    Final Occupation by Irrep:
             A1    A2    B1    B2
    DOCC [     6,    0,    2,    1 ]
    SOCC [     1,    0,    0,    2 ]
    NA   [     7,    0,    2,    3 ]
    NB   [     6,    0,    2,    1 ]

  @DF-UKS Final Energy:  -435.69281980931169

   => Energetics <=

    Nuclear Repulsion Energy =             30.0060021281615619
    One-Electron Energy =                -652.1622506674207216
    Two-Electron Energy =                 211.1631152549820172
    DFT Exchange-Correlation Energy =     -24.6996865250345010
    Empirical Dispersion Energy =           0.0000000000000000
    VV10 Nonlocal Energy =                  0.0000000000000000
    Total Energy =                       -435.6928198093116862

  UHF NO Occupations:
  HONO-2 :    2 B2 1.0000000
  HONO-1 :    7 A1 1.0000000
  HONO-0 :    3 B2 1.0000000
  LUNO+0 :    3 B1 0.0079303
  LUNO+1 :    8 A1 0.0012115
  LUNO+2 :    9 A1 0.0005539
  LUNO+3 :   10 A1 0.0000002

Computation Completed

Properties will be evaluated at   0.000000,   0.000000,   0.000000 [a0]

Properties computed using the SCF density matrix

 Multipole Moments:

 ------------------------------------------------------------------------------------
     Multipole            Electronic (a.u.)      Nuclear  (a.u.)        Total (a.u.)
 ------------------------------------------------------------------------------------

 L = 1.  Multiply by 2.5417464519 to convert [e a0] to [Debye]
 Dipole X            :          0.0000000            0.0000000            0.0000000
 Dipole Y            :          0.0000000            0.0000000            0.0000000
 Dipole Z            :          0.2958412           -0.0121924            0.2836488
 Magnitude           :                                                    0.2836488

 ------------------------------------------------------------------------------------

*** tstop() called on Joses-MacBook-Pro-2.local at Thu Jul 17 13:46:12 2025
Module time:
	user time   =       3.47 seconds =       0.06 minutes
	system time =       4.56 seconds =       0.08 minutes
	total time  =          1 seconds =       0.02 minutes
Total time:
	user time   =      48.49 seconds =       0.81 minutes
	system time =      72.75 seconds =       1.21 minutes
	total time  =         12 seconds =       0.20 minutes

*** tstart() called on Joses-MacBook-Pro-2.local
*** at Thu Jul 17 13:46:12 2025

         ------------------------------------------------------------
                                   SCF GRAD
                          Rob Parrish, Justin Turney,
                       Andy Simmonett, and Alex Sokolov
         ------------------------------------------------------------

  ==> Geometry <==

    Molecular point group: c2v
    Full point group: C_inf_v

    Geometry (in Angstrom), charge = 1, multiplicity = 4:

       Center              X                  Y                   Z               Mass
    ------------   -----------------  -----------------  -----------------  -----------------
         C            0.000000000000     0.000000000000     1.231000073655    12.000000000000
         S            0.000000000000     0.000000000000    -0.462028274718    31.972071174400

  Nuclear repulsion =   30.006002128161562

  ==> Basis Set <==

  Basis Set: CC-PVDZ
    Blend: CC-PVDZ
    Number of shells: 14
    Number of basis functions: 32
    Number of Cartesian functions: 34
    Spherical Harmonics?: true
    Max angular momentum: 2

  ==> DFJKGrad: Density-Fitted SCF Gradients <==

    Gradient:                    1
    J tasked:                  Yes
    K tasked:                  Yes
    wK tasked:                  No
    OpenMP threads:              1
    Integrals threads:           1
    Memory [MiB]:              375
    Schwarz Cutoff:          1E-12
    Fitting Condition:       1E-10

   => Auxiliary Basis Set <=

  Basis Set: (CC-PVDZ AUX)
    Blend: CC-PVDZ-JKFIT
    Number of shells: 60
    Number of basis functions: 182
    Number of Cartesian functions: 211
    Spherical Harmonics?: true
    Max angular momentum: 3

  ==> DFT Potential <==

   => LibXC <=

    Version 6.2.2
    S. Lehtola, C. Steigemann, M. J.T. Oliveira, and M. A.L. Marques.,  SoftwareX 7, 1â€“5 (2018) (10.1016/j.softx.2017.11.002)

   => Composite Functional: B3LYP <=

    B3LYP Hyb-GGA Exchange-Correlation Functional

    P. J. Stephens, F. J. Devlin, C. F. Chabalowski, and M. J. Frisch.,  J. Phys. Chem. 98, 11623 (1994) (10.1021/j100096a001)

    Deriv               =              1
    GGA                 =           TRUE
    Meta                =          FALSE

    Exchange Hybrid     =           TRUE
    MP2 Hybrid          =          FALSE

   => Exchange Functionals <=

    0.0800   Slater exchange
    0.7200         Becke 88

   => Exact (HF) Exchange <=

    0.2000               HF

   => Correlation Functionals <=

    0.1900   Vosko, Wilk & Nusair (VWN5_RPA)
    0.8100   Lee, Yang & Parr

   => LibXC Density Thresholds  <==

    XC_HYB_GGA_XC_B3LYP:  1.00E-15

   => Molecular Quadrature <=

    Radial Scheme          =       TREUTLER
    Pruning Scheme         =           NONE
    Nuclear Scheme         =       TREUTLER

    Blocking Scheme        =         OCTREE
    BS radius alpha        =              1
    Pruning alpha          =              1
    Radial Points          =             75
    Spherical Points       =            302
    Total Points           =          41363
    Total Blocks           =            368
    Max Points             =            255
    Max Functions          =             32
    Weights Tolerance      =       1.00E-15

  -Total Gradient:
     Atom            X                  Y                   Z
    ------   -----------------  -----------------  -----------------
       1       -0.000000000000    -0.000000000000    -0.000189142341
       2       -0.000000000000     0.000000000000     0.000174582971

*** tstop() called on Joses-MacBook-Pro-2.local at Thu Jul 17 13:46:12 2025
Module time:
	user time   =       0.78 seconds =       0.01 minutes
	system time =       1.74 seconds =       0.03 minutes
	total time  =          0 seconds =       0.00 minutes
Total time:
	user time   =      49.27 seconds =       0.82 minutes
	system time =      74.50 seconds =       1.24 minutes
	total time  =         12 seconds =       0.20 minutes

    			-----------------------------------------

    			 OPTKING 3.0: for geometry optimizations

    			     By R.A. King, Bethel University

    			        with contributions from

    			    A.V. Copan, J. Cayton, A. Heide

    			-----------------------------------------

	                            ===> Fragment 1 <==

	 Z (Atomic Numbers)          Masses                          Geom
	       6.000000            12.000000          0.00000000  0.00000000  2.32625300
	      16.000000            31.972071          0.00000000  0.00000000 -0.87310690

	 - Coordinate -           - BOHR/RAD -       - ANG/DEG -
	 R(1,2)           =         3.199360           1.693028

	        --- Internal Coordinate Step in ANG or DEG, aJ/ANG or AJ/DEG ---
	-------------------------------------------------------------------------------
	           Coordinate      Previous         Force          Change          New
	           ----------      --------        ------          ------        ------
	               R(1,2)       1.69303        0.00150        0.00032       1.69335
	-------------------------------------------------------------------------------

	                                 ==> Convergence Check <==

	Measures of convergence in internal coordinates in au.

	Criteria marked as inactive (o), active & met (*), and active & unmet ( ).

	----------------------------------------------------------------------------------------------
	   Step    Total Energy     Delta E     Max Force     RMS Force      Max Disp      RMS Disp
	----------------------------------------------------------------------------------------------
	  Convergence Criteria     1.00e-06 *    3.00e-04 *             o    1.20e-03 *             o
	----------------------------------------------------------------------------------------------
	    11    -435.69281981   -1.68e-06      1.82e-04 *    1.82e-04 o    6.05e-04 *    6.05e-04 o  ~
	----------------------------------------------------------------------------------------------

Next Geometry in Ang
	Fragment 1 (Ang)

	    C   0.0000000000   0.0000000000   1.2311601226
	    S   0.0000000000   0.0000000000  -0.4621883236

    Final optimized geometry and variables:
    Molecular point group: c2v
    Full point group: C_inf_v

    Geometry (in Angstrom), charge = 1, multiplicity = 4:

    C            0.000000000000     0.000000000000     1.231000073655
    S            0.000000000000     0.000000000000    -0.462028274718

    Psi4 stopped on: Thursday, 17 July 2025 01:46PM
    Psi4 wall time for execution: 0:00:12.39

*** Psi4 exiting successfully. Buy a developer a beer!
