                               Psi4 1.9.1 release

  ==> Input File <==

--------------------------------------------------------------------------
molecule {
1 4
F   0.00000        0.60000        0.00000
Cl   0.00000       -0.60000        0.00000
}

set {
basis              cc-pvdz
reference          uks
maxiter            500
geom_maxiter       500
DAMPING_PERCENTAGE 1
guess              SAP
}

optimize('b3lyp')
--------------------------------------------------------------------------

    Molecular point group: c2v
  Charge       = 1
  Multiplicity = 4
  Basis Set: CC-PVDZ
    Blend: CC-PVDZ
  Basis Set: (CC-PVDZ AUX)
    Blend: CC-PVDZ-JKFIT
  @DF-UKS Final Energy:  -559.04938151714794
    Total Energy =                       -559.0493815171478218
 Dipole X            :          0.0000000            0.0000000            0.0000000
 Dipole Y            :          0.0000000            0.0000000            0.0000000
 Dipole Z            :          0.3492479           -0.3467936            0.0024543
 Magnitude           :                                                    0.0024543
    Molecular point group: c2v
  Basis Set: CC-PVDZ
    Blend: CC-PVDZ
  Basis Set: (CC-PVDZ AUX)
    Blend: CC-PVDZ-JKFIT
  Basis Set: CC-PVDZ
    Blend: CC-PVDZ
  Basis Set: (CC-PVDZ AUX)
    Blend: CC-PVDZ-JKFIT
  @DF-UKS Final Energy:  -559.22326343025873
    Total Energy =                       -559.2232634302587257
  Basis Set: CC-PVDZ
    Blend: CC-PVDZ
  Basis Set: (CC-PVDZ AUX)
    Blend: CC-PVDZ-JKFIT
  Basis Set: CC-PVDZ
    Blend: CC-PVDZ
  @DF-UKS Final Energy:  -559.33702343918412
    Total Energy =                       -559.3370234391841223
  @DF-UKS Final Energy:  -559.39200085474226
    Total Energy =                       -559.3920008547422640
  @DF-UKS Final Energy:  -559.42163927072988
    Total Energy =                       -559.4216392707298837
  @DF-UKS Final Energy:  -559.43387803870633
    Total Energy =                       -559.4338780387063252
  @DF-UKS Final Energy:  -559.43781486468367
    Total Energy =                       -559.4378148646836735
  @DF-UKS Final Energy:  -559.43883957153844
    Total Energy =                       -559.4388395715384377
  @DF-UKS Final Energy:  -559.43899075883348
    Total Energy =                       -559.4389907588335973
  @DF-UKS Final Energy:  -559.43901563294810
    Total Energy =                       -559.4390156329482124
  Basis Set: (CC-PVDZ AUX)
    Blend: CC-PVDZ-JKFIT
  Basis Set: CC-PVDZ
    Blend: CC-PVDZ
  Basis Set: (CC-PVDZ AUX)
    Blend: CC-PVDZ-JKFIT
  @DF-UKS Final Energy:  -559.43902046317828
    Total Energy =                       -559.4390204631783945
  Basis Set: CC-PVDZ
    Blend: CC-PVDZ
  Basis Set: (CC-PVDZ AUX)
    Blend: CC-PVDZ-JKFIT
  Charge       = 1
  Multiplicity = 4
  Basis Set: CC-PVDZ
    Blend: CC-PVDZ
  Basis Set: (CC-PVDZ AUX)
    Blend: CC-PVDZ-JKFIT

    Orbital Energies [Eh]
    ---------------------

    Alpha Occupied:

       1A1  -102.052887     2A1   -25.128496     3A1    -9.959638
       1B2    -7.721607     1B1    -7.721607     4A1    -7.717304
       5A1    -1.563400     6A1    -1.269329     7A1    -0.887609
       2B1    -0.824645     2B2    -0.824645     3B2    -0.760356
       3B1    -0.760356     8A1    -0.671174

    Alpha Virtual:

       9A1     0.157581     4B2     0.184850     4B1     0.184850
      10A1     0.226451     5B2     0.250231     5B1     0.250231
       1A2     0.256974    11A1     0.256974    12A1     0.386380
       6B1     0.842470     6B2     0.842470    13A1     0.912134
      14A1     1.565550     7B1     3.152406     7B2     3.152406
       2A2     3.162172    15A1     3.162248    16A1     3.218866

    Beta Occupied:

       1A1  -102.036987     2A1   -25.089393     3A1    -9.944143
       1B2    -7.697678     1B1    -7.697678     4A1    -7.695936
       5A1    -1.465475     6A1    -1.161259     7A1    -0.780440
       2B2    -0.722413     2B1    -0.722413

    Beta Virtual:

       3B2    -0.597787     3B1    -0.597787     8A1    -0.494700
       9A1     0.199731     4B1     0.224468     4B2     0.224468
      10A1     0.271105     5B1     0.330431     5B2     0.330431
       1A2     0.351409    11A1     0.351409    12A1     0.450209
       6B2     0.890638     6B1     0.890638    13A1     0.968402
      14A1     1.620775     2A2     3.233056    15A1     3.233131
       7B2     3.235323     7B1     3.235323    16A1     3.304186

    Final Occupation by Irrep:
             A1    A2    B1    B2
    DOCC [     7,    0,    2,    2 ]
    SOCC [     1,    0,    1,    1 ]
    NA   [     8,    0,    3,    3 ]
    NB   [     7,    0,    2,    2 ]

  @DF-UKS Final Energy:  -559.43902086887385

   => Energetics <=

    Nuclear Repulsion Energy =             42.2689939488168775
    One-Electron Energy =                -848.5969526685387336
    Two-Electron Energy =                 277.6884464239865906
    DFT Exchange-Correlation Energy =     -30.7995085731385849
    Empirical Dispersion Energy =           0.0000000000000000
    VV10 Nonlocal Energy =                  0.0000000000000000
    Total Energy =                       -559.4390208688739676

  UHF NO Occupations:
  HONO-2 :    8 A1 1.0000000
  HONO-1 :    3 B1 1.0000000
  HONO-0 :    3 B2 1.0000000
  LUNO+0 :    9 A1 0.0010281
  LUNO+1 :    4 B1 0.0009734
  LUNO+2 :    4 B2 0.0009734
  LUNO+3 :   10 A1 0.0001235

Computation Completed

Properties will be evaluated at   0.000000,   0.000000,   0.000000 [a0]

Properties computed using the SCF density matrix

 Multipole Moments:

 ------------------------------------------------------------------------------------
     Multipole            Electronic (a.u.)      Nuclear  (a.u.)        Total (a.u.)
 ------------------------------------------------------------------------------------

 L = 1.  Multiply by 2.5417464519 to convert [e a0] to [Debye]
 Dipole X            :          0.0000000            0.0000000            0.0000000
 Dipole Y            :          0.0000000            0.0000000            0.0000000
 Dipole Z            :         -0.2627999           -0.5535546           -0.8163546
 Magnitude           :                                                    0.8163546

 ------------------------------------------------------------------------------------

*** tstop() called on Joses-MacBook-Pro-2.local at Thu Jul 17 14:32:22 2025
Module time:
	user time   =       5.52 seconds =       0.09 minutes
	system time =       2.38 seconds =       0.04 minutes
	total time  =          0 seconds =       0.00 minutes
Total time:
	user time   =      65.05 seconds =       1.08 minutes
	system time =      63.05 seconds =       1.05 minutes
	total time  =         12 seconds =       0.20 minutes

*** tstart() called on Joses-MacBook-Pro-2.local
*** at Thu Jul 17 14:32:22 2025

         ------------------------------------------------------------
                                   SCF GRAD
                          Rob Parrish, Justin Turney,
                       Andy Simmonett, and Alex Sokolov
         ------------------------------------------------------------

  ==> Geometry <==

    Molecular point group: c2v
    Full point group: C_inf_v

    Geometry (in Angstrom), charge = 1, multiplicity = 4:

       Center              X                  Y                   Z               Mass
    ------------   -----------------  -----------------  -----------------  -----------------
         F            0.000000000000     0.000000000000     1.241142651922    18.998403162730
         CL           0.000000000000     0.000000000000    -0.674306609316    34.968852682000

  Nuclear repulsion =   42.268993948816878

  ==> Basis Set <==

  Basis Set: CC-PVDZ
    Blend: CC-PVDZ
    Number of shells: 14
    Number of basis functions: 32
    Number of Cartesian functions: 34
    Spherical Harmonics?: true
    Max angular momentum: 2

  ==> DFJKGrad: Density-Fitted SCF Gradients <==

    Gradient:                    1
    J tasked:                  Yes
    K tasked:                  Yes
    wK tasked:                  No
    OpenMP threads:              1
    Integrals threads:           1
    Memory [MiB]:              375
    Schwarz Cutoff:          1E-12
    Fitting Condition:       1E-10

   => Auxiliary Basis Set <=

  Basis Set: (CC-PVDZ AUX)
    Blend: CC-PVDZ-JKFIT
    Number of shells: 60
    Number of basis functions: 182
    Number of Cartesian functions: 211
    Spherical Harmonics?: true
    Max angular momentum: 3

  ==> DFT Potential <==

   => LibXC <=

    Version 6.2.2
    S. Lehtola, C. Steigemann, M. J.T. Oliveira, and M. A.L. Marques.,  SoftwareX 7, 1â€“5 (2018) (10.1016/j.softx.2017.11.002)

   => Composite Functional: B3LYP <=

    B3LYP Hyb-GGA Exchange-Correlation Functional

    P. J. Stephens, F. J. Devlin, C. F. Chabalowski, and M. J. Frisch.,  J. Phys. Chem. 98, 11623 (1994) (10.1021/j100096a001)

    Deriv               =              1
    GGA                 =           TRUE
    Meta                =          FALSE

    Exchange Hybrid     =           TRUE
    MP2 Hybrid          =          FALSE

   => Exchange Functionals <=

    0.0800   Slater exchange
    0.7200         Becke 88

   => Exact (HF) Exchange <=

    0.2000               HF

   => Correlation Functionals <=

    0.1900   Vosko, Wilk & Nusair (VWN5_RPA)
    0.8100   Lee, Yang & Parr

   => LibXC Density Thresholds  <==

    XC_HYB_GGA_XC_B3LYP:  1.00E-15

   => Molecular Quadrature <=

    Radial Scheme          =       TREUTLER
    Pruning Scheme         =           NONE
    Nuclear Scheme         =       TREUTLER

    Blocking Scheme        =         OCTREE
    BS radius alpha        =              1
    Pruning alpha          =              1
    Radial Points          =             75
    Spherical Points       =            302
    Total Points           =          41874
    Total Blocks           =            372
    Max Points             =            256
    Max Functions          =             32
    Weights Tolerance      =       1.00E-15

  -Total Gradient:
     Atom            X                  Y                   Z
    ------   -----------------  -----------------  -----------------
       1        0.000000000000     0.000000000000    -0.000068325853
       2        0.000000000000     0.000000000000     0.000030300936

*** tstop() called on Joses-MacBook-Pro-2.local at Thu Jul 17 14:32:23 2025
Module time:
	user time   =       0.68 seconds =       0.01 minutes
	system time =       1.65 seconds =       0.03 minutes
	total time  =          1 seconds =       0.02 minutes
Total time:
	user time   =      65.73 seconds =       1.10 minutes
	system time =      64.70 seconds =       1.08 minutes
	total time  =         13 seconds =       0.22 minutes

    			-----------------------------------------

    			 OPTKING 3.0: for geometry optimizations

    			     By R.A. King, Bethel University

    			        with contributions from

    			    A.V. Copan, J. Cayton, A. Heide

    			-----------------------------------------

	                            ===> Fragment 1 <==

	 Z (Atomic Numbers)          Masses                          Geom
	       9.000000            18.998403          0.00000000  0.00000000  2.34541969
	      17.000000            34.968853          0.00000000  0.00000000 -1.27425482

	 - Coordinate -           - BOHR/RAD -       - ANG/DEG -
	 R(1,2)           =         3.619675           1.915449

	        --- Internal Coordinate Step in ANG or DEG, aJ/ANG or AJ/DEG ---
	-------------------------------------------------------------------------------
	           Coordinate      Previous         Force          Change          New
	           ----------      --------        ------          ------        ------
	               R(1,2)       1.91545        0.00041        0.00019       1.91564
	-------------------------------------------------------------------------------

	                                 ==> Convergence Check <==

	Measures of convergence in internal coordinates in au.

	Criteria marked as inactive (o), active & met (*), and active & unmet ( ).

	----------------------------------------------------------------------------------------------
	   Step    Total Energy     Delta E     Max Force     RMS Force      Max Disp      RMS Disp
	----------------------------------------------------------------------------------------------
	  Convergence Criteria     1.00e-06 *    3.00e-04 *             o    1.20e-03 *             o
	----------------------------------------------------------------------------------------------
	    12    -559.43902087   -4.06e-07 *    4.93e-05 *    4.93e-05 o    3.59e-04 *    3.59e-04 o  ~
	----------------------------------------------------------------------------------------------

Next Geometry in Ang
	Fragment 1 (Ang)

	    F   0.0000000000   0.0000000000   1.2412376185
	   Cl   0.0000000000   0.0000000000  -0.6744015759

    Final optimized geometry and variables:
    Molecular point group: c2v
    Full point group: C_inf_v

    Geometry (in Angstrom), charge = 1, multiplicity = 4:

    F            0.000000000000     0.000000000000     1.241142651922
    CL           0.000000000000     0.000000000000    -0.674306609316

    Psi4 stopped on: Thursday, 17 July 2025 02:32PM
    Psi4 wall time for execution: 0:00:13.04

*** Psi4 exiting successfully. Buy a developer a beer!
