                               Psi4 1.9.1 release

  ==> Input File <==

--------------------------------------------------------------------------
molecule {
1 4
Mg   0.00000        0.60000        0.00000
Si   0.00000       -0.60000        0.00000
}

set {
basis              cc-pvdz
reference          uks
maxiter            500
geom_maxiter       500
DAMPING_PERCENTAGE 1
guess              SAP
}

optimize('b3lyp')
--------------------------------------------------------------------------

    Molecular point group: c2v
  Charge       = 1
  Multiplicity = 4
  Basis Set: CC-PVDZ
    Blend: CC-PVDZ
  Basis Set: (CC-PVDZ AUX)
    Blend: CC-PVDZ-JKFIT + DEF2-UNIVERSAL-JKFIT
  @DF-UKS Final Energy:  -488.24406917857732
    Total Energy =                       -488.2440691785773197
 Dipole X            :          0.0000000            0.0000000            0.0000000
 Dipole Y            :          0.0000000            0.0000000            0.0000000
 Dipole Z            :          0.7794696           -0.0029443            0.7765253
 Magnitude           :                                                    0.7765253
    Molecular point group: c2v
  Basis Set: CC-PVDZ
    Blend: CC-PVDZ
  Basis Set: (CC-PVDZ AUX)
    Blend: CC-PVDZ-JKFIT + DEF2-UNIVERSAL-JKFIT
  Basis Set: CC-PVDZ
    Blend: CC-PVDZ
  Basis Set: (CC-PVDZ AUX)
    Blend: CC-PVDZ-JKFIT + DEF2-UNIVERSAL-JKFIT
  @DF-UKS Final Energy:  -488.25586788107222
    Total Energy =                       -488.2558678810722199
  Basis Set: CC-PVDZ
    Blend: CC-PVDZ
  Basis Set: (CC-PVDZ AUX)
    Blend: CC-PVDZ-JKFIT + DEF2-UNIVERSAL-JKFIT
  Basis Set: CC-PVDZ
    Blend: CC-PVDZ
  @DF-UKS Final Energy:  -488.27871787638776
    Total Energy =                       -488.2787178763877591
  @DF-UKS Final Energy:  -488.36235380288281
    Total Energy =                       -488.3623538028828079
  @DF-UKS Final Energy:  -488.75030038535550
    Total Energy =                       -488.7503003853555015
  @DF-UKS Final Energy:  -488.99072012574590
    Total Energy =                       -488.9907201257458951
  @DF-UKS Final Energy:  -489.12788308297849
    Total Energy =                       -489.1278830829784852
  @DF-UKS Final Energy:  -489.18507942448139
    Total Energy =                       -489.1850794244813869
  @DF-UKS Final Energy:  -489.20887752476295
    Total Energy =                       -489.2088775247629542
  @DF-UKS Final Energy:  -489.21743210041706
    Total Energy =                       -489.2174321004170565
  @DF-UKS Final Energy:  -489.21980979647498
    Total Energy =                       -489.2198097964749763
  @DF-UKS Final Energy:  -489.22017763721789
    Total Energy =                       -489.2201776372178870
  @DF-UKS Final Energy:  -489.22024407640845
    Total Energy =                       -489.2202440764084486
  @DF-UKS Final Energy:  -489.22025917795560
    Total Energy =                       -489.2202591779555974
  Basis Set: (CC-PVDZ AUX)
    Blend: CC-PVDZ-JKFIT + DEF2-UNIVERSAL-JKFIT
  Basis Set: CC-PVDZ
    Blend: CC-PVDZ
  Basis Set: (CC-PVDZ AUX)
    Blend: CC-PVDZ-JKFIT + DEF2-UNIVERSAL-JKFIT
  @DF-UKS Final Energy:  -489.22026040407724
    Total Energy =                       -489.2202604040772940
  Basis Set: CC-PVDZ
    Blend: CC-PVDZ
  Basis Set: (CC-PVDZ AUX)
    Blend: CC-PVDZ-JKFIT + DEF2-UNIVERSAL-JKFIT
  Charge       = 1
  Multiplicity = 4
  Basis Set: CC-PVDZ
    Blend: CC-PVDZ
  Basis Set: (CC-PVDZ AUX)
    Blend: CC-PVDZ-JKFIT + DEF2-UNIVERSAL-JKFIT

    Orbital Energies [Eh]
    ---------------------

    Alpha Occupied:

       1A1   -66.359189     2A1   -47.146501     3A1    -5.501906
       4A1    -3.862412     1B1    -3.860343     1B2    -3.860343
       5A1    -3.420428     2B2    -2.163633     2B1    -2.163633
       6A1    -2.163623     7A1    -0.667249     8A1    -0.459214
       3B1    -0.384206     3B2    -0.384206

    Alpha Virtual:

       9A1    -0.321435     4B2    -0.225409     4B1    -0.225409
      10A1    -0.143965    11A1    -0.082373     5B2    -0.035196
       5B1    -0.035196    12A1    -0.031318     6B2     0.039259
       6B1     0.039259    13A1     0.055857     1A2     0.055857
      14A1     0.067618     7B1     0.156092     7B2     0.156092
       2A2     0.174909    15A1     0.174911    16A1     0.193407
      17A1     0.285575     8B2     0.311355     8B1     0.311355
      18A1     0.561006

    Beta Occupied:

       1A1   -66.351897     2A1   -47.143841     3A1    -5.493247
       4A1    -3.854570     1B1    -3.847168     1B2    -3.847168
       5A1    -3.415770     6A1    -2.160655     2B2    -2.159802
       2B1    -2.159802     7A1    -0.591285

    Beta Virtual:

       8A1    -0.369857     9A1    -0.280421     3B1    -0.275096
       3B2    -0.275096     4B2    -0.185820     4B1    -0.185820
      10A1    -0.125632    11A1    -0.066738     5B2    -0.019448
       5B1    -0.019448    12A1    -0.005993     6B2     0.077937
       6B1     0.077937    13A1     0.091194     1A2     0.093026
      14A1     0.093027     7B1     0.191783     7B2     0.191783
      15A1     0.224476     2A2     0.246652    16A1     0.246653
      17A1     0.314645     8B2     0.359780     8B1     0.359780
      18A1     0.595725

    Final Occupation by Irrep:
             A1    A2    B1    B2
    DOCC [     7,    0,    2,    2 ]
    SOCC [     1,    0,    1,    1 ]
    NA   [     8,    0,    3,    3 ]
    NB   [     7,    0,    2,    2 ]

  @DF-UKS Final Energy:  -489.22026051381096

   => Energetics <=

    Nuclear Repulsion Energy =             35.7563620231554040
    One-Electron Energy =                -745.1984633982099240
    Two-Electron Energy =                 250.1351208632937642
    DFT Exchange-Correlation Energy =     -29.9132800020501364
    Empirical Dispersion Energy =           0.0000000000000000
    VV10 Nonlocal Energy =                  0.0000000000000000
    Total Energy =                       -489.2202605138109561

  UHF NO Occupations:
  HONO-2 :    3 B1 1.0000000
  HONO-1 :    3 B2 1.0000000
  HONO-0 :    8 A1 1.0000000
  LUNO+0 :    9 A1 0.0010419
  LUNO+1 :   10 A1 0.0000005
  LUNO+2 :    4 B1 0.0000005
  LUNO+3 :    4 B2 0.0000005

Computation Completed

Properties will be evaluated at   0.000000,   0.000000,   0.000000 [a0]

Properties computed using the SCF density matrix

 Multipole Moments:

 ------------------------------------------------------------------------------------
     Multipole            Electronic (a.u.)      Nuclear  (a.u.)        Total (a.u.)
 ------------------------------------------------------------------------------------

 L = 1.  Multiply by 2.5417464519 to convert [e a0] to [Debye]
 Dipole X            :          0.0000000            0.0000000            0.0000000
 Dipole Y            :          0.0000000            0.0000000            0.0000000
 Dipole Z            :          2.1880782           -0.0061003            2.1819779
 Magnitude           :                                                    2.1819779

 ------------------------------------------------------------------------------------

*** tstop() called on Joses-MacBook-Pro-2.local at Thu Jul 17 15:06:15 2025
Module time:
	user time   =       7.62 seconds =       0.13 minutes
	system time =       1.93 seconds =       0.03 minutes
	total time  =          1 seconds =       0.02 minutes
Total time:
	user time   =     186.03 seconds =       3.10 minutes
	system time =      50.06 seconds =       0.83 minutes
	total time  =         22 seconds =       0.37 minutes

*** tstart() called on Joses-MacBook-Pro-2.local
*** at Thu Jul 17 15:06:15 2025

         ------------------------------------------------------------
                                   SCF GRAD
                          Rob Parrish, Justin Turney,
                       Andy Simmonett, and Alex Sokolov
         ------------------------------------------------------------

  ==> Geometry <==

    Molecular point group: c2v
    Full point group: C_inf_v

    Geometry (in Angstrom), charge = 1, multiplicity = 4:

       Center              X                  Y                   Z               Mass
    ------------   -----------------  -----------------  -----------------  -----------------
         MG           0.000000000000     0.000000000000     1.338663734415    23.985041697000
         SI           0.000000000000     0.000000000000    -1.147656639425    27.976926534650

  Nuclear repulsion =   35.756362023155404

  ==> Basis Set <==

  Basis Set: CC-PVDZ
    Blend: CC-PVDZ
    Number of shells: 16
    Number of basis functions: 36
    Number of Cartesian functions: 38
    Spherical Harmonics?: true
    Max angular momentum: 2

  ==> DFJKGrad: Density-Fitted SCF Gradients <==

    Gradient:                    1
    J tasked:                  Yes
    K tasked:                  Yes
    wK tasked:                  No
    OpenMP threads:              1
    Integrals threads:           1
    Memory [MiB]:              375
    Schwarz Cutoff:          1E-12
    Fitting Condition:       1E-10

   => Auxiliary Basis Set <=

  Basis Set: (CC-PVDZ AUX)
    Blend: CC-PVDZ-JKFIT + DEF2-UNIVERSAL-JKFIT
    Number of shells: 70
    Number of basis functions: 224
    Number of Cartesian functions: 267
    Spherical Harmonics?: true
    Max angular momentum: 4

  ==> DFT Potential <==

   => LibXC <=

    Version 6.2.2
    S. Lehtola, C. Steigemann, M. J.T. Oliveira, and M. A.L. Marques.,  SoftwareX 7, 1â€“5 (2018) (10.1016/j.softx.2017.11.002)

   => Composite Functional: B3LYP <=

    B3LYP Hyb-GGA Exchange-Correlation Functional

    P. J. Stephens, F. J. Devlin, C. F. Chabalowski, and M. J. Frisch.,  J. Phys. Chem. 98, 11623 (1994) (10.1021/j100096a001)

    Deriv               =              1
    GGA                 =           TRUE
    Meta                =          FALSE

    Exchange Hybrid     =           TRUE
    MP2 Hybrid          =          FALSE

   => Exchange Functionals <=

    0.0800   Slater exchange
    0.7200         Becke 88

   => Exact (HF) Exchange <=

    0.2000               HF

   => Correlation Functionals <=

    0.1900   Vosko, Wilk & Nusair (VWN5_RPA)
    0.8100   Lee, Yang & Parr

   => LibXC Density Thresholds  <==

    XC_HYB_GGA_XC_B3LYP:  1.00E-15

   => Molecular Quadrature <=

    Radial Scheme          =       TREUTLER
    Pruning Scheme         =           NONE
    Nuclear Scheme         =       TREUTLER

    Blocking Scheme        =         OCTREE
    BS radius alpha        =              1
    Pruning alpha          =              1
    Radial Points          =             75
    Spherical Points       =            302
    Total Points           =          42939
    Total Blocks           =            419
    Max Points             =            255
    Max Functions          =             36
    Weights Tolerance      =       1.00E-15

  -Total Gradient:
     Atom            X                  Y                   Z
    ------   -----------------  -----------------  -----------------
       1       -0.000000000000    -0.000000000000    -0.000005903284
       2        0.000000000000     0.000000000000     0.000023473380

*** tstop() called on Joses-MacBook-Pro-2.local at Thu Jul 17 15:06:15 2025
Module time:
	user time   =       2.78 seconds =       0.05 minutes
	system time =       0.96 seconds =       0.02 minutes
	total time  =          0 seconds =       0.00 minutes
Total time:
	user time   =     188.81 seconds =       3.15 minutes
	system time =      51.02 seconds =       0.85 minutes
	total time  =         22 seconds =       0.37 minutes

    			-----------------------------------------

    			 OPTKING 3.0: for geometry optimizations

    			     By R.A. King, Bethel University

    			        with contributions from

    			    A.V. Copan, J. Cayton, A. Heide

    			-----------------------------------------

	                            ===> Fragment 1 <==

	 Z (Atomic Numbers)          Masses                          Geom
	      12.000000            23.985042          0.00000000  0.00000000  2.52970783
	      14.000000            27.976927          0.00000000  0.00000000 -2.16875673

	 - Coordinate -           - BOHR/RAD -       - ANG/DEG -
	 R(1,2)           =         4.698465           2.486320

	        --- Internal Coordinate Step in ANG or DEG, aJ/ANG or AJ/DEG ---
	-------------------------------------------------------------------------------
	           Coordinate      Previous         Force          Change          New
	           ----------      --------        ------          ------        ------
	               R(1,2)       2.48632        0.00012        0.00014       2.48646
	-------------------------------------------------------------------------------

	                                 ==> Convergence Check <==

	Measures of convergence in internal coordinates in au.

	Criteria marked as inactive (o), active & met (*), and active & unmet ( ).

	----------------------------------------------------------------------------------------------
	   Step    Total Energy     Delta E     Max Force     RMS Force      Max Disp      RMS Disp
	----------------------------------------------------------------------------------------------
	  Convergence Criteria     1.00e-06 *    3.00e-04 *             o    1.20e-03 *             o
	----------------------------------------------------------------------------------------------
	    16    -489.22026051   -1.10e-07 *    1.47e-05 *    1.47e-05 o    2.70e-04 *    2.70e-04 o  ~
	----------------------------------------------------------------------------------------------

Next Geometry in Ang
	Fragment 1 (Ang)

	   Mg   0.0000000000   0.0000000000   1.3387352656
	   Si   0.0000000000   0.0000000000  -1.1477281707

    Final optimized geometry and variables:
    Molecular point group: c2v
    Full point group: C_inf_v

    Geometry (in Angstrom), charge = 1, multiplicity = 4:

    MG           0.000000000000     0.000000000000     1.338663734415
    SI           0.000000000000     0.000000000000    -1.147656639425

    Psi4 stopped on: Thursday, 17 July 2025 03:06PM
    Psi4 wall time for execution: 0:00:23.15

*** Psi4 exiting successfully. Buy a developer a beer!
