                               Psi4 1.9.1 release

  ==> Input File <==

--------------------------------------------------------------------------
molecule {
1 4
Li   0.00000        0.60000        0.00000
B   0.00000       -0.60000        0.00000
}

set {
basis              cc-pvdz
reference          uks
maxiter            500
geom_maxiter       500
DAMPING_PERCENTAGE 1
guess              SAP
}

optimize('b3lyp')
--------------------------------------------------------------------------

    Molecular point group: c2v
  Charge       = 1
  Multiplicity = 4
  Basis Set: CC-PVDZ
    Blend: CC-PVDZ
  Basis Set: (CC-PVDZ AUX)
    Blend: CC-PVDZ-JKFIT + DEF2-UNIVERSAL-JKFIT
  @DF-UKS Final Energy:   -31.61391199864571
    Total Energy =                        -31.6139119986457118
 Dipole X            :          0.0000000            0.0000000            0.0000000
 Dipole Y            :          0.0000000            0.0000000            0.0000000
 Dipole Z            :          0.8871346           -0.2581643            0.6289703
 Magnitude           :                                                    0.6289703
    Molecular point group: c2v
  Basis Set: CC-PVDZ
    Blend: CC-PVDZ
  Basis Set: (CC-PVDZ AUX)
    Blend: CC-PVDZ-JKFIT + DEF2-UNIVERSAL-JKFIT
  Basis Set: CC-PVDZ
    Blend: CC-PVDZ
  Basis Set: (CC-PVDZ AUX)
    Blend: CC-PVDZ-JKFIT + DEF2-UNIVERSAL-JKFIT
  @DF-UKS Final Energy:   -31.68475473614785
    Total Energy =                        -31.6847547361478519
  Basis Set: CC-PVDZ
    Blend: CC-PVDZ
  Basis Set: (CC-PVDZ AUX)
    Blend: CC-PVDZ-JKFIT + DEF2-UNIVERSAL-JKFIT
  Basis Set: CC-PVDZ
    Blend: CC-PVDZ
  @DF-UKS Final Energy:   -31.74855370416073
    Total Energy =                        -31.7485537041607273
  @DF-UKS Final Energy:   -31.77682682522486
    Total Energy =                        -31.7768268252248589
  @DF-UKS Final Energy:   -31.79189365774281
    Total Energy =                        -31.7918936577428113
  @DF-UKS Final Energy:   -31.79975540177616
    Total Energy =                        -31.7997554017761601
  @DF-UKS Final Energy:   -31.80388376976929
    Total Energy =                        -31.8038837697692891
  @DF-UKS Final Energy:   -31.80607192204593
    Total Energy =                        -31.8060719220459305
  @DF-UKS Final Energy:   -31.80728549295516
    Total Energy =                        -31.8072854929551596
  @DF-UKS Final Energy:   -31.80801977909227
    Total Energy =                        -31.8080197790922661
  @DF-UKS Final Energy:   -31.80855748437708
    Total Energy =                        -31.8085574843770829
  @DF-UKS Final Energy:   -31.80909863574077
    Total Energy =                        -31.8090986357407708
  @DF-UKS Final Energy:   -31.80910804607448
    Total Energy =                        -31.8091080460744813
  @DF-UKS Final Energy:   -31.80911745060938
    Total Energy =                        -31.8091174506093779
  @DF-UKS Final Energy:   -31.80912685045888
    Total Energy =                        -31.8091268504588847
  @DF-UKS Final Energy:   -31.80984432054814
    Total Energy =                        -31.8098443205481445
  @DF-UKS Final Energy:   -31.80985336635367
    Total Energy =                        -31.8098533663536749
  @DF-UKS Final Energy:   -31.80986239712831
    Total Energy =                        -31.8098623971283132
  @DF-UKS Final Energy:   -31.80987141238715
    Total Energy =                        -31.8098714123871460
  @DF-UKS Final Energy:   -31.81048567737846
    Total Energy =                        -31.8104856773784626
  @DF-UKS Final Energy:   -31.81134799108013
    Total Energy =                        -31.8113479910801260
  @DF-UKS Final Energy:   -31.81135128209572
    Total Energy =                        -31.8113512820957141
  @DF-UKS Final Energy:   -31.81135455896821
    Total Energy =                        -31.8113545589682118
  @DF-UKS Final Energy:   -31.81135782178084
    Total Energy =                        -31.8113578217808382
  @DF-UKS Final Energy:   -31.81162825616077
    Total Energy =                        -31.8116282561607733
  @DF-UKS Final Energy:   -31.81163043419360
    Total Energy =                        -31.8116304341935958
  @DF-UKS Final Energy:   -31.81163261017031
    Total Energy =                        -31.8116326101703066
  @DF-UKS Final Energy:   -31.81163477843332
    Total Energy =                        -31.8116347784333158
  @DF-UKS Final Energy:   -31.81163693900596
    Total Energy =                        -31.8116369390059610
  @DF-UKS Final Energy:   -31.81163909194312
    Total Energy =                        -31.8116390919431211
  @DF-UKS Final Energy:   -31.81185033750489
    Total Energy =                        -31.8118503375048896
  @DF-UKS Final Energy:   -31.81185179376586
    Total Energy =                        -31.8118517937658574
  @DF-UKS Final Energy:   -31.81185324807485
    Total Energy =                        -31.8118532480748542
  @DF-UKS Final Energy:   -31.81185469812663
    Total Energy =                        -31.8118546981266306
  @DF-UKS Final Energy:   -31.81185614392088
    Total Energy =                        -31.8118561439208740
  @DF-UKS Final Energy:   -31.81185758547228
    Total Energy =                        -31.8118575854722785
  @DF-UKS Final Energy:   -31.81185902279480
    Total Energy =                        -31.8118590227947990
  @DF-UKS Final Energy:   -31.81186045590638
    Total Energy =                        -31.8118604559063840
  Basis Set: (CC-PVDZ AUX)
    Blend: CC-PVDZ-JKFIT + DEF2-UNIVERSAL-JKFIT
  Basis Set: CC-PVDZ
    Blend: CC-PVDZ
  Basis Set: (CC-PVDZ AUX)
    Blend: CC-PVDZ-JKFIT + DEF2-UNIVERSAL-JKFIT
  @DF-UKS Final Energy:   -31.81202646390168
    Total Energy =                        -31.8120264639016774
  Basis Set: CC-PVDZ
    Blend: CC-PVDZ
  Basis Set: (CC-PVDZ AUX)
    Blend: CC-PVDZ-JKFIT + DEF2-UNIVERSAL-JKFIT
  Charge       = 1
  Multiplicity = 4
  Basis Set: CC-PVDZ
    Blend: CC-PVDZ
  Basis Set: (CC-PVDZ AUX)
    Blend: CC-PVDZ-JKFIT + DEF2-UNIVERSAL-JKFIT

    Orbital Energies [Eh]
    ---------------------

    Alpha Occupied:

       1A1    -6.951119     2A1    -2.351482     3A1    -0.514005
       1B1    -0.284670     1B2    -0.284670

    Alpha Virtual:

       4A1    -0.252245     5A1    -0.194779     2B1    -0.175812
       2B2    -0.175812     6A1    -0.174952     3B2    -0.061987
       3B1    -0.061987     7A1    -0.061463     8A1    -0.042404
       9A1     0.075083     1A2     0.075088    10A1     0.075439
       4B1     0.075537     4B2     0.075537     5B2     0.189126
       5B1     0.189126    11A1     0.216926    12A1     0.258577
       2A2     0.578686    13A1     0.578723     6B1     0.583734
       6B2     0.583734    14A1     0.597320

    Beta Occupied:

       1A1    -6.911792     2A1    -2.351482

    Beta Virtual:

       3A1    -0.266798     4A1    -0.253194     1B1    -0.177078
       1B2    -0.177078     5A1    -0.176917     6A1    -0.102773
       2B1    -0.064032     2B2    -0.064032     7A1    -0.058567
       3B1    -0.054113     3B2    -0.054113     8A1    -0.043151
       9A1     0.073971    10A1     0.074009     1A2     0.074011
       4B1     0.074120     4B2     0.074120    11A1     0.258926
       5B1     0.288433     5B2     0.288433    12A1     0.353408
      13A1     0.710747     6B1     0.726059     6B2     0.726059
      14A1     0.760161     2A2     0.760167

    Final Occupation by Irrep:
             A1    A2    B1    B2
    DOCC [     2,    0,    0,    0 ]
    SOCC [     1,    0,    1,    1 ]
    NA   [     3,    0,    1,    1 ]
    NB   [     2,    0,    0,    0 ]

  @DF-UKS Final Energy:   -31.81202744515594

   => Energetics <=

    Nuclear Repulsion Energy =              1.1483679707346390
    One-Electron Energy =                 -42.9878903803863608
    Two-Electron Energy =                  14.5764635488577703
    DFT Exchange-Correlation Energy =      -4.5489685843619920
    Empirical Dispersion Energy =           0.0000000000000000
    VV10 Nonlocal Energy =                  0.0000000000000000
    Total Energy =                        -31.8120274451559411

  UHF NO Occupations:
  HONO-2 :    1 B1 1.0000000
  HONO-1 :    1 B2 1.0000000
  HONO-0 :    3 A1 1.0000000
  LUNO+0 :    4 A1 0.0000007
  LUNO+1 :    5 A1 0.0000000
  LUNO+2 :    2 B2 0.0000000
  LUNO+3 :    6 A1 0.0000000

Computation Completed

Properties will be evaluated at   0.000000,   0.000000,   0.000000 [a0]

Properties computed using the SCF density matrix

 Multipole Moments:

 ------------------------------------------------------------------------------------
     Multipole            Electronic (a.u.)      Nuclear  (a.u.)        Total (a.u.)
 ------------------------------------------------------------------------------------

 L = 1.  Multiply by 2.5417464519 to convert [e a0] to [Debye]
 Dipole X            :          0.0000000            0.0000000            0.0000000
 Dipole Y            :          0.0000000            0.0000000            0.0000000
 Dipole Z            :          9.4003248           -1.4870522            7.9132726
 Magnitude           :                                                    7.9132726

 ------------------------------------------------------------------------------------

*** tstop() called on Joses-MacBook-Pro-2.local at Thu Jul 17 12:44:08 2025
Module time:
	user time   =       1.19 seconds =       0.02 minutes
	system time =       1.84 seconds =       0.03 minutes
	total time  =          0 seconds =       0.00 minutes
Total time:
	user time   =     121.48 seconds =       2.02 minutes
	system time =     201.62 seconds =       3.36 minutes
	total time  =         30 seconds =       0.50 minutes

*** tstart() called on Joses-MacBook-Pro-2.local
*** at Thu Jul 17 12:44:08 2025

         ------------------------------------------------------------
                                   SCF GRAD
                          Rob Parrish, Justin Turney,
                       Andy Simmonett, and Alex Sokolov
         ------------------------------------------------------------

  ==> Geometry <==

    Molecular point group: c2v
    Full point group: C_inf_v

    Geometry (in Angstrom), charge = 1, multiplicity = 4:

       Center              X                  Y                   Z               Mass
    ------------   -----------------  -----------------  -----------------  -----------------
         LI           0.000000000000     0.000000000000     4.221711242577     7.016003436600
         B            0.000000000000     0.000000000000    -2.690409577871    11.009305360000

  Nuclear repulsion =    1.148367970734639

  ==> Basis Set <==

  Basis Set: CC-PVDZ
    Blend: CC-PVDZ
    Number of shells: 12
    Number of basis functions: 28
    Number of Cartesian functions: 30
    Spherical Harmonics?: true
    Max angular momentum: 2

  ==> DFJKGrad: Density-Fitted SCF Gradients <==

    Gradient:                    1
    J tasked:                  Yes
    K tasked:                  Yes
    wK tasked:                  No
    OpenMP threads:              1
    Integrals threads:           1
    Memory [MiB]:              375
    Schwarz Cutoff:          1E-12
    Fitting Condition:       1E-10

   => Auxiliary Basis Set <=

  Basis Set: (CC-PVDZ AUX)
    Blend: CC-PVDZ-JKFIT + DEF2-UNIVERSAL-JKFIT
    Number of shells: 41
    Number of basis functions: 121
    Number of Cartesian functions: 141
    Spherical Harmonics?: true
    Max angular momentum: 3

  ==> DFT Potential <==

   => LibXC <=

    Version 6.2.2
    S. Lehtola, C. Steigemann, M. J.T. Oliveira, and M. A.L. Marques.,  SoftwareX 7, 1â€“5 (2018) (10.1016/j.softx.2017.11.002)

   => Composite Functional: B3LYP <=

    B3LYP Hyb-GGA Exchange-Correlation Functional

    P. J. Stephens, F. J. Devlin, C. F. Chabalowski, and M. J. Frisch.,  J. Phys. Chem. 98, 11623 (1994) (10.1021/j100096a001)

    Deriv               =              1
    GGA                 =           TRUE
    Meta                =          FALSE

    Exchange Hybrid     =           TRUE
    MP2 Hybrid          =          FALSE

   => Exchange Functionals <=

    0.0800   Slater exchange
    0.7200         Becke 88

   => Exact (HF) Exchange <=

    0.2000               HF

   => Correlation Functionals <=

    0.1900   Vosko, Wilk & Nusair (VWN5_RPA)
    0.8100   Lee, Yang & Parr

   => LibXC Density Thresholds  <==

    XC_HYB_GGA_XC_B3LYP:  1.00E-15

   => Molecular Quadrature <=

    Radial Scheme          =       TREUTLER
    Pruning Scheme         =           NONE
    Nuclear Scheme         =       TREUTLER

    Blocking Scheme        =         OCTREE
    BS radius alpha        =              1
    Pruning alpha          =              1
    Radial Points          =             75
    Spherical Points       =            302
    Total Points           =          44440
    Total Blocks           =            460
    Max Points             =            255
    Max Functions          =             28
    Weights Tolerance      =       1.00E-15

  -Total Gradient:
     Atom            X                  Y                   Z
    ------   -----------------  -----------------  -----------------
       1        0.000000000000     0.000000000000    -0.000168627842
       2        0.000000000000     0.000000000000     0.000166457582

*** tstop() called on Joses-MacBook-Pro-2.local at Thu Jul 17 12:44:08 2025
Module time:
	user time   =       0.38 seconds =       0.01 minutes
	system time =       1.22 seconds =       0.02 minutes
	total time  =          0 seconds =       0.00 minutes
Total time:
	user time   =     121.87 seconds =       2.03 minutes
	system time =     202.84 seconds =       3.38 minutes
	total time  =         30 seconds =       0.50 minutes

    			-----------------------------------------

    			 OPTKING 3.0: for geometry optimizations

    			     By R.A. King, Bethel University

    			        with contributions from

    			    A.V. Copan, J. Cayton, A. Heide

    			-----------------------------------------

	                            ===> Fragment 1 <==

	 Z (Atomic Numbers)          Masses                          Geom
	       3.000000             7.016003          0.00000000  0.00000000  7.97787803
	       5.000000            11.009305          0.00000000  0.00000000 -5.08413727

	 - Coordinate -           - BOHR/RAD -       - ANG/DEG -
	 R(1,2)           =        13.062015           6.912121

	        --- Internal Coordinate Step in ANG or DEG, aJ/ANG or AJ/DEG ---
	-------------------------------------------------------------------------------
	           Coordinate      Previous         Force          Change          New
	           ----------      --------        ------          ------        ------
	               R(1,2)       6.91212        0.00138        0.00305       6.91517
	-------------------------------------------------------------------------------

	                                 ==> Convergence Check <==

	Measures of convergence in internal coordinates in au.

	Criteria marked as inactive (o), active & met (*), and active & unmet ( ).

	----------------------------------------------------------------------------------------------
	   Step    Total Energy     Delta E     Max Force     RMS Force      Max Disp      RMS Disp
	----------------------------------------------------------------------------------------------
	  Convergence Criteria     1.00e-06 *    3.00e-04 *             o    1.20e-03 *             o
	----------------------------------------------------------------------------------------------
	    48     -31.81202745   -9.81e-07 *    1.68e-04 *    1.68e-04 o    5.77e-03      5.77e-03 o  ~
	----------------------------------------------------------------------------------------------

Next Geometry in Ang
	Fragment 1 (Ang)

	   Li   0.0000000000   0.0000000000   4.2232372261
	    B   0.0000000000   0.0000000000  -2.6919355614

    Final optimized geometry and variables:
    Molecular point group: c2v
    Full point group: C_inf_v

    Geometry (in Angstrom), charge = 1, multiplicity = 4:

    LI           0.000000000000     0.000000000000     4.221711242577
    B            0.000000000000     0.000000000000    -2.690409577871

    Psi4 stopped on: Thursday, 17 July 2025 12:44PM
    Psi4 wall time for execution: 0:00:30.97

*** Psi4 exiting successfully. Buy a developer a beer!
