                               Psi4 1.9.1 release

  ==> Input File <==

--------------------------------------------------------------------------
molecule {
1 4
H   0.00000        0.60000        0.00000
Li   0.00000       -0.60000        0.00000
}

set {
basis              cc-pvdz
reference          uks
maxiter            500
geom_maxiter       500
DAMPING_PERCENTAGE 1
guess              SAP
}

optimize('b3lyp')
--------------------------------------------------------------------------

    Molecular point group: c2v
  Charge       = 1
  Multiplicity = 4
  Basis Set: CC-PVDZ
    Blend: CC-PVDZ
  Basis Set: (CC-PVDZ AUX)
    Blend: CC-PVDZ-JKFIT + DEF2-UNIVERSAL-JKFIT
  @DF-UKS Final Energy:    -5.46442355001375
    Total Energy =                         -5.4644235500137484
 Dipole X            :          0.0000000            0.0000000            0.0000000
 Dipole Y            :          0.0000000            0.0000000            0.0000000
 Dipole Z            :          0.0495342            1.1283569            1.1778911
 Magnitude           :                                                    1.1778911
    Molecular point group: c2v
  Basis Set: CC-PVDZ
    Blend: CC-PVDZ
  Basis Set: (CC-PVDZ AUX)
    Blend: CC-PVDZ-JKFIT + DEF2-UNIVERSAL-JKFIT
  Basis Set: CC-PVDZ
    Blend: CC-PVDZ
  Basis Set: (CC-PVDZ AUX)
    Blend: CC-PVDZ-JKFIT + DEF2-UNIVERSAL-JKFIT
  @DF-UKS Final Energy:    -5.47781924158839
    Total Energy =                         -5.4778192415883860
  Basis Set: CC-PVDZ
    Blend: CC-PVDZ
  Basis Set: (CC-PVDZ AUX)
    Blend: CC-PVDZ-JKFIT + DEF2-UNIVERSAL-JKFIT
  Basis Set: CC-PVDZ
    Blend: CC-PVDZ
  @DF-UKS Final Energy:    -5.48143578820801
    Total Energy =                         -5.4814357882080138
  @DF-UKS Final Energy:    -5.48507702538649
    Total Energy =                         -5.4850770253864898
  @DF-UKS Final Energy:    -5.49830104724508
    Total Energy =                         -5.4983010472450813
  @DF-UKS Final Energy:    -5.50249886373112
    Total Energy =                         -5.5024988637311179
  @DF-UKS Final Energy:    -5.50718789093795
    Total Energy =                         -5.5071878909379528
  @DF-UKS Final Energy:    -5.50784993512187
    Total Energy =                         -5.5078499351218682
  @DF-UKS Final Energy:    -5.50876069485861
    Total Energy =                         -5.5087606948586076
  @DF-UKS Final Energy:    -5.50891176809475
    Total Energy =                         -5.5089117680947535
  Basis Set: (CC-PVDZ AUX)
    Blend: CC-PVDZ-JKFIT + DEF2-UNIVERSAL-JKFIT
  Basis Set: CC-PVDZ
    Blend: CC-PVDZ
  Basis Set: (CC-PVDZ AUX)
    Blend: CC-PVDZ-JKFIT + DEF2-UNIVERSAL-JKFIT
  @DF-UKS Final Energy:    -5.50893212858325
    Total Energy =                         -5.5089321285832487
  Basis Set: CC-PVDZ
    Blend: CC-PVDZ
  Basis Set: (CC-PVDZ AUX)
    Blend: CC-PVDZ-JKFIT + DEF2-UNIVERSAL-JKFIT
  Charge       = 1
  Multiplicity = 4
  Basis Set: CC-PVDZ
    Blend: CC-PVDZ
  Basis Set: (CC-PVDZ AUX)
    Blend: CC-PVDZ-JKFIT + DEF2-UNIVERSAL-JKFIT

    Orbital Energies [Eh]
    ---------------------

    Alpha Occupied:

       1A1    -3.574540     2A1    -0.558950     3A1    -0.450632

    Alpha Virtual:

       1B2    -0.335482     1B1    -0.335482     4A1    -0.323225
       5A1    -0.100915     2B2    -0.094593     2B1    -0.094593
       6A1    -0.084459     3B1    -0.051012     3B2    -0.051012
       1A2    -0.042298     7A1    -0.042298     8A1    -0.001743
       9A1     0.326844     4B1     1.005186     4B2     1.005186
      10A1     1.090407

    Beta Occupied:

    Beta Virtual:

       1A1    -2.569465     2A1    -0.332906     3A1    -0.264197
       1B2    -0.244493     1B1    -0.244493     4A1    -0.174272
       2B2    -0.075911     2B1    -0.075911     5A1    -0.069970
       6A1    -0.055590     3B1     0.026836     3B2     0.026836
       1A2     0.032069     7A1     0.032069     8A1     0.089502
       9A1     0.543983     4B1     1.245560     4B2     1.245560
      10A1     1.328005

    Final Occupation by Irrep:
             A1    A2    B1    B2
    DOCC [     0,    0,    0,    0 ]
    SOCC [     3,    0,    0,    0 ]
    NA   [     3,    0,    0,    0 ]
    NB   [     0,    0,    0,    0 ]

  @DF-UKS Final Energy:    -5.50893290803044

   => Energetics <=

    Nuclear Repulsion Energy =              0.5747661905928830
    One-Electron Energy =                  -6.8244110390302559
    Two-Electron Energy =                   1.7826512160399774
    DFT Exchange-Correlation Energy =      -1.0419392756330419
    Empirical Dispersion Energy =           0.0000000000000000
    VV10 Nonlocal Energy =                  0.0000000000000000
    Total Energy =                         -5.5089329080304372

  UHF NO Occupations:
  HONO-2 :    1 A1 1.0000000
  HONO-1 :    2 A1 1.0000000
  HONO-0 :    3 A1 1.0000000
  LUNO+0 :    4 A1 0.0000000
  LUNO+1 :    5 A1 0.0000000
  LUNO+2 :    6 A1 0.0000000
  LUNO+3 :    7 A1 0.0000000

Computation Completed

Properties will be evaluated at   0.000000,   0.000000,   0.000000 [a0]

Properties computed using the SCF density matrix

 Multipole Moments:

 ------------------------------------------------------------------------------------
     Multipole            Electronic (a.u.)      Nuclear  (a.u.)        Total (a.u.)
 ------------------------------------------------------------------------------------

 L = 1.  Multiply by 2.5417464519 to convert [e a0] to [Debye]
 Dipole X            :          0.0000000            0.0000000            0.0000000
 Dipole Y            :          0.0000000            0.0000000            0.0000000
 Dipole Z            :         -2.4408991            2.5971463            0.1562472
 Magnitude           :                                                    0.1562472

 ------------------------------------------------------------------------------------

*** tstop() called on Joses-MacBook-Pro-2.local at Thu Jul 17 12:18:56 2025
Module time:
	user time   =       0.63 seconds =       0.01 minutes
	system time =       3.19 seconds =       0.05 minutes
	total time  =          1 seconds =       0.02 minutes
Total time:
	user time   =      12.71 seconds =       0.21 minutes
	system time =      47.81 seconds =       0.80 minutes
	total time  =          6 seconds =       0.10 minutes

*** tstart() called on Joses-MacBook-Pro-2.local
*** at Thu Jul 17 12:18:56 2025

         ------------------------------------------------------------
                                   SCF GRAD
                          Rob Parrish, Justin Turney,
                       Andy Simmonett, and Alex Sokolov
         ------------------------------------------------------------

  ==> Geometry <==

    Molecular point group: c2v
    Full point group: C_inf_v

    Geometry (in Angstrom), charge = 1, multiplicity = 4:

       Center              X                  Y                   Z               Mass
    ------------   -----------------  -----------------  -----------------  -----------------
         H            0.000000000000     0.000000000000     2.415123428536     1.007825032230
         LI           0.000000000000     0.000000000000    -0.346924266671     7.016003436600

  Nuclear repulsion =    0.574766190592883

  ==> Basis Set <==

  Basis Set: CC-PVDZ
    Blend: CC-PVDZ
    Number of shells: 9
    Number of basis functions: 19
    Number of Cartesian functions: 20
    Spherical Harmonics?: true
    Max angular momentum: 2

  ==> DFJKGrad: Density-Fitted SCF Gradients <==

    Gradient:                    1
    J tasked:                  Yes
    K tasked:                  Yes
    wK tasked:                  No
    OpenMP threads:              1
    Integrals threads:           1
    Memory [MiB]:              375
    Schwarz Cutoff:          1E-12
    Fitting Condition:       1E-10

   => Auxiliary Basis Set <=

  Basis Set: (CC-PVDZ AUX)
    Blend: CC-PVDZ-JKFIT + DEF2-UNIVERSAL-JKFIT
    Number of shells: 26
    Number of basis functions: 74
    Number of Cartesian functions: 85
    Spherical Harmonics?: true
    Max angular momentum: 3

  ==> DFT Potential <==

   => LibXC <=

    Version 6.2.2
    S. Lehtola, C. Steigemann, M. J.T. Oliveira, and M. A.L. Marques.,  SoftwareX 7, 1â€“5 (2018) (10.1016/j.softx.2017.11.002)

   => Composite Functional: B3LYP <=

    B3LYP Hyb-GGA Exchange-Correlation Functional

    P. J. Stephens, F. J. Devlin, C. F. Chabalowski, and M. J. Frisch.,  J. Phys. Chem. 98, 11623 (1994) (10.1021/j100096a001)

    Deriv               =              1
    GGA                 =           TRUE
    Meta                =          FALSE

    Exchange Hybrid     =           TRUE
    MP2 Hybrid          =          FALSE

   => Exchange Functionals <=

    0.0800   Slater exchange
    0.7200         Becke 88

   => Exact (HF) Exchange <=

    0.2000               HF

   => Correlation Functionals <=

    0.1900   Vosko, Wilk & Nusair (VWN5_RPA)
    0.8100   Lee, Yang & Parr

   => LibXC Density Thresholds  <==

    XC_HYB_GGA_XC_B3LYP:  1.00E-15

   => Molecular Quadrature <=

    Radial Scheme          =       TREUTLER
    Pruning Scheme         =           NONE
    Nuclear Scheme         =       TREUTLER

    Blocking Scheme        =         OCTREE
    BS radius alpha        =              1
    Pruning alpha          =              1
    Radial Points          =             75
    Spherical Points       =            302
    Total Points           =          44348
    Total Blocks           =            409
    Max Points             =            256
    Max Functions          =             19
    Weights Tolerance      =       1.00E-15

  -Total Gradient:
     Atom            X                  Y                   Z
    ------   -----------------  -----------------  -----------------
       1        0.000000000000     0.000000000000    -0.000015045094
       2        0.000000000000     0.000000000000     0.000014875790

*** tstop() called on Joses-MacBook-Pro-2.local at Thu Jul 17 12:18:56 2025
Module time:
	user time   =       0.19 seconds =       0.00 minutes
	system time =       0.89 seconds =       0.01 minutes
	total time  =          0 seconds =       0.00 minutes
Total time:
	user time   =      12.90 seconds =       0.21 minutes
	system time =      48.70 seconds =       0.81 minutes
	total time  =          6 seconds =       0.10 minutes

    			-----------------------------------------

    			 OPTKING 3.0: for geometry optimizations

    			     By R.A. King, Bethel University

    			        with contributions from

    			    A.V. Copan, J. Cayton, A. Heide

    			-----------------------------------------

	                            ===> Fragment 1 <==

	 Z (Atomic Numbers)          Masses                          Geom
	       1.000000             1.007825          0.00000000  0.00000000  4.56392184
	       3.000000             7.016003          0.00000000  0.00000000 -0.65559185

	 - Coordinate -           - BOHR/RAD -       - ANG/DEG -
	 R(1,2)           =         5.219514           2.762048

	        --- Internal Coordinate Step in ANG or DEG, aJ/ANG or AJ/DEG ---
	-------------------------------------------------------------------------------
	           Coordinate      Previous         Force          Change          New
	           ----------      --------        ------          ------        ------
	               R(1,2)       2.76205        0.00012        0.00177       2.76381
	-------------------------------------------------------------------------------

	                                 ==> Convergence Check <==

	Measures of convergence in internal coordinates in au.

	Criteria marked as inactive (o), active & met (*), and active & unmet ( ).

	----------------------------------------------------------------------------------------------
	   Step    Total Energy     Delta E     Max Force     RMS Force      Max Disp      RMS Disp
	----------------------------------------------------------------------------------------------
	  Convergence Criteria     1.00e-06 *    3.00e-04 *             o    1.20e-03 *             o
	----------------------------------------------------------------------------------------------
	    12      -5.50893291   -7.79e-07 *    1.50e-05 *    1.50e-05 o    3.34e-03      3.34e-03 o  ~
	----------------------------------------------------------------------------------------------

Next Geometry in Ang
	Fragment 1 (Ang)

	    H   0.0000000000   0.0000000000   2.4160064214
	   Li   0.0000000000   0.0000000000  -0.3478072595

    Final optimized geometry and variables:
    Molecular point group: c2v
    Full point group: C_inf_v

    Geometry (in Angstrom), charge = 1, multiplicity = 4:

    H            0.000000000000     0.000000000000     2.415123428536
    LI           0.000000000000     0.000000000000    -0.346924266671

    Psi4 stopped on: Thursday, 17 July 2025 12:18PM
    Psi4 wall time for execution: 0:00:06.91

*** Psi4 exiting successfully. Buy a developer a beer!
