                               Psi4 1.9.1 release

  ==> Input File <==

--------------------------------------------------------------------------
molecule {
1 4
B   0.00000        0.60000        0.00000
F   0.00000       -0.60000        0.00000
}

set {
basis              cc-pvdz
reference          uks
maxiter            500
geom_maxiter       500
DAMPING_PERCENTAGE 1
guess              SAP
}

optimize('b3lyp')
--------------------------------------------------------------------------

    Molecular point group: c2v
  Charge       = 1
  Multiplicity = 4
  Basis Set: CC-PVDZ
    Blend: CC-PVDZ
  Basis Set: (CC-PVDZ AUX)
    Blend: CC-PVDZ-JKFIT
  @DF-UKS Final Energy:  -123.84870727134589
    Total Energy =                       -123.8487072713458872
 Dipole X            :          0.0000000            0.0000000            0.0000000
 Dipole Y            :          0.0000000            0.0000000            0.0000000
 Dipole Z            :          0.3803872           -0.3092107            0.0711765
 Magnitude           :                                                    0.0711765
    Molecular point group: c2v
  Basis Set: CC-PVDZ
    Blend: CC-PVDZ
  Basis Set: (CC-PVDZ AUX)
    Blend: CC-PVDZ-JKFIT
  Basis Set: CC-PVDZ
    Blend: CC-PVDZ
  Basis Set: (CC-PVDZ AUX)
    Blend: CC-PVDZ-JKFIT
  @DF-UKS Final Energy:  -123.92640694786381
    Total Energy =                       -123.9264069478638106
  Basis Set: CC-PVDZ
    Blend: CC-PVDZ
  Basis Set: (CC-PVDZ AUX)
    Blend: CC-PVDZ-JKFIT
  Basis Set: CC-PVDZ
    Blend: CC-PVDZ
  @DF-UKS Final Energy:  -123.94694807253045
    Total Energy =                       -123.9469480725304464
  @DF-UKS Final Energy:  -123.95815711184862
    Total Energy =                       -123.9581571118486210
  @DF-UKS Final Energy:  -123.96121227847483
    Total Energy =                       -123.9612122784748323
  @DF-UKS Final Energy:  -123.96244703562031
    Total Energy =                       -123.9624470356203148
  @DF-UKS Final Energy:  -123.96273923649773
    Total Energy =                       -123.9627392364977254
  @DF-UKS Final Energy:  -123.96281573024314
    Total Energy =                       -123.9628157302431362
  @DF-UKS Final Energy:  -123.96284139850175
    Total Energy =                       -123.9628413985017517
  Basis Set: (CC-PVDZ AUX)
    Blend: CC-PVDZ-JKFIT
  Basis Set: CC-PVDZ
    Blend: CC-PVDZ
  Basis Set: (CC-PVDZ AUX)
    Blend: CC-PVDZ-JKFIT
  @DF-UKS Final Energy:  -123.96284488171415
    Total Energy =                       -123.9628448817141475
  Basis Set: CC-PVDZ
    Blend: CC-PVDZ
  Basis Set: (CC-PVDZ AUX)
    Blend: CC-PVDZ-JKFIT
  Charge       = 1
  Multiplicity = 4
  Basis Set: CC-PVDZ
    Blend: CC-PVDZ
  Basis Set: (CC-PVDZ AUX)
    Blend: CC-PVDZ-JKFIT

    Orbital Energies [Eh]
    ---------------------

    Alpha Occupied:

       1A1   -25.230837     2A1    -7.270674     3A1    -1.648451
       1B1    -0.956126     4A1    -0.934130     1B2    -0.866967
       5A1    -0.701797     2B2    -0.526693

    Alpha Virtual:

       2B1    -0.423542     6A1    -0.341593     3B2     0.007064
       7A1     0.012499     3B1     0.022082     8A1     0.065992
       4B2     0.350103     4B1     0.350733     1A2     0.351669
       9A1     0.361236    10A1     0.500022     5B1     0.809159
       5B2     0.857528    11A1     0.866668    12A1     1.637166
      13A1     3.042210     2A2     3.049998     6B1     3.078257
       6B2     3.148074    14A1     3.226942

    Beta Occupied:

       1A1   -25.194189     2A1    -7.237978     3A1    -1.546765
       4A1    -0.878435     1B2    -0.825521

    Beta Virtual:

       1B1    -0.654830     5A1    -0.498134     2B1    -0.343841
       2B2    -0.301830     6A1    -0.265972     7A1     0.029224
       3B1     0.047012     3B2     0.074688     8A1     0.125408
       4B1     0.419393     4B2     0.445459     9A1     0.455748
       1A2     0.459727    10A1     0.578539     5B2     0.889346
      11A1     0.898431     5B1     0.910367    12A1     1.689289
       2A2     3.149646    13A1     3.160760     6B2     3.175820
       6B1     3.185048    14A1     3.279084

    Final Occupation by Irrep:
             A1    A2    B1    B2
    DOCC [     4,    0,    0,    1 ]
    SOCC [     1,    0,    1,    1 ]
    NA   [     5,    0,    1,    2 ]
    NB   [     4,    0,    0,    1 ]

  @DF-UKS Final Energy:  -123.96284505263007

   => Energetics <=

    Nuclear Repulsion Energy =             13.5718663330819069
    One-Electron Energy =                -193.1164241452083559
    Two-Electron Energy =                  66.8938753018296524
    DFT Exchange-Correlation Energy =     -11.3121625423332830
    Empirical Dispersion Energy =           0.0000000000000000
    VV10 Nonlocal Energy =                  0.0000000000000000
    Total Energy =                       -123.9628450526300725

  UHF NO Occupations:
  HONO-2 :    1 B1 1.0000000
  HONO-1 :    2 B2 1.0000000
  HONO-0 :    5 A1 1.0000000
  LUNO+0 :    6 A1 0.0006499
  LUNO+1 :    7 A1 0.0002741
  LUNO+2 :    3 B2 0.0001570
  LUNO+3 :    8 A1 0.0000003

Computation Completed

Properties will be evaluated at   0.000000,   0.000000,   0.000000 [a0]

Properties computed using the SCF density matrix

 Multipole Moments:

 ------------------------------------------------------------------------------------
     Multipole            Electronic (a.u.)      Nuclear  (a.u.)        Total (a.u.)
 ------------------------------------------------------------------------------------

 L = 1.  Multiply by 2.5417464519 to convert [e a0] to [Debye]
 Dipole X            :          0.0000000            0.0000000            0.0000000
 Dipole Y            :          0.0000000            0.0000000            0.0000000
 Dipole Z            :          1.5066511           -0.4521134            1.0545378
 Magnitude           :                                                    1.0545378

 ------------------------------------------------------------------------------------

*** tstop() called on Joses-MacBook-Pro-2.local at Thu Jul 17 13:31:23 2025
Module time:
	user time   =       2.44 seconds =       0.04 minutes
	system time =       3.20 seconds =       0.05 minutes
	total time  =          0 seconds =       0.00 minutes
Total time:
	user time   =      31.68 seconds =       0.53 minutes
	system time =      61.13 seconds =       1.02 minutes
	total time  =          8 seconds =       0.13 minutes

*** tstart() called on Joses-MacBook-Pro-2.local
*** at Thu Jul 17 13:31:23 2025

         ------------------------------------------------------------
                                   SCF GRAD
                          Rob Parrish, Justin Turney,
                       Andy Simmonett, and Alex Sokolov
         ------------------------------------------------------------

  ==> Geometry <==

    Molecular point group: c2v
    Full point group: C_inf_v

    Geometry (in Angstrom), charge = 1, multiplicity = 4:

       Center              X                  Y                   Z               Mass
    ------------   -----------------  -----------------  -----------------  -----------------
         B            0.000000000000     0.000000000000     1.110857469747    11.009305360000
         F            0.000000000000     0.000000000000    -0.643726159043    18.998403162730

  Nuclear repulsion =   13.571866333081907

  ==> Basis Set <==

  Basis Set: CC-PVDZ
    Blend: CC-PVDZ
    Number of shells: 12
    Number of basis functions: 28
    Number of Cartesian functions: 30
    Spherical Harmonics?: true
    Max angular momentum: 2

  ==> DFJKGrad: Density-Fitted SCF Gradients <==

    Gradient:                    1
    J tasked:                  Yes
    K tasked:                  Yes
    wK tasked:                  No
    OpenMP threads:              1
    Integrals threads:           1
    Memory [MiB]:              375
    Schwarz Cutoff:          1E-12
    Fitting Condition:       1E-10

   => Auxiliary Basis Set <=

  Basis Set: (CC-PVDZ AUX)
    Blend: CC-PVDZ-JKFIT
    Number of shells: 48
    Number of basis functions: 140
    Number of Cartesian functions: 162
    Spherical Harmonics?: true
    Max angular momentum: 3

  ==> DFT Potential <==

   => LibXC <=

    Version 6.2.2
    S. Lehtola, C. Steigemann, M. J.T. Oliveira, and M. A.L. Marques.,  SoftwareX 7, 1â€“5 (2018) (10.1016/j.softx.2017.11.002)

   => Composite Functional: B3LYP <=

    B3LYP Hyb-GGA Exchange-Correlation Functional

    P. J. Stephens, F. J. Devlin, C. F. Chabalowski, and M. J. Frisch.,  J. Phys. Chem. 98, 11623 (1994) (10.1021/j100096a001)

    Deriv               =              1
    GGA                 =           TRUE
    Meta                =          FALSE

    Exchange Hybrid     =           TRUE
    MP2 Hybrid          =          FALSE

   => Exchange Functionals <=

    0.0800   Slater exchange
    0.7200         Becke 88

   => Exact (HF) Exchange <=

    0.2000               HF

   => Correlation Functionals <=

    0.1900   Vosko, Wilk & Nusair (VWN5_RPA)
    0.8100   Lee, Yang & Parr

   => LibXC Density Thresholds  <==

    XC_HYB_GGA_XC_B3LYP:  1.00E-15

   => Molecular Quadrature <=

    Radial Scheme          =       TREUTLER
    Pruning Scheme         =           NONE
    Nuclear Scheme         =       TREUTLER

    Blocking Scheme        =         OCTREE
    BS radius alpha        =              1
    Pruning alpha          =              1
    Radial Points          =             75
    Spherical Points       =            302
    Total Points           =          43600
    Total Blocks           =            396
    Max Points             =            256
    Max Functions          =             28
    Weights Tolerance      =       1.00E-15

  -Total Gradient:
     Atom            X                  Y                   Z
    ------   -----------------  -----------------  -----------------
       1       -0.000000000000     0.000000000000    -0.000000583540
       2        0.000000000000    -0.000000000000     0.000046206260

*** tstop() called on Joses-MacBook-Pro-2.local at Thu Jul 17 13:31:23 2025
Module time:
	user time   =       0.52 seconds =       0.01 minutes
	system time =       1.15 seconds =       0.02 minutes
	total time  =          0 seconds =       0.00 minutes
Total time:
	user time   =      32.20 seconds =       0.54 minutes
	system time =      62.28 seconds =       1.04 minutes
	total time  =          8 seconds =       0.13 minutes

    			-----------------------------------------

    			 OPTKING 3.0: for geometry optimizations

    			     By R.A. King, Bethel University

    			        with contributions from

    			    A.V. Copan, J. Cayton, A. Heide

    			-----------------------------------------

	                            ===> Fragment 1 <==

	 Z (Atomic Numbers)          Masses                          Geom
	       5.000000            11.009305          0.00000000  0.00000000  2.09921638
	       9.000000            18.998403          0.00000000  0.00000000 -1.21646614

	 - Coordinate -           - BOHR/RAD -       - ANG/DEG -
	 R(1,2)           =         3.315683           1.754584

	        --- Internal Coordinate Step in ANG or DEG, aJ/ANG or AJ/DEG ---
	-------------------------------------------------------------------------------
	           Coordinate      Previous         Force          Change          New
	           ----------      --------        ------          ------        ------
	               R(1,2)       1.75458        0.00019        0.00018       1.75476
	-------------------------------------------------------------------------------

	                                 ==> Convergence Check <==

	Measures of convergence in internal coordinates in au.

	Criteria marked as inactive (o), active & met (*), and active & unmet ( ).

	----------------------------------------------------------------------------------------------
	   Step    Total Energy     Delta E     Max Force     RMS Force      Max Disp      RMS Disp
	----------------------------------------------------------------------------------------------
	  Convergence Criteria     1.00e-06 *    3.00e-04 *             o    1.20e-03 *             o
	----------------------------------------------------------------------------------------------
	    11    -123.96284505   -1.71e-07 *    2.34e-05 *    2.34e-05 o    3.32e-04 *    3.32e-04 o  ~
	----------------------------------------------------------------------------------------------

Next Geometry in Ang
	Fragment 1 (Ang)

	    B   0.0000000000   0.0000000000   1.1109452585
	    F   0.0000000000   0.0000000000  -0.6438139478

    Final optimized geometry and variables:
    Molecular point group: c2v
    Full point group: C_inf_v

    Geometry (in Angstrom), charge = 1, multiplicity = 4:

    B            0.000000000000     0.000000000000     1.110857469747
    F            0.000000000000     0.000000000000    -0.643726159043

    Psi4 stopped on: Thursday, 17 July 2025 01:31PM
    Psi4 wall time for execution: 0:00:09.52

*** Psi4 exiting successfully. Buy a developer a beer!
