                               Psi4 1.9.1 release

  ==> Input File <==

--------------------------------------------------------------------------
molecule {
1 4
P   0.00000        0.60000        0.00000
Cl   0.00000       -0.60000        0.00000
}

set {
basis              cc-pvdz
reference          uks
maxiter            500
geom_maxiter       500
DAMPING_PERCENTAGE 1
guess              SAP
}

optimize('b3lyp')
--------------------------------------------------------------------------

    Molecular point group: c2v
  Charge       = 1
  Multiplicity = 4
  Basis Set: CC-PVDZ
    Blend: CC-PVDZ
  Basis Set: (CC-PVDZ AUX)
    Blend: CC-PVDZ-JKFIT
  @DF-UKS Final Energy:  -799.88089277375855
    Total Energy =                       -799.8808927737585464
 Dipole X            :          0.0000000            0.0000000            0.0000000
 Dipole Y            :          0.0000000            0.0000000            0.0000000
 Dipole Z            :          0.0755762           -0.0695049            0.0060713
 Magnitude           :                                                    0.0060713
    Molecular point group: c2v
  Basis Set: CC-PVDZ
    Blend: CC-PVDZ
  Basis Set: (CC-PVDZ AUX)
    Blend: CC-PVDZ-JKFIT
  Basis Set: CC-PVDZ
    Blend: CC-PVDZ
  Basis Set: (CC-PVDZ AUX)
    Blend: CC-PVDZ-JKFIT
  @DF-UKS Final Energy:  -799.92237132495677
    Total Energy =                       -799.9223713249567709
  Basis Set: CC-PVDZ
    Blend: CC-PVDZ
  Basis Set: (CC-PVDZ AUX)
    Blend: CC-PVDZ-JKFIT
  Basis Set: CC-PVDZ
    Blend: CC-PVDZ
  @DF-UKS Final Energy:  -799.99917631304345
    Total Energy =                       -799.9991763130435629
  @DF-UKS Final Energy:  -800.24765387974696
    Total Energy =                       -800.2476538797469630
  @DF-UKS Final Energy:  -800.75272671045889
    Total Energy =                       -800.7527267104588873
  @DF-UKS Final Energy:  -800.91594987002736
    Total Energy =                       -800.9159498700274753
  @DF-UKS Final Energy:  -801.01325085610699
    Total Energy =                       -801.0132508561069926
  @DF-UKS Final Energy:  -801.04957399027603
    Total Energy =                       -801.0495739902761443
  @DF-UKS Final Energy:  -801.06794375233051
    Total Energy =                       -801.0679437523303932
  @DF-UKS Final Energy:  -801.07687914148073
    Total Energy =                       -801.0768791414807311
  @DF-UKS Final Energy:  -801.07976393834178
    Total Energy =                       -801.0797639383417845
  @DF-UKS Final Energy:  -801.08117531085054
    Total Energy =                       -801.0811753108504263
  @DF-UKS Final Energy:  -801.08164517797127
    Total Energy =                       -801.0816451779712679
  @DF-UKS Final Energy:  -801.08186254860686
    Total Energy =                       -801.0818625486067504
  @DF-UKS Final Energy:  -801.08193477957491
    Total Energy =                       -801.0819347795749081
  Basis Set: (CC-PVDZ AUX)
    Blend: CC-PVDZ-JKFIT
  Basis Set: CC-PVDZ
    Blend: CC-PVDZ
  Basis Set: (CC-PVDZ AUX)
    Blend: CC-PVDZ-JKFIT
  @DF-UKS Final Energy:  -801.08194834126550
    Total Energy =                       -801.0819483412653881
  Basis Set: CC-PVDZ
    Blend: CC-PVDZ
  Basis Set: (CC-PVDZ AUX)
    Blend: CC-PVDZ-JKFIT
  Charge       = 1
  Multiplicity = 4
  Basis Set: CC-PVDZ
    Blend: CC-PVDZ
  Basis Set: (CC-PVDZ AUX)
    Blend: CC-PVDZ-JKFIT

    Orbital Energies [Eh]
    ---------------------

    Alpha Occupied:

       1A1  -101.890034     2A1   -77.483486     3A1    -9.804824
       4A1    -7.575919     1B1    -7.555573     1B2    -7.555573
       5A1    -6.947024     6A1    -5.113036     2B1    -5.108725
       2B2    -5.108725     7A1    -1.167367     8A1    -0.916794
       9A1    -0.715690     3B2    -0.655630     3B1    -0.655630
       4B2    -0.535378     4B1    -0.535378

    Alpha Virtual:

      10A1    -0.349156    11A1     0.017944     5B1     0.074875
       5B2     0.074875    12A1     0.092134     1A2     0.122502
      13A1     0.122504     6B2     0.141436     6B1     0.141436
      14A1     0.189490     7B1     0.301270     7B2     0.301270
      15A1     0.405614    16A1     0.426983     2A2     0.426984
      17A1     0.437884     8B1     0.526676     8B2     0.526676
      18A1     0.932428

    Beta Occupied:

       1A1  -101.884750     2A1   -77.470877     3A1    -9.799681
       4A1    -7.562779     1B1    -7.550435     1B2    -7.550435
       5A1    -6.932818     6A1    -5.100561     2B1    -5.086954
       2B2    -5.086954     7A1    -1.128462     8A1    -0.818359
       3B1    -0.627218     3B2    -0.627218

    Beta Virtual:

       9A1    -0.577285     4B2    -0.386529     4B1    -0.386529
      10A1    -0.290229    11A1     0.049921    12A1     0.133308
       5B2     0.141431     5B1     0.141431     6B2     0.188083
       6B1     0.188083    13A1     0.220677    14A1     0.225068
       1A2     0.225069     7B1     0.312218     7B2     0.312218
      15A1     0.444120     2A2     0.444121    16A1     0.449526
      17A1     0.469136     8B1     0.571692     8B2     0.571692
      18A1     0.962166

    Final Occupation by Irrep:
             A1    A2    B1    B2
    DOCC [     8,    0,    3,    3 ]
    SOCC [     1,    0,    1,    1 ]
    NA   [     9,    0,    4,    4 ]
    NB   [     8,    0,    3,    3 ]

  @DF-UKS Final Energy:  -801.08194984500165

   => Energetics <=

    Nuclear Repulsion Energy =             64.4401981071608816
    One-Electron Energy =               -1225.1994403231042270
    Two-Electron Energy =                 400.8694295456393775
    DFT Exchange-Correlation Energy =     -41.1921371746976988
    Empirical Dispersion Energy =           0.0000000000000000
    VV10 Nonlocal Energy =                  0.0000000000000000
    Total Energy =                       -801.0819498450015317

  UHF NO Occupations:
  HONO-2 :    4 B2 1.0000000
  HONO-1 :    4 B1 1.0000000
  HONO-0 :    9 A1 1.0000000
  LUNO+0 :   10 A1 0.0014738
  LUNO+1 :    5 B1 0.0002781
  LUNO+2 :    5 B2 0.0002781
  LUNO+3 :   11 A1 0.0001606

Computation Completed

Properties will be evaluated at   0.000000,   0.000000,   0.000000 [a0]

Properties computed using the SCF density matrix

 Multipole Moments:

 ------------------------------------------------------------------------------------
     Multipole            Electronic (a.u.)      Nuclear  (a.u.)        Total (a.u.)
 ------------------------------------------------------------------------------------

 L = 1.  Multiply by 2.5417464519 to convert [e a0] to [Debye]
 Dipole X            :          0.0000000            0.0000000            0.0000000
 Dipole Y            :          0.0000000            0.0000000            0.0000000
 Dipole Z            :          1.0715338           -0.1212882            0.9502456
 Magnitude           :                                                    0.9502456

 ------------------------------------------------------------------------------------

*** tstop() called on Joses-MacBook-Pro-2.local at Thu Jul 17 15:47:34 2025
Module time:
	user time   =       8.08 seconds =       0.13 minutes
	system time =       1.70 seconds =       0.03 minutes
	total time  =          1 seconds =       0.02 minutes
Total time:
	user time   =     207.36 seconds =       3.46 minutes
	system time =      47.37 seconds =       0.79 minutes
	total time  =         24 seconds =       0.40 minutes

*** tstart() called on Joses-MacBook-Pro-2.local
*** at Thu Jul 17 15:47:34 2025

         ------------------------------------------------------------
                                   SCF GRAD
                          Rob Parrish, Justin Turney,
                       Andy Simmonett, and Alex Sokolov
         ------------------------------------------------------------

  ==> Geometry <==

    Molecular point group: c2v
    Full point group: C_inf_v

    Geometry (in Angstrom), charge = 1, multiplicity = 4:

       Center              X                  Y                   Z               Mass
    ------------   -----------------  -----------------  -----------------  -----------------
         P            0.000000000000     0.000000000000     1.110451682567    30.973761998420
         CL           0.000000000000     0.000000000000    -0.983585776729    34.968852682000

  Nuclear repulsion =   64.440198107160882

  ==> Basis Set <==

  Basis Set: CC-PVDZ
    Blend: CC-PVDZ
    Number of shells: 16
    Number of basis functions: 36
    Number of Cartesian functions: 38
    Spherical Harmonics?: true
    Max angular momentum: 2

  ==> DFJKGrad: Density-Fitted SCF Gradients <==

    Gradient:                    1
    J tasked:                  Yes
    K tasked:                  Yes
    wK tasked:                  No
    OpenMP threads:              1
    Integrals threads:           1
    Memory [MiB]:              375
    Schwarz Cutoff:          1E-12
    Fitting Condition:       1E-10

   => Auxiliary Basis Set <=

  Basis Set: (CC-PVDZ AUX)
    Blend: CC-PVDZ-JKFIT
    Number of shells: 72
    Number of basis functions: 224
    Number of Cartesian functions: 260
    Spherical Harmonics?: true
    Max angular momentum: 3

  ==> DFT Potential <==

   => LibXC <=

    Version 6.2.2
    S. Lehtola, C. Steigemann, M. J.T. Oliveira, and M. A.L. Marques.,  SoftwareX 7, 1â€“5 (2018) (10.1016/j.softx.2017.11.002)

   => Composite Functional: B3LYP <=

    B3LYP Hyb-GGA Exchange-Correlation Functional

    P. J. Stephens, F. J. Devlin, C. F. Chabalowski, and M. J. Frisch.,  J. Phys. Chem. 98, 11623 (1994) (10.1021/j100096a001)

    Deriv               =              1
    GGA                 =           TRUE
    Meta                =          FALSE

    Exchange Hybrid     =           TRUE
    MP2 Hybrid          =          FALSE

   => Exchange Functionals <=

    0.0800   Slater exchange
    0.7200         Becke 88

   => Exact (HF) Exchange <=

    0.2000               HF

   => Correlation Functionals <=

    0.1900   Vosko, Wilk & Nusair (VWN5_RPA)
    0.8100   Lee, Yang & Parr

   => LibXC Density Thresholds  <==

    XC_HYB_GGA_XC_B3LYP:  1.00E-15

   => Molecular Quadrature <=

    Radial Scheme          =       TREUTLER
    Pruning Scheme         =           NONE
    Nuclear Scheme         =       TREUTLER

    Blocking Scheme        =         OCTREE
    BS radius alpha        =              1
    Pruning alpha          =              1
    Radial Points          =             75
    Spherical Points       =            302
    Total Points           =          40842
    Total Blocks           =            368
    Max Points             =            254
    Max Functions          =             36
    Weights Tolerance      =       1.00E-15

  -Total Gradient:
     Atom            X                  Y                   Z
    ------   -----------------  -----------------  -----------------
       1        0.000000000000    -0.000000000000    -0.000109356358
       2        0.000000000000    -0.000000000000     0.000122546373

*** tstop() called on Joses-MacBook-Pro-2.local at Thu Jul 17 15:47:34 2025
Module time:
	user time   =       2.57 seconds =       0.04 minutes
	system time =       1.15 seconds =       0.02 minutes
	total time  =          0 seconds =       0.00 minutes
Total time:
	user time   =     209.93 seconds =       3.50 minutes
	system time =      48.52 seconds =       0.81 minutes
	total time  =         24 seconds =       0.40 minutes

    			-----------------------------------------

    			 OPTKING 3.0: for geometry optimizations

    			     By R.A. King, Bethel University

    			        with contributions from

    			    A.V. Copan, J. Cayton, A. Heide

    			-----------------------------------------

	                            ===> Fragment 1 <==

	 Z (Atomic Numbers)          Masses                          Geom
	      15.000000            30.973762          0.00000000  0.00000000  2.09844956
	      17.000000            34.968853          0.00000000  0.00000000 -1.85870774

	 - Coordinate -           - BOHR/RAD -       - ANG/DEG -
	 R(1,2)           =         3.957157           2.094037

	        --- Internal Coordinate Step in ANG or DEG, aJ/ANG or AJ/DEG ---
	-------------------------------------------------------------------------------
	           Coordinate      Previous         Force          Change          New
	           ----------      --------        ------          ------        ------
	               R(1,2)       2.09404        0.00096        0.00062       2.09465
	-------------------------------------------------------------------------------

	                                 ==> Convergence Check <==

	Measures of convergence in internal coordinates in au.

	Criteria marked as inactive (o), active & met (*), and active & unmet ( ).

	----------------------------------------------------------------------------------------------
	   Step    Total Energy     Delta E     Max Force     RMS Force      Max Disp      RMS Disp
	----------------------------------------------------------------------------------------------
	  Convergence Criteria     1.00e-06 *    3.00e-04 *             o    1.20e-03 *             o
	----------------------------------------------------------------------------------------------
	    17    -801.08194985   -1.50e-06      1.16e-04 *    1.16e-04 o    1.16e-03 *    1.16e-03 o  ~
	----------------------------------------------------------------------------------------------

Next Geometry in Ang
	Fragment 1 (Ang)

	    P   0.0000000000   0.0000000000   1.1107594551
	   Cl   0.0000000000   0.0000000000  -0.9838935492

    Final optimized geometry and variables:
    Molecular point group: c2v
    Full point group: C_inf_v

    Geometry (in Angstrom), charge = 1, multiplicity = 4:

    P            0.000000000000     0.000000000000     1.110451682567
    CL           0.000000000000     0.000000000000    -0.983585776729

    Psi4 stopped on: Thursday, 17 July 2025 03:47PM
    Psi4 wall time for execution: 0:00:25.05

*** Psi4 exiting successfully. Buy a developer a beer!
