                               Psi4 1.9.1 release

  ==> Input File <==

--------------------------------------------------------------------------
molecule {
1 4
B   0.00000        0.60000        0.00000
B   0.00000       -0.60000        0.00000
}

set {
basis              cc-pvdz
reference          uks
maxiter            500
geom_maxiter       500
DAMPING_PERCENTAGE 1
guess              SAP
}

optimize('b3lyp')
--------------------------------------------------------------------------

    Molecular point group: d2h
  Charge       = 1
  Multiplicity = 4
  Basis Set: CC-PVDZ
    Blend: CC-PVDZ
  Basis Set: (CC-PVDZ AUX)
    Blend: CC-PVDZ-JKFIT
  @DF-UKS Final Energy:   -48.92989493374155
    Total Energy =                        -48.9298949337415507
 Dipole X            :          0.0000000            0.0000000            0.0000000
 Dipole Y            :          0.0000000            0.0000000            0.0000000
 Dipole Z            :          0.0000000            0.0000000            0.0000000
 Magnitude           :                                                    0.0000000
    Molecular point group: d2h
  Basis Set: CC-PVDZ
    Blend: CC-PVDZ
  Basis Set: (CC-PVDZ AUX)
    Blend: CC-PVDZ-JKFIT
  Basis Set: CC-PVDZ
    Blend: CC-PVDZ
  Basis Set: (CC-PVDZ AUX)
    Blend: CC-PVDZ-JKFIT
  @DF-UKS Final Energy:   -49.03625700392553
    Total Energy =                        -49.0362570039255274
  Basis Set: CC-PVDZ
    Blend: CC-PVDZ
  Basis Set: (CC-PVDZ AUX)
    Blend: CC-PVDZ-JKFIT
  Basis Set: CC-PVDZ
    Blend: CC-PVDZ
  @DF-UKS Final Energy:   -49.04613408821041
    Total Energy =                        -49.0461340882104153
  @DF-UKS Final Energy:   -49.04947547395636
    Total Energy =                        -49.0494754739563632
  @DF-UKS Final Energy:   -49.04971738133683
    Total Energy =                        -49.0497173813368263
  @DF-UKS Final Energy:   -49.04973705092881
    Total Energy =                        -49.0497370509288046
  Basis Set: (CC-PVDZ AUX)
    Blend: CC-PVDZ-JKFIT
  Basis Set: CC-PVDZ
    Blend: CC-PVDZ
  Basis Set: (CC-PVDZ AUX)
    Blend: CC-PVDZ-JKFIT
  @DF-UKS Final Energy:   -49.04973871968061
    Total Energy =                        -49.0497387196806187
  Basis Set: CC-PVDZ
    Blend: CC-PVDZ
  Basis Set: (CC-PVDZ AUX)
    Blend: CC-PVDZ-JKFIT
  Charge       = 1
  Multiplicity = 4
  Basis Set: CC-PVDZ
    Blend: CC-PVDZ
  Basis Set: (CC-PVDZ AUX)
    Blend: CC-PVDZ-JKFIT

    Orbital Energies [Eh]
    ---------------------

    Alpha Occupied:

       1Ag    -7.196000     1B2u   -7.195145     2Ag    -0.860504
       2B2u   -0.622531     1B1u   -0.550718     1B3u   -0.550718

    Alpha Virtual:

       3Ag    -0.484115     1B1g   -0.313439     1B3g   -0.313439
       3B2u   -0.059353     2B3u    0.015908     2B1u    0.015908
       4Ag     0.017932     5Ag     0.066770     2B1g    0.092059
       2B3g    0.092059     4B2u    0.114058     1B2g    0.291036
       6Ag     0.291036     3B3u    0.372034     3B1u    0.372034
       5B2u    0.434776     1Au     0.530539     6B2u    0.530539
       7Ag     0.807253     3B1g    0.828107     3B3g    0.828107
       7B2u    1.012166

    Beta Occupied:

       1Ag    -7.174292     1B2u   -7.173514     2Ag    -0.789108

    Beta Virtual:

       2B2u   -0.453554     1B1u   -0.403043     1B3u   -0.403043
       3Ag    -0.391380     1B1g   -0.215928     1B3g   -0.215928
       3B2u   -0.031900     4Ag     0.033958     2B3u    0.046699
       2B1u    0.046699     5Ag     0.114657     2B1g    0.129368
       2B3g    0.129368     4B2u    0.177553     6Ag     0.366176
       1B2g    0.366176     3B3u    0.447037     3B1u    0.447037
       5B2u    0.473900     6B2u    0.606889     1Au     0.606889
       7Ag     0.872228     3B1g    0.898938     3B3g    0.898938
       7B2u    1.048837

    Final Occupation by Irrep:
             Ag   B1g   B2g   B3g    Au   B1u   B2u   B3u
    DOCC [     2,    0,    0,    0,    0,    0,    1,    0 ]
    SOCC [     0,    0,    0,    0,    0,    1,    1,    1 ]
    NA   [     2,    0,    0,    0,    0,    1,    2,    1 ]
    NB   [     2,    0,    0,    0,    0,    0,    1,    0 ]

  @DF-UKS Final Energy:   -49.04973887022432

   => Energetics <=

    Nuclear Repulsion Energy =              8.5571502649951388
    One-Electron Energy =                 -78.6342795995524568
    Two-Electron Energy =                  27.2131058590790822
    DFT Exchange-Correlation Energy =      -6.1857153947460928
    Empirical Dispersion Energy =           0.0000000000000000
    VV10 Nonlocal Energy =                  0.0000000000000000
    Total Energy =                        -49.0497388702243242

  UHF NO Occupations:
  HONO-2 :    2B2u 1.0000000
  HONO-1 :    1B3u 1.0000000
  HONO-0 :    1B1u 1.0000000
  LUNO+0 :    3 Ag 0.0093487
  LUNO+1 :    3B2u 0.0000003
  LUNO+2 :    4 Ag 0.0000002
  LUNO+3 :    4B2u 0.0000000

Computation Completed

Properties will be evaluated at   0.000000,   0.000000,   0.000000 [a0]

Properties computed using the SCF density matrix

 Multipole Moments:

 ------------------------------------------------------------------------------------
     Multipole            Electronic (a.u.)      Nuclear  (a.u.)        Total (a.u.)
 ------------------------------------------------------------------------------------

 L = 1.  Multiply by 2.5417464519 to convert [e a0] to [Debye]
 Dipole X            :          0.0000000            0.0000000            0.0000000
 Dipole Y            :          0.0000000            0.0000000            0.0000000
 Dipole Z            :          0.0000000            0.0000000            0.0000000
 Magnitude           :                                                    0.0000000

 ------------------------------------------------------------------------------------

*** tstop() called on Joses-MacBook-Pro-2.local at Thu Jul 17 13:29:47 2025
Module time:
	user time   =       4.03 seconds =       0.07 minutes
	system time =       1.82 seconds =       0.03 minutes
	total time  =          1 seconds =       0.02 minutes
Total time:
	user time   =      33.00 seconds =       0.55 minutes
	system time =      37.46 seconds =       0.62 minutes
	total time  =          8 seconds =       0.13 minutes

*** tstart() called on Joses-MacBook-Pro-2.local
*** at Thu Jul 17 13:29:47 2025

         ------------------------------------------------------------
                                   SCF GRAD
                          Rob Parrish, Justin Turney,
                       Andy Simmonett, and Alex Sokolov
         ------------------------------------------------------------

  ==> Geometry <==

    Molecular point group: d2h
    Full point group: D_inf_h

    Geometry (in Angstrom), charge = 1, multiplicity = 4:

       Center              X                  Y                   Z               Mass
    ------------   -----------------  -----------------  -----------------  -----------------
         B           -0.000000000000     0.773004438222     0.000000000000    11.009305360000
         B            0.000000000000    -0.773004438222     0.000000000000    11.009305360000

  Nuclear repulsion =    8.557150264995139

  ==> Basis Set <==

  Basis Set: CC-PVDZ
    Blend: CC-PVDZ
    Number of shells: 12
    Number of basis functions: 28
    Number of Cartesian functions: 30
    Spherical Harmonics?: true
    Max angular momentum: 2

  ==> DFJKGrad: Density-Fitted SCF Gradients <==

    Gradient:                    1
    J tasked:                  Yes
    K tasked:                  Yes
    wK tasked:                  No
    OpenMP threads:              1
    Integrals threads:           1
    Memory [MiB]:              375
    Schwarz Cutoff:          1E-12
    Fitting Condition:       1E-10

   => Auxiliary Basis Set <=

  Basis Set: (CC-PVDZ AUX)
    Blend: CC-PVDZ-JKFIT
    Number of shells: 48
    Number of basis functions: 140
    Number of Cartesian functions: 162
    Spherical Harmonics?: true
    Max angular momentum: 3

  ==> DFT Potential <==

   => LibXC <=

    Version 6.2.2
    S. Lehtola, C. Steigemann, M. J.T. Oliveira, and M. A.L. Marques.,  SoftwareX 7, 1â€“5 (2018) (10.1016/j.softx.2017.11.002)

   => Composite Functional: B3LYP <=

    B3LYP Hyb-GGA Exchange-Correlation Functional

    P. J. Stephens, F. J. Devlin, C. F. Chabalowski, and M. J. Frisch.,  J. Phys. Chem. 98, 11623 (1994) (10.1021/j100096a001)

    Deriv               =              1
    GGA                 =           TRUE
    Meta                =          FALSE

    Exchange Hybrid     =           TRUE
    MP2 Hybrid          =          FALSE

   => Exchange Functionals <=

    0.0800   Slater exchange
    0.7200         Becke 88

   => Exact (HF) Exchange <=

    0.2000               HF

   => Correlation Functionals <=

    0.1900   Vosko, Wilk & Nusair (VWN5_RPA)
    0.8100   Lee, Yang & Parr

   => LibXC Density Thresholds  <==

    XC_HYB_GGA_XC_B3LYP:  1.00E-15

   => Molecular Quadrature <=

    Radial Scheme          =       TREUTLER
    Pruning Scheme         =           NONE
    Nuclear Scheme         =       TREUTLER

    Blocking Scheme        =         OCTREE
    BS radius alpha        =              1
    Pruning alpha          =              1
    Radial Points          =             75
    Spherical Points       =            302
    Total Points           =          42516
    Total Blocks           =            394
    Max Points             =            248
    Max Functions          =             28
    Weights Tolerance      =       1.00E-15

  -Total Gradient:
     Atom            X                  Y                   Z
    ------   -----------------  -----------------  -----------------
       1        0.000000000000    -0.000053709993    -0.000000000000
       2       -0.000000000000     0.000053709993    -0.000000000000

*** tstop() called on Joses-MacBook-Pro-2.local at Thu Jul 17 13:29:47 2025
Module time:
	user time   =       1.01 seconds =       0.02 minutes
	system time =       0.98 seconds =       0.02 minutes
	total time  =          0 seconds =       0.00 minutes
Total time:
	user time   =      34.02 seconds =       0.57 minutes
	system time =      38.44 seconds =       0.64 minutes
	total time  =          8 seconds =       0.13 minutes

    			-----------------------------------------

    			 OPTKING 3.0: for geometry optimizations

    			     By R.A. King, Bethel University

    			        with contributions from

    			    A.V. Copan, J. Cayton, A. Heide

    			-----------------------------------------

	                            ===> Fragment 1 <==

	 Z (Atomic Numbers)          Masses                          Geom
	       5.000000            11.009305         -0.00000000  1.46076668  0.00000000
	       5.000000            11.009305          0.00000000 -1.46076668  0.00000000

	 - Coordinate -           - BOHR/RAD -       - ANG/DEG -
	 R(1,2)           =         2.921533           1.546009

	        --- Internal Coordinate Step in ANG or DEG, aJ/ANG or AJ/DEG ---
	-------------------------------------------------------------------------------
	           Coordinate      Previous         Force          Change          New
	           ----------      --------        ------          ------        ------
	               R(1,2)       1.54601        0.00044        0.00009       1.54610
	-------------------------------------------------------------------------------

	                                 ==> Convergence Check <==

	Measures of convergence in internal coordinates in au.

	Criteria marked as inactive (o), active & met (*), and active & unmet ( ).

	----------------------------------------------------------------------------------------------
	   Step    Total Energy     Delta E     Max Force     RMS Force      Max Disp      RMS Disp
	----------------------------------------------------------------------------------------------
	  Convergence Criteria     1.00e-06 *    3.00e-04 *             o    1.20e-03 *             o
	----------------------------------------------------------------------------------------------
	     8     -49.04973887   -1.51e-07 *    5.37e-05 *    5.37e-05 o    1.66e-04 *    1.66e-04 o  ~
	----------------------------------------------------------------------------------------------

Next Geometry in Ang
	Fragment 1 (Ang)

	    B  -0.0000000000   0.7730483514   0.0000000000
	    B   0.0000000000  -0.7730483514   0.0000000000

    Final optimized geometry and variables:
    Molecular point group: d2h
    Full point group: D_inf_h

    Geometry (in Angstrom), charge = 1, multiplicity = 4:

    B           -0.000000000000     0.773004438222     0.000000000000
    B            0.000000000000    -0.773004438222     0.000000000000

    Psi4 stopped on: Thursday, 17 July 2025 01:29PM
    Psi4 wall time for execution: 0:00:08.54

*** Psi4 exiting successfully. Buy a developer a beer!
