                               Psi4 1.9.1 release

  ==> Input File <==

--------------------------------------------------------------------------
molecule {
1 4
Na   0.00000        0.60000        0.00000
P   0.00000       -0.60000        0.00000
}

set {
basis              cc-pvdz
reference          uks
maxiter            500
geom_maxiter       500
DAMPING_PERCENTAGE 1
guess              SAP
}

optimize('b3lyp')
--------------------------------------------------------------------------

    Molecular point group: c2v
  Charge       = 1
  Multiplicity = 4
  Basis Set: CC-PVDZ
    Blend: CC-PVDZ
  Basis Set: (CC-PVDZ AUX)
    Blend: CC-PVDZ-JKFIT + DEF2-UNIVERSAL-JKFIT
  @DF-UKS Final Energy:  -502.40442854197505
    Total Energy =                       -502.4044285419750508
 Dipole X            :          0.0000000            0.0000000            0.0000000
 Dipole Y            :          0.0000000            0.0000000            0.0000000
 Dipole Z            :          1.2490383           -0.1737688            1.0752696
 Magnitude           :                                                    1.0752696
    Molecular point group: c2v
  Basis Set: CC-PVDZ
    Blend: CC-PVDZ
  Basis Set: (CC-PVDZ AUX)
    Blend: CC-PVDZ-JKFIT + DEF2-UNIVERSAL-JKFIT
  Basis Set: CC-PVDZ
    Blend: CC-PVDZ
  Basis Set: (CC-PVDZ AUX)
    Blend: CC-PVDZ-JKFIT + DEF2-UNIVERSAL-JKFIT
  @DF-UKS Final Energy:  -502.41554048665324
    Total Energy =                       -502.4155404866532422
  Basis Set: CC-PVDZ
    Blend: CC-PVDZ
  Basis Set: (CC-PVDZ AUX)
    Blend: CC-PVDZ-JKFIT + DEF2-UNIVERSAL-JKFIT
  Basis Set: CC-PVDZ
    Blend: CC-PVDZ
  @DF-UKS Final Energy:  -502.43703436157892
    Total Energy =                       -502.4370343615789238
  @DF-UKS Final Energy:  -502.51546517656197
    Total Energy =                       -502.5154651765619747
  @DF-UKS Final Energy:  -502.87721225885406
    Total Energy =                       -502.8772122588540583
  @DF-UKS Final Energy:  -503.09993407537462
    Total Energy =                       -503.0999340753746196
  @DF-UKS Final Energy:  -503.24408032224488
    Total Energy =                       -503.2440803222448835
  @DF-UKS Final Energy:  -503.31278276247122
    Total Energy =                       -503.3127827624712154
  @DF-UKS Final Energy:  -503.34665455130386
    Total Energy =                       -503.3466545513038568
  @DF-UKS Final Energy:  -503.36369469339542
    Total Energy =                       -503.3636946933954164
  @DF-UKS Final Energy:  -503.37251066629602
    Total Energy =                       -503.3725106662960229
  @DF-UKS Final Energy:  -503.37667082359235
    Total Energy =                       -503.3766708235923488
  @DF-UKS Final Energy:  -503.37829710592297
    Total Energy =                       -503.3782971059229681
  @DF-UKS Final Energy:  -503.37877993294757
    Total Energy =                       -503.3787799329475661
  @DF-UKS Final Energy:  -503.37885564786285
    Total Energy =                       -503.3788556478628493
  Basis Set: (CC-PVDZ AUX)
    Blend: CC-PVDZ-JKFIT + DEF2-UNIVERSAL-JKFIT
  Basis Set: CC-PVDZ
    Blend: CC-PVDZ
  Basis Set: (CC-PVDZ AUX)
    Blend: CC-PVDZ-JKFIT + DEF2-UNIVERSAL-JKFIT
  @DF-UKS Final Energy:  -503.37887052489668
    Total Energy =                       -503.3788705248966835
  Basis Set: CC-PVDZ
    Blend: CC-PVDZ
  Basis Set: (CC-PVDZ AUX)
    Blend: CC-PVDZ-JKFIT + DEF2-UNIVERSAL-JKFIT
  Charge       = 1
  Multiplicity = 4
  Basis Set: CC-PVDZ
    Blend: CC-PVDZ
  Basis Set: (CC-PVDZ AUX)
    Blend: CC-PVDZ-JKFIT + DEF2-UNIVERSAL-JKFIT

    Orbital Energies [Eh]
    ---------------------

    Alpha Occupied:

       1A1   -77.300665     2A1   -38.749602     3A1    -6.768111
       4A1    -4.931863     1B1    -4.931303     1B2    -4.931303
       5A1    -2.487896     2B1    -1.419089     2B2    -1.419089
       6A1    -1.419006     7A1    -0.775436     8A1    -0.446245
       3B2    -0.429967     3B1    -0.429967

    Alpha Virtual:

       9A1    -0.235482     4B1    -0.147581     4B2    -0.147581
      10A1    -0.130272    11A1    -0.073733     5B1    -0.049487
       5B2    -0.049487    12A1    -0.044932     6B2    -0.000728
       6B1    -0.000728    13A1     0.011582     1A2     0.011582
      14A1     0.042286     7B2     0.253525     7B1     0.253525
      15A1     0.258493    16A1     0.261842     2A2     0.261844
      17A1     0.269799     8B2     0.318952     8B1     0.318952
      18A1     0.521698

    Beta Occupied:

       1A1   -77.288409     2A1   -38.749375     3A1    -6.755092
       4A1    -4.913485     1B1    -4.911807     1B2    -4.911807
       5A1    -2.487484     2B1    -1.418880     2B2    -1.418880
       6A1    -1.418531     7A1    -0.660291

    Beta Virtual:

       8A1    -0.313635     3B2    -0.284228     3B1    -0.284228
       9A1    -0.226415     4B1    -0.142531     4B2    -0.142531
      10A1    -0.121838    11A1    -0.065292     5B1    -0.046738
       5B2    -0.046738    12A1    -0.038242     6B2     0.010181
       6B1     0.010181    13A1     0.010553     1A2     0.010553
      14A1     0.058295    15A1     0.308154     7B2     0.310583
       7B1     0.310583    16A1     0.334407    17A1     0.358683
       2A2     0.358694     8B1     0.394452     8B2     0.394452
      18A1     0.568055

    Final Occupation by Irrep:
             A1    A2    B1    B2
    DOCC [     7,    0,    2,    2 ]
    SOCC [     1,    0,    1,    1 ]
    NA   [     8,    0,    3,    3 ]
    NB   [     7,    0,    2,    2 ]

  @DF-UKS Final Energy:  -503.37887134426495

   => Energetics <=

    Nuclear Repulsion Energy =             27.8819626548187003
    One-Electron Energy =                -749.6244101495764198
    Two-Electron Energy =                 248.5537173664191641
    DFT Exchange-Correlation Energy =     -30.1901412159264240
    Empirical Dispersion Energy =           0.0000000000000000
    VV10 Nonlocal Energy =                  0.0000000000000000
    Total Energy =                       -503.3788713442649509

  UHF NO Occupations:
  HONO-2 :    8 A1 1.0000000
  HONO-1 :    3 B1 1.0000000
  HONO-0 :    3 B2 1.0000000
  LUNO+0 :    9 A1 0.0002092
  LUNO+1 :   10 A1 0.0000003
  LUNO+2 :    4 B1 0.0000001
  LUNO+3 :    4 B2 0.0000001

Computation Completed

Properties will be evaluated at   0.000000,   0.000000,   0.000000 [a0]

Properties computed using the SCF density matrix

 Multipole Moments:

 ------------------------------------------------------------------------------------
     Multipole            Electronic (a.u.)      Nuclear  (a.u.)        Total (a.u.)
 ------------------------------------------------------------------------------------

 L = 1.  Multiply by 2.5417464519 to convert [e a0] to [Debye]
 Dipole X            :          0.0000000            0.0000000            0.0000000
 Dipole Y            :          0.0000000            0.0000000            0.0000000
 Dipole Z            :          3.1328924           -0.4534739            2.6794186
 Magnitude           :                                                    2.6794186

 ------------------------------------------------------------------------------------

*** tstop() called on Joses-MacBook-Pro-2.local at Thu Jul 17 14:56:13 2025
Module time:
	user time   =       6.21 seconds =       0.10 minutes
	system time =       1.95 seconds =       0.03 minutes
	total time  =          1 seconds =       0.02 minutes
Total time:
	user time   =     230.91 seconds =       3.85 minutes
	system time =      60.54 seconds =       1.01 minutes
	total time  =         29 seconds =       0.48 minutes

*** tstart() called on Joses-MacBook-Pro-2.local
*** at Thu Jul 17 14:56:13 2025

         ------------------------------------------------------------
                                   SCF GRAD
                          Rob Parrish, Justin Turney,
                       Andy Simmonett, and Alex Sokolov
         ------------------------------------------------------------

  ==> Geometry <==

    Molecular point group: c2v
    Full point group: C_inf_v

    Geometry (in Angstrom), charge = 1, multiplicity = 4:

       Center              X                  Y                   Z               Mass
    ------------   -----------------  -----------------  -----------------  -----------------
         NA           0.000000000000     0.000000000000     1.797443845442    22.989769282000
         P            0.000000000000     0.000000000000    -1.334123355961    30.973761998420

  Nuclear repulsion =   27.881962654818700

  ==> Basis Set <==

  Basis Set: CC-PVDZ
    Blend: CC-PVDZ
    Number of shells: 16
    Number of basis functions: 36
    Number of Cartesian functions: 38
    Spherical Harmonics?: true
    Max angular momentum: 2

  ==> DFJKGrad: Density-Fitted SCF Gradients <==

    Gradient:                    1
    J tasked:                  Yes
    K tasked:                  Yes
    wK tasked:                  No
    OpenMP threads:              1
    Integrals threads:           1
    Memory [MiB]:              375
    Schwarz Cutoff:          1E-12
    Fitting Condition:       1E-10

   => Auxiliary Basis Set <=

  Basis Set: (CC-PVDZ AUX)
    Blend: CC-PVDZ-JKFIT + DEF2-UNIVERSAL-JKFIT
    Number of shells: 70
    Number of basis functions: 224
    Number of Cartesian functions: 267
    Spherical Harmonics?: true
    Max angular momentum: 4

  ==> DFT Potential <==

   => LibXC <=

    Version 6.2.2
    S. Lehtola, C. Steigemann, M. J.T. Oliveira, and M. A.L. Marques.,  SoftwareX 7, 1â€“5 (2018) (10.1016/j.softx.2017.11.002)

   => Composite Functional: B3LYP <=

    B3LYP Hyb-GGA Exchange-Correlation Functional

    P. J. Stephens, F. J. Devlin, C. F. Chabalowski, and M. J. Frisch.,  J. Phys. Chem. 98, 11623 (1994) (10.1021/j100096a001)

    Deriv               =              1
    GGA                 =           TRUE
    Meta                =          FALSE

    Exchange Hybrid     =           TRUE
    MP2 Hybrid          =          FALSE

   => Exchange Functionals <=

    0.0800   Slater exchange
    0.7200         Becke 88

   => Exact (HF) Exchange <=

    0.2000               HF

   => Correlation Functionals <=

    0.1900   Vosko, Wilk & Nusair (VWN5_RPA)
    0.8100   Lee, Yang & Parr

   => LibXC Density Thresholds  <==

    XC_HYB_GGA_XC_B3LYP:  1.00E-15

   => Molecular Quadrature <=

    Radial Scheme          =       TREUTLER
    Pruning Scheme         =           NONE
    Nuclear Scheme         =       TREUTLER

    Blocking Scheme        =         OCTREE
    BS radius alpha        =              1
    Pruning alpha          =              1
    Radial Points          =             75
    Spherical Points       =            302
    Total Points           =          43868
    Total Blocks           =            446
    Max Points             =            252
    Max Functions          =             36
    Weights Tolerance      =       1.00E-15

  -Total Gradient:
     Atom            X                  Y                   Z
    ------   -----------------  -----------------  -----------------
       1        0.000000000000     0.000000000000     0.000002726526
       2        0.000000000000    -0.000000000000     0.000079580460

*** tstop() called on Joses-MacBook-Pro-2.local at Thu Jul 17 14:56:13 2025
Module time:
	user time   =       3.46 seconds =       0.06 minutes
	system time =       1.14 seconds =       0.02 minutes
	total time  =          0 seconds =       0.00 minutes
Total time:
	user time   =     234.37 seconds =       3.91 minutes
	system time =      61.68 seconds =       1.03 minutes
	total time  =         29 seconds =       0.48 minutes

    			-----------------------------------------

    			 OPTKING 3.0: for geometry optimizations

    			     By R.A. King, Bethel University

    			        with contributions from

    			    A.V. Copan, J. Cayton, A. Heide

    			-----------------------------------------

	                            ===> Fragment 1 <==

	 Z (Atomic Numbers)          Masses                          Geom
	      11.000000            22.989769          0.00000000  0.00000000  3.39667659
	      15.000000            30.973762          0.00000000  0.00000000 -2.52112776

	 - Coordinate -           - BOHR/RAD -       - ANG/DEG -
	 R(1,2)           =         5.917804           3.131567

	        --- Internal Coordinate Step in ANG or DEG, aJ/ANG or AJ/DEG ---
	-------------------------------------------------------------------------------
	           Coordinate      Previous         Force          Change          New
	           ----------      --------        ------          ------        ------
	               R(1,2)       3.13157        0.00032        0.00200       3.13356
	-------------------------------------------------------------------------------

	                                 ==> Convergence Check <==

	Measures of convergence in internal coordinates in au.

	Criteria marked as inactive (o), active & met (*), and active & unmet ( ).

	----------------------------------------------------------------------------------------------
	   Step    Total Energy     Delta E     Max Force     RMS Force      Max Disp      RMS Disp
	----------------------------------------------------------------------------------------------
	  Convergence Criteria     1.00e-06 *    3.00e-04 *             o    1.20e-03 *             o
	----------------------------------------------------------------------------------------------
	    17    -503.37887134   -8.19e-07 *    3.84e-05 *    3.84e-05 o    3.77e-03      3.77e-03 o  ~
	----------------------------------------------------------------------------------------------

Next Geometry in Ang
	Fragment 1 (Ang)

	   Na   0.0000000000   0.0000000000   1.7984414152
	    P   0.0000000000   0.0000000000  -1.3351209257

    Final optimized geometry and variables:
    Molecular point group: c2v
    Full point group: C_inf_v

    Geometry (in Angstrom), charge = 1, multiplicity = 4:

    NA           0.000000000000     0.000000000000     1.797443845442
    P            0.000000000000     0.000000000000    -1.334123355961

    Psi4 stopped on: Thursday, 17 July 2025 02:56PM
    Psi4 wall time for execution: 0:00:30.09

*** Psi4 exiting successfully. Buy a developer a beer!
