                               Psi4 1.9.1 release

  ==> Input File <==

--------------------------------------------------------------------------
molecule {
1 4
O   0.00000        0.60000        0.00000
S   0.00000       -0.60000        0.00000
}

set {
basis              cc-pvdz
reference          uks
maxiter            500
geom_maxiter       500
DAMPING_PERCENTAGE 1
guess              SAP
}

optimize('b3lyp')
--------------------------------------------------------------------------

    Molecular point group: c2v
  Charge       = 1
  Multiplicity = 4
  Basis Set: CC-PVDZ
    Blend: CC-PVDZ
  Basis Set: (CC-PVDZ AUX)
    Blend: CC-PVDZ-JKFIT
  @DF-UKS Final Energy:  -472.61904977300162
    Total Energy =                       -472.6190497730016773
 Dipole X            :          0.0000000            0.0000000            0.0000000
 Dipole Y            :          0.0000000            0.0000000            0.0000000
 Dipole Z            :         -0.4364119           -0.0067162           -0.4431281
 Magnitude           :                                                    0.4431281
    Molecular point group: c2v
  Basis Set: CC-PVDZ
    Blend: CC-PVDZ
  Basis Set: (CC-PVDZ AUX)
    Blend: CC-PVDZ-JKFIT
  Basis Set: CC-PVDZ
    Blend: CC-PVDZ
  Basis Set: (CC-PVDZ AUX)
    Blend: CC-PVDZ-JKFIT
  @DF-UKS Final Energy:  -472.75208413026002
    Total Energy =                       -472.7520841302600729
  Basis Set: CC-PVDZ
    Blend: CC-PVDZ
  Basis Set: (CC-PVDZ AUX)
    Blend: CC-PVDZ-JKFIT
  Basis Set: CC-PVDZ
    Blend: CC-PVDZ
  @DF-UKS Final Energy:  -472.81016858187064
    Total Energy =                       -472.8101685818706414
  @DF-UKS Final Energy:  -472.82646629725343
    Total Energy =                       -472.8264662972534325
  @DF-UKS Final Energy:  -472.83375059597319
    Total Energy =                       -472.8337505959731857
  @DF-UKS Final Energy:  -472.83560472088220
    Total Energy =                       -472.8356047208822019
  @DF-UKS Final Energy:  -472.83614631571618
    Total Energy =                       -472.8361463157161779
  @DF-UKS Final Energy:  -472.83635783212878
    Total Energy =                       -472.8363578321287832
  Basis Set: (CC-PVDZ AUX)
    Blend: CC-PVDZ-JKFIT
  Basis Set: CC-PVDZ
    Blend: CC-PVDZ
  Basis Set: (CC-PVDZ AUX)
    Blend: CC-PVDZ-JKFIT
  @DF-UKS Final Energy:  -472.83639689773895
    Total Energy =                       -472.8363968977389504
  Basis Set: CC-PVDZ
    Blend: CC-PVDZ
  Basis Set: (CC-PVDZ AUX)
    Blend: CC-PVDZ-JKFIT
  Charge       = 1
  Multiplicity = 4
  Basis Set: CC-PVDZ
    Blend: CC-PVDZ
  Basis Set: (CC-PVDZ AUX)
    Blend: CC-PVDZ-JKFIT

    Orbital Energies [Eh]
    ---------------------

    Alpha Occupied:

       1A1   -89.378477     2A1   -19.630924     3A1    -8.428056
       4A1    -6.398093     1B1    -6.388046     1B2    -6.388046
       5A1    -1.446161     6A1    -1.080349     7A1    -0.858651
       2B1    -0.796130     2B2    -0.796130     3B1    -0.625091
       3B2    -0.625091

    Alpha Virtual:

       8A1    -0.354181     9A1     0.118301    10A1     0.140341
       4B2     0.145191     4B1     0.145191    11A1     0.176289
       1A2     0.176289     5B2     0.204461     5B1     0.204461
      12A1     0.421363     6B2     0.638668     6B1     0.638668
      13A1     0.666711    14A1     1.279704    15A1     2.163176
       2A2     2.163193     7B2     2.234384     7B1     2.234384
      16A1     2.653655

    Beta Occupied:

       1A1   -89.366597     2A1   -19.593577     3A1    -8.415982
       4A1    -6.384494     1B1    -6.368241     1B2    -6.368241
       5A1    -1.364486     6A1    -0.955018     2B1    -0.711583
       2B2    -0.711583

    Beta Virtual:

       7A1    -0.660098     3B1    -0.467138     3B2    -0.467138
       8A1    -0.282098     9A1     0.150684    10A1     0.177944
       4B2     0.178539     4B1     0.178539    11A1     0.259553
       1A2     0.259553     5B2     0.276953     5B1     0.276953
      12A1     0.479737     6B2     0.682778     6B1     0.682778
      13A1     0.740222    14A1     1.327964    15A1     2.229548
       2A2     2.229567     7B2     2.322672     7B1     2.322672
      16A1     2.745127

    Final Occupation by Irrep:
             A1    A2    B1    B2
    DOCC [     6,    0,    2,    2 ]
    SOCC [     1,    0,    1,    1 ]
    NA   [     7,    0,    3,    3 ]
    NB   [     6,    0,    2,    2 ]

  @DF-UKS Final Energy:  -472.83640054536363

   => Energetics <=

    Nuclear Repulsion Energy =             42.9441522679976799
    One-Electron Energy =                -729.0318420784720956
    Two-Electron Energy =                 240.5302694631384668
    DFT Exchange-Correlation Energy =     -27.2789801980276287
    Empirical Dispersion Energy =           0.0000000000000000
    VV10 Nonlocal Energy =                  0.0000000000000000
    Total Energy =                       -472.8364005453636310

  UHF NO Occupations:
  HONO-2 :    3 B1 1.0000000
  HONO-1 :    3 B2 1.0000000
  HONO-0 :    7 A1 1.0000000
  LUNO+0 :    4 B1 0.0014969
  LUNO+1 :    4 B2 0.0014969
  LUNO+2 :    8 A1 0.0014271
  LUNO+3 :    9 A1 0.0002050

Computation Completed

Properties will be evaluated at   0.000000,   0.000000,   0.000000 [a0]

Properties computed using the SCF density matrix

 Multipole Moments:

 ------------------------------------------------------------------------------------
     Multipole            Electronic (a.u.)      Nuclear  (a.u.)        Total (a.u.)
 ------------------------------------------------------------------------------------

 L = 1.  Multiply by 2.5417464519 to convert [e a0] to [Debye]
 Dipole X            :          0.0000000            0.0000000            0.0000000
 Dipole Y            :          0.0000000            0.0000000            0.0000000
 Dipole Z            :         -0.7013123           -0.0088277           -0.7101400
 Magnitude           :                                                    0.7101400

 ------------------------------------------------------------------------------------

*** tstop() called on Joses-MacBook-Pro-2.local at Thu Jul 17 14:10:58 2025
Module time:
	user time   =       2.78 seconds =       0.05 minutes
	system time =       4.88 seconds =       0.08 minutes
	total time  =          1 seconds =       0.02 minutes
Total time:
	user time   =      37.74 seconds =       0.63 minutes
	system time =      80.07 seconds =       1.33 minutes
	total time  =         12 seconds =       0.20 minutes

*** tstart() called on Joses-MacBook-Pro-2.local
*** at Thu Jul 17 14:10:58 2025

         ------------------------------------------------------------
                                   SCF GRAD
                          Rob Parrish, Justin Turney,
                       Andy Simmonett, and Alex Sokolov
         ------------------------------------------------------------

  ==> Geometry <==

    Molecular point group: c2v
    Full point group: C_inf_v

    Geometry (in Angstrom), charge = 1, multiplicity = 4:

       Center              X                  Y                   Z               Mass
    ------------   -----------------  -----------------  -----------------  -----------------
         O            0.000000000000     0.000000000000     1.051321172804    15.994914619570
         S            0.000000000000     0.000000000000    -0.525952551057    31.972071174400

  Nuclear repulsion =   42.944152267997680

  ==> Basis Set <==

  Basis Set: CC-PVDZ
    Blend: CC-PVDZ
    Number of shells: 14
    Number of basis functions: 32
    Number of Cartesian functions: 34
    Spherical Harmonics?: true
    Max angular momentum: 2

  ==> DFJKGrad: Density-Fitted SCF Gradients <==

    Gradient:                    1
    J tasked:                  Yes
    K tasked:                  Yes
    wK tasked:                  No
    OpenMP threads:              1
    Integrals threads:           1
    Memory [MiB]:              375
    Schwarz Cutoff:          1E-12
    Fitting Condition:       1E-10

   => Auxiliary Basis Set <=

  Basis Set: (CC-PVDZ AUX)
    Blend: CC-PVDZ-JKFIT
    Number of shells: 60
    Number of basis functions: 182
    Number of Cartesian functions: 211
    Spherical Harmonics?: true
    Max angular momentum: 3

  ==> DFT Potential <==

   => LibXC <=

    Version 6.2.2
    S. Lehtola, C. Steigemann, M. J.T. Oliveira, and M. A.L. Marques.,  SoftwareX 7, 1â€“5 (2018) (10.1016/j.softx.2017.11.002)

   => Composite Functional: B3LYP <=

    B3LYP Hyb-GGA Exchange-Correlation Functional

    P. J. Stephens, F. J. Devlin, C. F. Chabalowski, and M. J. Frisch.,  J. Phys. Chem. 98, 11623 (1994) (10.1021/j100096a001)

    Deriv               =              1
    GGA                 =           TRUE
    Meta                =          FALSE

    Exchange Hybrid     =           TRUE
    MP2 Hybrid          =          FALSE

   => Exchange Functionals <=

    0.0800   Slater exchange
    0.7200         Becke 88

   => Exact (HF) Exchange <=

    0.2000               HF

   => Correlation Functionals <=

    0.1900   Vosko, Wilk & Nusair (VWN5_RPA)
    0.8100   Lee, Yang & Parr

   => LibXC Density Thresholds  <==

    XC_HYB_GGA_XC_B3LYP:  1.00E-15

   => Molecular Quadrature <=

    Radial Scheme          =       TREUTLER
    Pruning Scheme         =           NONE
    Nuclear Scheme         =       TREUTLER

    Blocking Scheme        =         OCTREE
    BS radius alpha        =              1
    Pruning alpha          =              1
    Radial Points          =             75
    Spherical Points       =            302
    Total Points           =          41841
    Total Blocks           =            376
    Max Points             =            256
    Max Functions          =             32
    Weights Tolerance      =       1.00E-15

  -Total Gradient:
     Atom            X                  Y                   Z
    ------   -----------------  -----------------  -----------------
       1        0.000000000000     0.000000000000    -0.000303799037
       2        0.000000000000     0.000000000000     0.000276101192

*** tstop() called on Joses-MacBook-Pro-2.local at Thu Jul 17 14:10:58 2025
Module time:
	user time   =       0.81 seconds =       0.01 minutes
	system time =       2.21 seconds =       0.04 minutes
	total time  =          0 seconds =       0.00 minutes
Total time:
	user time   =      38.55 seconds =       0.64 minutes
	system time =      82.29 seconds =       1.37 minutes
	total time  =         12 seconds =       0.20 minutes

    			-----------------------------------------

    			 OPTKING 3.0: for geometry optimizations

    			     By R.A. King, Bethel University

    			        with contributions from

    			    A.V. Copan, J. Cayton, A. Heide

    			-----------------------------------------

	                            ===> Fragment 1 <==

	 Z (Atomic Numbers)          Masses                          Geom
	       8.000000            15.994915          0.00000000  0.00000000  1.98670909
	      16.000000            31.972071          0.00000000  0.00000000 -0.99390628

	 - Coordinate -           - BOHR/RAD -       - ANG/DEG -
	 R(1,2)           =         2.980615           1.577274

	        --- Internal Coordinate Step in ANG or DEG, aJ/ANG or AJ/DEG ---
	-------------------------------------------------------------------------------
	           Coordinate      Previous         Force          Change          New
	           ----------      --------        ------          ------        ------
	               R(1,2)       1.57727        0.00239        0.00039       1.57766
	-------------------------------------------------------------------------------

	                                 ==> Convergence Check <==

	Measures of convergence in internal coordinates in au.

	Criteria marked as inactive (o), active & met (*), and active & unmet ( ).

	----------------------------------------------------------------------------------------------
	   Step    Total Energy     Delta E     Max Force     RMS Force      Max Disp      RMS Disp
	----------------------------------------------------------------------------------------------
	  Convergence Criteria     1.00e-06 *    3.00e-04 *             o    1.20e-03 *             o
	----------------------------------------------------------------------------------------------
	    10    -472.83640055   -3.65e-06      2.90e-04 *    2.90e-04 o    7.30e-04 *    7.30e-04 o  ~
	----------------------------------------------------------------------------------------------

Next Geometry in Ang
	Fragment 1 (Ang)

	    O   0.0000000000   0.0000000000   1.0515142812
	    S   0.0000000000   0.0000000000  -0.5261456595

    Final optimized geometry and variables:
    Molecular point group: c2v
    Full point group: C_inf_v

    Geometry (in Angstrom), charge = 1, multiplicity = 4:

    O            0.000000000000     0.000000000000     1.051321172804
    S            0.000000000000     0.000000000000    -0.525952551057

    Psi4 stopped on: Thursday, 17 July 2025 02:10PM
    Psi4 wall time for execution: 0:00:13.25

*** Psi4 exiting successfully. Buy a developer a beer!
