                               Psi4 1.9.1 release

  ==> Input File <==

--------------------------------------------------------------------------
molecule {
1 4
H   0.00000        0.60000        0.00000
Al   0.00000       -0.60000        0.00000
}

set {
basis              cc-pvdz
reference          uks
maxiter            500
geom_maxiter       500
DAMPING_PERCENTAGE 1
guess              SAP
}

optimize('b3lyp')
--------------------------------------------------------------------------

    Molecular point group: c2v
  Charge       = 1
  Multiplicity = 4
  Basis Set: CC-PVDZ
    Blend: CC-PVDZ
  Basis Set: (CC-PVDZ AUX)
    Blend: CC-PVDZ-JKFIT
  @DF-UKS Final Energy:  -242.33488969099452
    Total Energy =                       -242.3348896909945154
 Dipole X            :          0.0000000            0.0000000            0.0000000
 Dipole Y            :          0.0000000            0.0000000            0.0000000
 Dipole Z            :         -0.4055712            1.1245291            0.7189579
 Magnitude           :                                                    0.7189579
    Molecular point group: c2v
  Basis Set: CC-PVDZ
    Blend: CC-PVDZ
  Basis Set: (CC-PVDZ AUX)
    Blend: CC-PVDZ-JKFIT
  Basis Set: CC-PVDZ
    Blend: CC-PVDZ
  Basis Set: (CC-PVDZ AUX)
    Blend: CC-PVDZ-JKFIT
  @DF-UKS Final Energy:  -242.43123542097743
    Total Energy =                       -242.4312354209774298
  Basis Set: CC-PVDZ
    Blend: CC-PVDZ
  Basis Set: (CC-PVDZ AUX)
    Blend: CC-PVDZ-JKFIT
  Basis Set: CC-PVDZ
    Blend: CC-PVDZ
  @DF-UKS Final Energy:  -242.46039617278453
    Total Energy =                       -242.4603961727845558
  @DF-UKS Final Energy:  -242.47932237226709
    Total Energy =                       -242.4793223722670916
  @DF-UKS Final Energy:  -242.48824769722498
    Total Energy =                       -242.4882476972249776
  @DF-UKS Final Energy:  -242.49245523485430
    Total Energy =                       -242.4924552348542761
  @DF-UKS Final Energy:  -242.49419248229461
    Total Energy =                       -242.4941924822946078
  @DF-UKS Final Energy:  -242.49477807366330
    Total Energy =                       -242.4947780736632978
  @DF-UKS Final Energy:  -242.49489568918690
    Total Energy =                       -242.4948956891869045
  @DF-UKS Final Energy:  -242.49492765243178
    Total Energy =                       -242.4949276524317838
  Basis Set: (CC-PVDZ AUX)
    Blend: CC-PVDZ-JKFIT
  Basis Set: CC-PVDZ
    Blend: CC-PVDZ
  Basis Set: (CC-PVDZ AUX)
    Blend: CC-PVDZ-JKFIT
  @DF-UKS Final Energy:  -242.49493147304531
    Total Energy =                       -242.4949314730452841
  Basis Set: CC-PVDZ
    Blend: CC-PVDZ
  Basis Set: (CC-PVDZ AUX)
    Blend: CC-PVDZ-JKFIT
  Charge       = 1
  Multiplicity = 4
  Basis Set: CC-PVDZ
    Blend: CC-PVDZ
  Basis Set: (CC-PVDZ AUX)
    Blend: CC-PVDZ-JKFIT

    Orbital Energies [Eh]
    ---------------------

    Alpha Occupied:

       1A1   -56.432907     2A1    -4.504964     1B2    -3.059101
       3A1    -3.058885     1B1    -3.054505     4A1    -0.640556
       5A1    -0.548654     2B1    -0.402232

    Alpha Virtual:

       2B2    -0.335992     6A1    -0.310168     7A1    -0.050492
       8A1    -0.022245     3B1    -0.019808     4B1    -0.012618
       1A2    -0.012360     3B2    -0.008472     9A1    -0.004091
       4B2    -0.002069    10A1     0.062002    11A1     0.272964
       5B2     0.984614     5B1     0.985521    12A1     1.109324

    Beta Occupied:

       1A1   -56.424591     2A1    -4.492395     1B2    -3.051458
       3A1    -3.050452     1B1    -3.037303

    Beta Virtual:

       4A1    -0.481722     5A1    -0.316138     2B2    -0.277236
       2B1    -0.244410     6A1    -0.187144     7A1    -0.007590
       8A1     0.015443     3B2     0.019443     3B1     0.038710
       4B2     0.046487     4B1     0.073453     9A1     0.076121
       1A2     0.078591    10A1     0.132592    11A1     0.471689
       5B2     1.220336     5B1     1.221496    12A1     1.322715

    Final Occupation by Irrep:
             A1    A2    B1    B2
    DOCC [     3,    0,    1,    1 ]
    SOCC [     2,    0,    1,    0 ]
    NA   [     5,    0,    2,    1 ]
    NB   [     3,    0,    1,    1 ]

  @DF-UKS Final Energy:  -242.49493196453091

   => Energetics <=

    Nuclear Repulsion Energy =              2.6939004931997799
    One-Electron Energy =                -337.8849068399546240
    Two-Electron Energy =                 107.7423562198738409
    DFT Exchange-Correlation Energy =     -15.0462818376499250
    Empirical Dispersion Energy =           0.0000000000000000
    VV10 Nonlocal Energy =                  0.0000000000000000
    Total Energy =                       -242.4949319645309060

  UHF NO Occupations:
  HONO-2 :    2 B1 1.0000000
  HONO-1 :    4 A1 1.0000000
  HONO-0 :    5 A1 1.0000000
  LUNO+0 :    2 B2 0.0000011
  LUNO+1 :    6 A1 0.0000009
  LUNO+2 :    3 B1 0.0000002
  LUNO+3 :    7 A1 0.0000001

Computation Completed

Properties will be evaluated at   0.000000,   0.000000,   0.000000 [a0]

Properties computed using the SCF density matrix

 Multipole Moments:

 ------------------------------------------------------------------------------------
     Multipole            Electronic (a.u.)      Nuclear  (a.u.)        Total (a.u.)
 ------------------------------------------------------------------------------------

 L = 1.  Multiply by 2.5417464519 to convert [e a0] to [Debye]
 Dipole X            :          0.0000000            0.0000000            0.0000000
 Dipole Y            :          0.0000000            0.0000000            0.0000000
 Dipole Z            :         -2.0195124            2.3930534            0.3735410
 Magnitude           :                                                    0.3735410

 ------------------------------------------------------------------------------------

*** tstop() called on Joses-MacBook-Pro-2.local at Thu Jul 17 12:22:21 2025
Module time:
	user time   =       1.60 seconds =       0.03 minutes
	system time =       3.48 seconds =       0.06 minutes
	total time  =          1 seconds =       0.02 minutes
Total time:
	user time   =      38.45 seconds =       0.64 minutes
	system time =      51.26 seconds =       0.85 minutes
	total time  =          9 seconds =       0.15 minutes

*** tstart() called on Joses-MacBook-Pro-2.local
*** at Thu Jul 17 12:22:21 2025

         ------------------------------------------------------------
                                   SCF GRAD
                          Rob Parrish, Justin Turney,
                       Andy Simmonett, and Alex Sokolov
         ------------------------------------------------------------

  ==> Geometry <==

    Molecular point group: c2v
    Full point group: C_inf_v

    Geometry (in Angstrom), charge = 1, multiplicity = 4:

       Center              X                  Y                   Z               Mass
    ------------   -----------------  -----------------  -----------------  -----------------
         H            0.000000000000     0.000000000000     2.461708482479     1.007825032230
         AL           0.000000000000     0.000000000000    -0.091950702809    26.981538530000

  Nuclear repulsion =    2.693900493199780

  ==> Basis Set <==

  Basis Set: CC-PVDZ
    Blend: CC-PVDZ
    Number of shells: 11
    Number of basis functions: 23
    Number of Cartesian functions: 24
    Spherical Harmonics?: true
    Max angular momentum: 2

  ==> DFJKGrad: Density-Fitted SCF Gradients <==

    Gradient:                    1
    J tasked:                  Yes
    K tasked:                  Yes
    wK tasked:                  No
    OpenMP threads:              1
    Integrals threads:           1
    Memory [MiB]:              375
    Schwarz Cutoff:          1E-12
    Fitting Condition:       1E-10

   => Auxiliary Basis Set <=

  Basis Set: (CC-PVDZ AUX)
    Blend: CC-PVDZ-JKFIT
    Number of shells: 45
    Number of basis functions: 135
    Number of Cartesian functions: 155
    Spherical Harmonics?: true
    Max angular momentum: 3

  ==> DFT Potential <==

   => LibXC <=

    Version 6.2.2
    S. Lehtola, C. Steigemann, M. J.T. Oliveira, and M. A.L. Marques.,  SoftwareX 7, 1â€“5 (2018) (10.1016/j.softx.2017.11.002)

   => Composite Functional: B3LYP <=

    B3LYP Hyb-GGA Exchange-Correlation Functional

    P. J. Stephens, F. J. Devlin, C. F. Chabalowski, and M. J. Frisch.,  J. Phys. Chem. 98, 11623 (1994) (10.1021/j100096a001)

    Deriv               =              1
    GGA                 =           TRUE
    Meta                =          FALSE

    Exchange Hybrid     =           TRUE
    MP2 Hybrid          =          FALSE

   => Exchange Functionals <=

    0.0800   Slater exchange
    0.7200         Becke 88

   => Exact (HF) Exchange <=

    0.2000               HF

   => Correlation Functionals <=

    0.1900   Vosko, Wilk & Nusair (VWN5_RPA)
    0.8100   Lee, Yang & Parr

   => LibXC Density Thresholds  <==

    XC_HYB_GGA_XC_B3LYP:  1.00E-15

   => Molecular Quadrature <=

    Radial Scheme          =       TREUTLER
    Pruning Scheme         =           NONE
    Nuclear Scheme         =       TREUTLER

    Blocking Scheme        =         OCTREE
    BS radius alpha        =              1
    Pruning alpha          =              1
    Radial Points          =             75
    Spherical Points       =            302
    Total Points           =          43502
    Total Blocks           =            398
    Max Points             =            255
    Max Functions          =             23
    Weights Tolerance      =       1.00E-15

  -Total Gradient:
     Atom            X                  Y                   Z
    ------   -----------------  -----------------  -----------------
       1        0.000000000000     0.000000000000    -0.000030345921
       2        0.000000000000    -0.000000000000     0.000029341297

*** tstop() called on Joses-MacBook-Pro-2.local at Thu Jul 17 12:22:21 2025
Module time:
	user time   =       0.57 seconds =       0.01 minutes
	system time =       1.23 seconds =       0.02 minutes
	total time  =          0 seconds =       0.00 minutes
Total time:
	user time   =      39.02 seconds =       0.65 minutes
	system time =      52.49 seconds =       0.87 minutes
	total time  =          9 seconds =       0.15 minutes

    			-----------------------------------------

    			 OPTKING 3.0: for geometry optimizations

    			     By R.A. King, Bethel University

    			        with contributions from

    			    A.V. Copan, J. Cayton, A. Heide

    			-----------------------------------------

	                            ===> Fragment 1 <==

	 Z (Atomic Numbers)          Masses                          Geom
	       1.000000             1.007825          0.00000000  0.00000000  4.65195483
	      13.000000            26.981539          0.00000000  0.00000000 -0.17376165

	 - Coordinate -           - BOHR/RAD -       - ANG/DEG -
	 R(1,2)           =         4.825716           2.553659

	        --- Internal Coordinate Step in ANG or DEG, aJ/ANG or AJ/DEG ---
	-------------------------------------------------------------------------------
	           Coordinate      Previous         Force          Change          New
	           ----------      --------        ------          ------        ------
	               R(1,2)       2.55366        0.00025        0.00215       2.55581
	-------------------------------------------------------------------------------

	                                 ==> Convergence Check <==

	Measures of convergence in internal coordinates in au.

	Criteria marked as inactive (o), active & met (*), and active & unmet ( ).

	----------------------------------------------------------------------------------------------
	   Step    Total Energy     Delta E     Max Force     RMS Force      Max Disp      RMS Disp
	----------------------------------------------------------------------------------------------
	  Convergence Criteria     1.00e-06 *    3.00e-04 *             o    1.20e-03 *             o
	----------------------------------------------------------------------------------------------
	    12    -242.49493196   -4.91e-07 *    2.98e-05 *    2.98e-05 o    4.07e-03      4.07e-03 o  ~
	----------------------------------------------------------------------------------------------

Next Geometry in Ang
	Fragment 1 (Ang)

	    H   0.0000000000   0.0000000000   2.4627843375
	   Al   0.0000000000   0.0000000000  -0.0930265578

    Final optimized geometry and variables:
    Molecular point group: c2v
    Full point group: C_inf_v

    Geometry (in Angstrom), charge = 1, multiplicity = 4:

    H            0.000000000000     0.000000000000     2.461708482479
    AL           0.000000000000     0.000000000000    -0.091950702809

    Psi4 stopped on: Thursday, 17 July 2025 12:22PM
    Psi4 wall time for execution: 0:00:09.36

*** Psi4 exiting successfully. Buy a developer a beer!
