                               Psi4 1.9.1 release

  ==> Input File <==

--------------------------------------------------------------------------
molecule {
1 4
S   0.00000        0.60000        0.00000
Ar   0.00000       -0.60000        0.00000
}

set {
basis              cc-pvdz
reference          uks
maxiter            500
geom_maxiter       500
DAMPING_PERCENTAGE 1
guess              SAP
}

optimize('b3lyp')
--------------------------------------------------------------------------

    Molecular point group: c2v
  Charge       = 1
  Multiplicity = 4
  Basis Set: CC-PVDZ
    Blend: CC-PVDZ
  Basis Set: (CC-PVDZ AUX)
    Blend: CC-PVDZ-JKFIT
  @DF-UKS Final Energy:  -923.71437094278042
    Total Energy =                       -923.7143709427803060
 Dipole X            :          0.0000000            0.0000000            0.0000000
 Dipole Y            :          0.0000000            0.0000000            0.0000000
 Dipole Z            :         -3.3088647            2.0144189           -1.2944458
 Magnitude           :                                                    1.2944458
    Molecular point group: c2v
  Basis Set: CC-PVDZ
    Blend: CC-PVDZ
  Basis Set: (CC-PVDZ AUX)
    Blend: CC-PVDZ-JKFIT
  Basis Set: CC-PVDZ
    Blend: CC-PVDZ
  Basis Set: (CC-PVDZ AUX)
    Blend: CC-PVDZ-JKFIT
  @DF-UKS Final Energy:  -923.75848331434406
    Total Energy =                       -923.7584833143439482
  Basis Set: CC-PVDZ
    Blend: CC-PVDZ
  Basis Set: (CC-PVDZ AUX)
    Blend: CC-PVDZ-JKFIT
  Basis Set: CC-PVDZ
    Blend: CC-PVDZ
  @DF-UKS Final Energy:  -923.83948308485526
    Total Energy =                       -923.8394830848552601
  @DF-UKS Final Energy:  -924.09785220847778
    Total Energy =                       -924.0978522084777751
  @DF-UKS Final Energy:  -924.63245740114814
    Total Energy =                       -924.6324574011481445
  @DF-UKS Final Energy:  -924.88770327787142
    Total Energy =                       -924.8877032778715375
  @DF-UKS Final Energy:  -925.06734834689291
    Total Energy =                       -925.0673483468929135
  @DF-UKS Final Energy:  -925.17920831000231
    Total Energy =                       -925.1792083100023092
  @DF-UKS Final Energy:  -925.23967132240170
    Total Energy =                       -925.2396713224017049
  @DF-UKS Final Energy:  -925.26906277586306
    Total Energy =                       -925.2690627758630626
  @DF-UKS Final Energy:  -925.28276930123855
    Total Energy =                       -925.2827693012385453
  @DF-UKS Final Energy:  -925.28866664871066
    Total Energy =                       -925.2886666487106595
  @DF-UKS Final Energy:  -925.29084836632694
    Total Energy =                       -925.2908483663268271
  @DF-UKS Final Energy:  -925.29146424347709
    Total Energy =                       -925.2914642434770940
  @DF-UKS Final Energy:  -925.29155835263578
    Total Energy =                       -925.2915583526357750
  @DF-UKS Final Energy:  -925.29157468802873
    Total Energy =                       -925.2915746880288452
  Basis Set: (CC-PVDZ AUX)
    Blend: CC-PVDZ-JKFIT
  Basis Set: CC-PVDZ
    Blend: CC-PVDZ
  Basis Set: (CC-PVDZ AUX)
    Blend: CC-PVDZ-JKFIT
  @DF-UKS Final Energy:  -925.29157768377797
    Total Energy =                       -925.2915776837779731
  Basis Set: CC-PVDZ
    Blend: CC-PVDZ
  Basis Set: (CC-PVDZ AUX)
    Blend: CC-PVDZ-JKFIT
  Charge       = 1
  Multiplicity = 4
  Basis Set: CC-PVDZ
    Blend: CC-PVDZ
  Basis Set: (CC-PVDZ AUX)
    Blend: CC-PVDZ-JKFIT

    Orbital Energies [Eh]
    ---------------------

    Alpha Occupied:

       1A1  -115.322196     2A1   -89.333909     3A1   -11.357624
       4A1    -8.910704     1B1    -8.906404     1B2    -8.906404
       5A1    -8.386470     2B1    -6.351683     2B2    -6.351683
       6A1    -6.349847     7A1    -1.185072     8A1    -1.094477
       9A1    -0.691788     3B2    -0.671166     3B1    -0.671166
       4B1    -0.630815     4B2    -0.630815    10A1    -0.617831

    Alpha Virtual:

      11A1     0.127196     5B1     0.158816     5B2     0.158816
      12A1     0.163296     6B2     0.179739     6B1     0.179739
       1A2     0.181341    13A1     0.181342    14A1     0.182172
       7B2     0.406679     7B1     0.406679    15A1     0.457935
      16A1     0.581947     8B1     0.617848     8B2     0.617848
       2A2     0.624984    17A1     0.624993    18A1     0.754513

    Beta Occupied:

       1A1  -115.320677     2A1   -89.315926     3A1   -11.356187
       4A1    -8.906492     1B1    -8.905307     1B2    -8.905307
       5A1    -8.368321     2B1    -6.324211     2B2    -6.324211
       6A1    -6.323526     7A1    -1.175901     8A1    -0.954832
       9A1    -0.641489     3B1    -0.628996     3B2    -0.628996

    Beta Virtual:

       4B1    -0.488378     4B2    -0.488378    10A1    -0.479220
      11A1     0.173299     5B1     0.207446     5B2     0.207446
      12A1     0.224225    13A1     0.259476     6B2     0.286110
       6B1     0.286110    14A1     0.298643     1A2     0.298644
       7B2     0.415021     7B1     0.415021    15A1     0.467964
      16A1     0.592988     8B1     0.627324     8B2     0.627324
       2A2     0.627608    17A1     0.627617    18A1     0.773736

    Final Occupation by Irrep:
             A1    A2    B1    B2
    DOCC [     9,    0,    3,    3 ]
    SOCC [     1,    0,    1,    1 ]
    NA   [    10,    0,    4,    4 ]
    NB   [     9,    0,    3,    3 ]

  @DF-UKS Final Energy:  -925.29157828087114

   => Energetics <=

    Nuclear Repulsion Energy =             52.2869867374082133
    One-Electron Energy =               -1372.5312681617297130
    Two-Electron Energy =                 440.2359595513238446
    DFT Exchange-Correlation Energy =     -45.2832564078734237
    Empirical Dispersion Energy =           0.0000000000000000
    VV10 Nonlocal Energy =                  0.0000000000000000
    Total Energy =                       -925.2915782808711356

  UHF NO Occupations:
  HONO-2 :    4 B2 1.0000000
  HONO-1 :    4 B1 1.0000000
  HONO-0 :   10 A1 1.0000000
  LUNO+0 :   11 A1 0.0002881
  LUNO+1 :   12 A1 0.0001743
  LUNO+2 :    5 B1 0.0000128
  LUNO+3 :    5 B2 0.0000128

Computation Completed

Properties will be evaluated at   0.000000,   0.000000,   0.000000 [a0]

Properties computed using the SCF density matrix

 Multipole Moments:

 ------------------------------------------------------------------------------------
     Multipole            Electronic (a.u.)      Nuclear  (a.u.)        Total (a.u.)
 ------------------------------------------------------------------------------------

 L = 1.  Multiply by 2.5417464519 to convert [e a0] to [Debye]
 Dipole X            :          0.0000000            0.0000000            0.0000000
 Dipole Y            :          0.0000000            0.0000000            0.0000000
 Dipole Z            :         -2.6875550            4.8929249            2.2053699
 Magnitude           :                                                    2.2053699

 ------------------------------------------------------------------------------------

*** tstop() called on Joses-MacBook-Pro-2.local at Thu Jul 17 15:59:11 2025
Module time:
	user time   =       7.33 seconds =       0.12 minutes
	system time =       1.95 seconds =       0.03 minutes
	total time  =          1 seconds =       0.02 minutes
Total time:
	user time   =     207.07 seconds =       3.45 minutes
	system time =      58.15 seconds =       0.97 minutes
	total time  =         25 seconds =       0.42 minutes

*** tstart() called on Joses-MacBook-Pro-2.local
*** at Thu Jul 17 15:59:11 2025

         ------------------------------------------------------------
                                   SCF GRAD
                          Rob Parrish, Justin Turney,
                       Andy Simmonett, and Alex Sokolov
         ------------------------------------------------------------

  ==> Geometry <==

    Molecular point group: c2v
    Full point group: C_inf_v

    Geometry (in Angstrom), charge = 1, multiplicity = 4:

       Center              X                  Y                   Z               Mass
    ------------   -----------------  -----------------  -----------------  -----------------
         S            0.000000000000     0.000000000000     1.619251961568    31.972071174400
         AR           0.000000000000     0.000000000000    -1.295489280614    39.962383123700

  Nuclear repulsion =   52.286986737408213

  ==> Basis Set <==

  Basis Set: CC-PVDZ
    Blend: CC-PVDZ
    Number of shells: 16
    Number of basis functions: 36
    Number of Cartesian functions: 38
    Spherical Harmonics?: true
    Max angular momentum: 2

  ==> DFJKGrad: Density-Fitted SCF Gradients <==

    Gradient:                    1
    J tasked:                  Yes
    K tasked:                  Yes
    wK tasked:                  No
    OpenMP threads:              1
    Integrals threads:           1
    Memory [MiB]:              375
    Schwarz Cutoff:          1E-12
    Fitting Condition:       1E-10

   => Auxiliary Basis Set <=

  Basis Set: (CC-PVDZ AUX)
    Blend: CC-PVDZ-JKFIT
    Number of shells: 72
    Number of basis functions: 224
    Number of Cartesian functions: 260
    Spherical Harmonics?: true
    Max angular momentum: 3

  ==> DFT Potential <==

   => LibXC <=

    Version 6.2.2
    S. Lehtola, C. Steigemann, M. J.T. Oliveira, and M. A.L. Marques.,  SoftwareX 7, 1â€“5 (2018) (10.1016/j.softx.2017.11.002)

   => Composite Functional: B3LYP <=

    B3LYP Hyb-GGA Exchange-Correlation Functional

    P. J. Stephens, F. J. Devlin, C. F. Chabalowski, and M. J. Frisch.,  J. Phys. Chem. 98, 11623 (1994) (10.1021/j100096a001)

    Deriv               =              1
    GGA                 =           TRUE
    Meta                =          FALSE

    Exchange Hybrid     =           TRUE
    MP2 Hybrid          =          FALSE

   => Exchange Functionals <=

    0.0800   Slater exchange
    0.7200         Becke 88

   => Exact (HF) Exchange <=

    0.2000               HF

   => Correlation Functionals <=

    0.1900   Vosko, Wilk & Nusair (VWN5_RPA)
    0.8100   Lee, Yang & Parr

   => LibXC Density Thresholds  <==

    XC_HYB_GGA_XC_B3LYP:  1.00E-15

   => Molecular Quadrature <=

    Radial Scheme          =       TREUTLER
    Pruning Scheme         =           NONE
    Nuclear Scheme         =       TREUTLER

    Blocking Scheme        =         OCTREE
    BS radius alpha        =              1
    Pruning alpha          =              1
    Radial Points          =             75
    Spherical Points       =            302
    Total Points           =          40354
    Total Blocks           =            366
    Max Points             =            244
    Max Functions          =             36
    Weights Tolerance      =       1.00E-15

  -Total Gradient:
     Atom            X                  Y                   Z
    ------   -----------------  -----------------  -----------------
       1        0.000000000000    -0.000000000000    -0.000038493748
       2        0.000000000000     0.000000000000     0.000048478217

*** tstop() called on Joses-MacBook-Pro-2.local at Thu Jul 17 15:59:12 2025
Module time:
	user time   =       2.20 seconds =       0.04 minutes
	system time =       1.35 seconds =       0.02 minutes
	total time  =          1 seconds =       0.02 minutes
Total time:
	user time   =     209.28 seconds =       3.49 minutes
	system time =      59.50 seconds =       0.99 minutes
	total time  =         26 seconds =       0.43 minutes

    			-----------------------------------------

    			 OPTKING 3.0: for geometry optimizations

    			     By R.A. King, Bethel University

    			        with contributions from

    			    A.V. Copan, J. Cayton, A. Heide

    			-----------------------------------------

	                            ===> Fragment 1 <==

	 Z (Atomic Numbers)          Masses                          Geom
	      16.000000            31.972071          0.00000000  0.00000000  3.05994274
	      18.000000            39.962383          0.00000000  0.00000000 -2.44811994

	 - Coordinate -           - BOHR/RAD -       - ANG/DEG -
	 R(1,2)           =         5.508063           2.914741

	        --- Internal Coordinate Step in ANG or DEG, aJ/ANG or AJ/DEG ---
	-------------------------------------------------------------------------------
	           Coordinate      Previous         Force          Change          New
	           ----------      --------        ------          ------        ------
	               R(1,2)       2.91474        0.00036        0.00139       2.91613
	-------------------------------------------------------------------------------

	                                 ==> Convergence Check <==

	Measures of convergence in internal coordinates in au.

	Criteria marked as inactive (o), active & met (*), and active & unmet ( ).

	----------------------------------------------------------------------------------------------
	   Step    Total Energy     Delta E     Max Force     RMS Force      Max Disp      RMS Disp
	----------------------------------------------------------------------------------------------
	  Convergence Criteria     1.00e-06 *    3.00e-04 *             o    1.20e-03 *             o
	----------------------------------------------------------------------------------------------
	    18    -925.29157828   -5.97e-07 *    4.35e-05 *    4.35e-05 o    2.62e-03      2.62e-03 o  ~
	----------------------------------------------------------------------------------------------

Next Geometry in Ang
	Fragment 1 (Ang)

	    S   0.0000000000   0.0000000000   1.6199452325
	   Ar   0.0000000000   0.0000000000  -1.2961825516

    Final optimized geometry and variables:
    Molecular point group: c2v
    Full point group: C_inf_v

    Geometry (in Angstrom), charge = 1, multiplicity = 4:

    S            0.000000000000     0.000000000000     1.619251961568
    AR           0.000000000000     0.000000000000    -1.295489280614

    Psi4 stopped on: Thursday, 17 July 2025 03:59PM
    Psi4 wall time for execution: 0:00:26.00

*** Psi4 exiting successfully. Buy a developer a beer!
