                               Psi4 1.9.1 release

  ==> Input File <==

--------------------------------------------------------------------------
molecule {
1 4
Na   0.00000        0.60000        0.00000
Al   0.00000       -0.60000        0.00000
}

set {
basis              cc-pvdz
reference          uks
maxiter            500
geom_maxiter       500
DAMPING_PERCENTAGE 1
guess              SAP
}

optimize('b3lyp')
--------------------------------------------------------------------------

    Molecular point group: c2v
  Charge       = 1
  Multiplicity = 4
  Basis Set: CC-PVDZ
    Blend: CC-PVDZ
  Basis Set: (CC-PVDZ AUX)
    Blend: CC-PVDZ-JKFIT + DEF2-UNIVERSAL-JKFIT
  @DF-UKS Final Energy:  -403.63761822101128
    Total Energy =                       -403.6376182210112802
 Dipole X            :          0.0000000            0.0000000            0.0000000
 Dipole Y            :          0.0000000            0.0000000            0.0000000
 Dipole Z            :          0.7847432           -0.0939390            0.6908042
 Magnitude           :                                                    0.6908042
    Molecular point group: c2v
  Basis Set: CC-PVDZ
    Blend: CC-PVDZ
  Basis Set: (CC-PVDZ AUX)
    Blend: CC-PVDZ-JKFIT + DEF2-UNIVERSAL-JKFIT
  Basis Set: CC-PVDZ
    Blend: CC-PVDZ
  Basis Set: (CC-PVDZ AUX)
    Blend: CC-PVDZ-JKFIT + DEF2-UNIVERSAL-JKFIT
  @DF-UKS Final Energy:  -403.64483203450470
    Total Energy =                       -403.6448320345047023
  Basis Set: CC-PVDZ
    Blend: CC-PVDZ
  Basis Set: (CC-PVDZ AUX)
    Blend: CC-PVDZ-JKFIT + DEF2-UNIVERSAL-JKFIT
  Basis Set: CC-PVDZ
    Blend: CC-PVDZ
  @DF-UKS Final Energy:  -403.65878431741362
    Total Energy =                       -403.6587843174136196
  @DF-UKS Final Energy:  -403.70969485273969
    Total Energy =                       -403.7096948527396876
  @DF-UKS Final Energy:  -403.94777249229531
    Total Energy =                       -403.9477724922953144
  @DF-UKS Final Energy:  -404.08262561006501
    Total Energy =                       -404.0826256100650085
  @DF-UKS Final Energy:  -404.18063568511633
    Total Energy =                       -404.1806356851163855
  @DF-UKS Final Energy:  -404.24560511257386
    Total Energy =                       -404.2456051125738554
  @DF-UKS Final Energy:  -404.28422031762727
    Total Energy =                       -404.2842203176272733
  @DF-UKS Final Energy:  -404.30563874805318
    Total Energy =                       -404.3056387480531839
  @DF-UKS Final Energy:  -404.31713353829753
    Total Energy =                       -404.3171335382975258
  @DF-UKS Final Energy:  -404.32330147699162
    Total Energy =                       -404.3233014769916167
  @DF-UKS Final Energy:  -404.32657849023974
    Total Energy =                       -404.3265784902397399
  @DF-UKS Final Energy:  -404.32833991444005
    Total Energy =                       -404.3283399144399937
  @DF-UKS Final Energy:  -404.32933603845424
    Total Energy =                       -404.3293360384542439
  @DF-UKS Final Energy:  -404.32998032890794
    Total Energy =                       -404.3299803289079364
  @DF-UKS Final Energy:  -404.33051931615745
    Total Energy =                       -404.3305193161574493
  @DF-UKS Final Energy:  -404.33052258167044
    Total Energy =                       -404.3305225816704365
  @DF-UKS Final Energy:  -404.33052584093383
    Total Energy =                       -404.3305258409338308
  @DF-UKS Final Energy:  -404.33052909648444
    Total Energy =                       -404.3305290964844403
  @DF-UKS Final Energy:  -404.34563808879113
    Total Energy =                       -404.3456380887911337
  @DF-UKS Final Energy:  -404.34858837926964
    Total Energy =                       -404.3485883792696427
  @DF-UKS Final Energy:  -404.35259578107531
    Total Energy =                       -404.3525957810753084
  @DF-UKS Final Energy:  -404.35700704595348
    Total Energy =                       -404.3570070459534804
  @DF-UKS Final Energy:  -404.35797895395154
    Total Energy =                       -404.3579789539515446
  @DF-UKS Final Energy:  -404.35880391729711
    Total Energy =                       -404.3588039172971094
  @DF-UKS Final Energy:  -404.35938319293058
    Total Energy =                       -404.3593831929305793
  @DF-UKS Final Energy:  -404.35953084228231
    Total Energy =                       -404.3595308422823109
  @DF-UKS Final Energy:  -404.35958168874316
    Total Energy =                       -404.3595816887431624
  @DF-UKS Final Energy:  -404.35618912808621
    Total Energy =                       -404.3561891280862710
  @DF-UKS Final Energy:  -404.35820346631232
    Total Energy =                       -404.3582034663123181
  @DF-UKS Final Energy:  -404.35958167663506
    Total Energy =                       -404.3595816766351163
  @DF-UKS Final Energy:  -404.35820351372092
    Total Energy =                       -404.3582035137208663
  @DF-UKS Final Energy:  -404.35909336853427
    Total Energy =                       -404.3590933685342748
  @DF-UKS Final Energy:  -404.35958167155866
    Total Energy =                       -404.3595816715586579
  @DF-UKS Final Energy:  -404.35909336249631
    Total Energy =                       -404.3590933624963100
  @DF-UKS Final Energy:  -404.35948078910212
    Total Energy =                       -404.3594807891021219
  @DF-UKS Final Energy:  -404.35968594204132
    Total Energy =                       -404.3596859420413239
  Basis Set: (CC-PVDZ AUX)
    Blend: CC-PVDZ-JKFIT + DEF2-UNIVERSAL-JKFIT
  Basis Set: CC-PVDZ
    Blend: CC-PVDZ
  Basis Set: (CC-PVDZ AUX)
    Blend: CC-PVDZ-JKFIT + DEF2-UNIVERSAL-JKFIT
  @DF-UKS Final Energy:  -404.35970467641363
    Total Energy =                       -404.3597046764136280
  Basis Set: CC-PVDZ
    Blend: CC-PVDZ
  Basis Set: (CC-PVDZ AUX)
    Blend: CC-PVDZ-JKFIT + DEF2-UNIVERSAL-JKFIT
  Charge       = 1
  Multiplicity = 4
  Basis Set: CC-PVDZ
    Blend: CC-PVDZ
  Basis Set: (CC-PVDZ AUX)
    Blend: CC-PVDZ-JKFIT + DEF2-UNIVERSAL-JKFIT

    Orbital Energies [Eh]
    ---------------------

    Alpha Occupied:

       1A1   -56.300615     2A1   -38.715270     3A1    -4.378778
       1B1    -2.933872     4A1    -2.930972     1B2    -2.929793
       5A1    -2.455170     2B1    -1.386471     2B2    -1.386241
       6A1    -1.386067     7A1    -0.541270     8A1    -0.346383
       3B2    -0.321973

    Alpha Virtual:

       3B1    -0.262706     9A1    -0.217763     4B2    -0.144998
       4B1    -0.144016    10A1    -0.119457    11A1    -0.081560
       5B2    -0.050597     5B1    -0.050303    12A1    -0.045289
       6B2    -0.007901     6B1    -0.006574    13A1     0.003216
       1A2     0.010028    14A1     0.010800     7B2     0.059143
       7B1     0.066755     2A2     0.075792    15A1     0.079685
      16A1     0.088026    17A1     0.108370     8B2     0.145479
       8B1     0.148688    18A1     0.286731

    Beta Occupied:

       1A1   -56.291626     2A1   -38.714672     3A1    -4.365600
       1B1    -2.926106     4A1    -2.917233     1B2    -2.914009
       5A1    -2.454030     2B1    -1.385836     2B2    -1.385542
       6A1    -1.384927

    Beta Virtual:

       7A1    -0.381399     8A1    -0.244277     3B1    -0.203684
       3B2    -0.178316     9A1    -0.175949     4B1    -0.133468
       4B2    -0.126729    10A1    -0.100211    11A1    -0.058143
       5B1    -0.042074     5B2    -0.039824    12A1    -0.032851
       1A2     0.016314    13A1     0.016323     6B1     0.016483
       6B2     0.023226    14A1     0.038520     7B1     0.098691
       7B2     0.119094    15A1     0.138150    16A1     0.146641
       2A2     0.159418    17A1     0.162003     8B1     0.204565
       8B2     0.225626    18A1     0.342885

    Final Occupation by Irrep:
             A1    A2    B1    B2
    DOCC [     6,    0,    2,    2 ]
    SOCC [     2,    0,    0,    1 ]
    NA   [     8,    0,    2,    3 ]
    NB   [     6,    0,    2,    2 ]

  @DF-UKS Final Energy:  -404.35970529782878

   => Energetics <=

    Nuclear Repulsion Energy =             21.9357852126693942
    One-Electron Energy =                -602.9280788548503551
    Two-Electron Energy =                 203.1253352487735242
    DFT Exchange-Correlation Energy =     -26.4927469044214057
    Empirical Dispersion Energy =           0.0000000000000000
    VV10 Nonlocal Energy =                  0.0000000000000000
    Total Energy =                       -404.3597052978287820

  UHF NO Occupations:
  HONO-2 :    7 A1 1.0000000
  HONO-1 :    8 A1 1.0000000
  HONO-0 :    3 B2 1.0000000
  LUNO+0 :    3 B1 0.0000009
  LUNO+1 :    9 A1 0.0000007
  LUNO+2 :    4 B2 0.0000002
  LUNO+3 :   10 A1 0.0000002

Computation Completed

Properties will be evaluated at   0.000000,   0.000000,   0.000000 [a0]

Properties computed using the SCF density matrix

 Multipole Moments:

 ------------------------------------------------------------------------------------
     Multipole            Electronic (a.u.)      Nuclear  (a.u.)        Total (a.u.)
 ------------------------------------------------------------------------------------

 L = 1.  Multiply by 2.5417464519 to convert [e a0] to [Debye]
 Dipole X            :          0.0000000            0.0000000            0.0000000
 Dipole Y            :          0.0000000            0.0000000            0.0000000
 Dipole Z            :          2.1257091           -0.2700527            1.8556564
 Magnitude           :                                                    1.8556564

 ------------------------------------------------------------------------------------

*** tstop() called on Joses-MacBook-Pro-2.local at Thu Jul 17 14:49:36 2025
Module time:
	user time   =       7.15 seconds =       0.12 minutes
	system time =       2.02 seconds =       0.03 minutes
	total time  =          1 seconds =       0.02 minutes
Total time:
	user time   =     790.88 seconds =      13.18 minutes
	system time =     298.62 seconds =       4.98 minutes
	total time  =        109 seconds =       1.82 minutes

*** tstart() called on Joses-MacBook-Pro-2.local
*** at Thu Jul 17 14:49:36 2025

         ------------------------------------------------------------
                                   SCF GRAD
                          Rob Parrish, Justin Turney,
                       Andy Simmonett, and Alex Sokolov
         ------------------------------------------------------------

  ==> Geometry <==

    Molecular point group: c2v
    Full point group: C_inf_v

    Geometry (in Angstrom), charge = 1, multiplicity = 4:

       Center              X                  Y                   Z               Mass
    ------------   -----------------  -----------------  -----------------  -----------------
         NA           0.000000000000     0.000000000000     1.862644523287    22.989769282000
         AL           0.000000000000     0.000000000000    -1.587076578199    26.981538530000

  Nuclear repulsion =   21.935785212669394

  ==> Basis Set <==

  Basis Set: CC-PVDZ
    Blend: CC-PVDZ
    Number of shells: 16
    Number of basis functions: 36
    Number of Cartesian functions: 38
    Spherical Harmonics?: true
    Max angular momentum: 2

  ==> DFJKGrad: Density-Fitted SCF Gradients <==

    Gradient:                    1
    J tasked:                  Yes
    K tasked:                  Yes
    wK tasked:                  No
    OpenMP threads:              1
    Integrals threads:           1
    Memory [MiB]:              375
    Schwarz Cutoff:          1E-12
    Fitting Condition:       1E-10

   => Auxiliary Basis Set <=

  Basis Set: (CC-PVDZ AUX)
    Blend: CC-PVDZ-JKFIT + DEF2-UNIVERSAL-JKFIT
    Number of shells: 70
    Number of basis functions: 224
    Number of Cartesian functions: 267
    Spherical Harmonics?: true
    Max angular momentum: 4

  ==> DFT Potential <==

   => LibXC <=

    Version 6.2.2
    S. Lehtola, C. Steigemann, M. J.T. Oliveira, and M. A.L. Marques.,  SoftwareX 7, 1â€“5 (2018) (10.1016/j.softx.2017.11.002)

   => Composite Functional: B3LYP <=

    B3LYP Hyb-GGA Exchange-Correlation Functional

    P. J. Stephens, F. J. Devlin, C. F. Chabalowski, and M. J. Frisch.,  J. Phys. Chem. 98, 11623 (1994) (10.1021/j100096a001)

    Deriv               =              1
    GGA                 =           TRUE
    Meta                =          FALSE

    Exchange Hybrid     =           TRUE
    MP2 Hybrid          =          FALSE

   => Exchange Functionals <=

    0.0800   Slater exchange
    0.7200         Becke 88

   => Exact (HF) Exchange <=

    0.2000               HF

   => Correlation Functionals <=

    0.1900   Vosko, Wilk & Nusair (VWN5_RPA)
    0.8100   Lee, Yang & Parr

   => LibXC Density Thresholds  <==

    XC_HYB_GGA_XC_B3LYP:  1.00E-15

   => Molecular Quadrature <=

    Radial Scheme          =       TREUTLER
    Pruning Scheme         =           NONE
    Nuclear Scheme         =       TREUTLER

    Blocking Scheme        =         OCTREE
    BS radius alpha        =              1
    Pruning alpha          =              1
    Radial Points          =             75
    Spherical Points       =            302
    Total Points           =          43898
    Total Blocks           =            454
    Max Points             =            255
    Max Functions          =             36
    Weights Tolerance      =       1.00E-15

  -Total Gradient:
     Atom            X                  Y                   Z
    ------   -----------------  -----------------  -----------------
       1        0.000000000000     0.000000000000     0.000025282830
       2        0.000000000000     0.000000000000    -0.000004368372

*** tstop() called on Joses-MacBook-Pro-2.local at Thu Jul 17 14:49:36 2025
Module time:
	user time   =       3.14 seconds =       0.05 minutes
	system time =       1.30 seconds =       0.02 minutes
	total time  =          0 seconds =       0.00 minutes
Total time:
	user time   =     794.02 seconds =      13.23 minutes
	system time =     299.92 seconds =       5.00 minutes
	total time  =        109 seconds =       1.82 minutes

    			-----------------------------------------

    			 OPTKING 3.0: for geometry optimizations

    			     By R.A. King, Bethel University

    			        with contributions from

    			    A.V. Copan, J. Cayton, A. Heide

    			-----------------------------------------

	                            ===> Fragment 1 <==

	 Z (Atomic Numbers)          Masses                          Geom
	      11.000000            22.989769          0.00000000  0.00000000  3.51988802
	      13.000000            26.981539          0.00000000  0.00000000 -2.99914007

	 - Coordinate -           - BOHR/RAD -       - ANG/DEG -
	 R(1,2)           =         6.519028           3.449721

	        --- Internal Coordinate Step in ANG or DEG, aJ/ANG or AJ/DEG ---
	-------------------------------------------------------------------------------
	           Coordinate      Previous         Force          Change          New
	           ----------      --------        ------          ------        ------
	               R(1,2)       3.44972       -0.00012       -0.00083       3.44889
	-------------------------------------------------------------------------------

	                                 ==> Convergence Check <==

	Measures of convergence in internal coordinates in au.

	Criteria marked as inactive (o), active & met (*), and active & unmet ( ).

	----------------------------------------------------------------------------------------------
	   Step    Total Energy     Delta E     Max Force     RMS Force      Max Disp      RMS Disp
	----------------------------------------------------------------------------------------------
	  Convergence Criteria     1.00e-06 *    3.00e-04 *             o    1.20e-03 *             o
	----------------------------------------------------------------------------------------------
	    70    -404.35970530   -6.21e-07 *    1.48e-05 *    1.48e-05 o    1.57e-03      1.57e-03 o  ~
	----------------------------------------------------------------------------------------------

Next Geometry in Ang
	Fragment 1 (Ang)

	   Na   0.0000000000   0.0000000000   1.8622303176
	   Al   0.0000000000   0.0000000000  -1.5866623725

    Final optimized geometry and variables:
    Molecular point group: c2v
    Full point group: C_inf_v

    Geometry (in Angstrom), charge = 1, multiplicity = 4:

    NA           0.000000000000     0.000000000000     1.862644523287
    AL           0.000000000000     0.000000000000    -1.587076578199

    Psi4 stopped on: Thursday, 17 July 2025 02:49PM
    Psi4 wall time for execution: 0:01:49.90

*** Psi4 exiting successfully. Buy a developer a beer!
