                               Psi4 1.9.1 release

  ==> Input File <==

--------------------------------------------------------------------------
molecule {
1 4
B   0.00000        0.60000        0.00000
Na   0.00000       -0.60000        0.00000
}

set {
basis              cc-pvdz
reference          uks
maxiter            500
geom_maxiter       500
DAMPING_PERCENTAGE 1
guess              SAP
}

optimize('b3lyp')
--------------------------------------------------------------------------

    Molecular point group: c2v
  Charge       = 1
  Multiplicity = 4
  Basis Set: CC-PVDZ
    Blend: CC-PVDZ
  Basis Set: (CC-PVDZ AUX)
    Blend: CC-PVDZ-JKFIT + DEF2-UNIVERSAL-JKFIT
  @DF-UKS Final Energy:  -186.25928661192887
    Total Energy =                       -186.2592866119288715
 Dipole X            :          0.0000000            0.0000000            0.0000000
 Dipole Y            :          0.0000000            0.0000000            0.0000000
 Dipole Z            :         -0.4311655           -0.4104272           -0.8415926
 Magnitude           :                                                    0.8415926
    Molecular point group: c2v
  Basis Set: CC-PVDZ
    Blend: CC-PVDZ
  Basis Set: (CC-PVDZ AUX)
    Blend: CC-PVDZ-JKFIT + DEF2-UNIVERSAL-JKFIT
  Basis Set: CC-PVDZ
    Blend: CC-PVDZ
  Basis Set: (CC-PVDZ AUX)
    Blend: CC-PVDZ-JKFIT + DEF2-UNIVERSAL-JKFIT
  @DF-UKS Final Energy:  -186.33128402286920
    Total Energy =                       -186.3312840228692266
  Basis Set: CC-PVDZ
    Blend: CC-PVDZ
  Basis Set: (CC-PVDZ AUX)
    Blend: CC-PVDZ-JKFIT + DEF2-UNIVERSAL-JKFIT
  Basis Set: CC-PVDZ
    Blend: CC-PVDZ
  @DF-UKS Final Energy:  -186.41122728357925
    Total Energy =                       -186.4112272835792794
  @DF-UKS Final Energy:  -186.49886599803480
    Total Energy =                       -186.4988659980348018
  @DF-UKS Final Energy:  -186.55372035095837
    Total Energy =                       -186.5537203509584003
  @DF-UKS Final Energy:  -186.58280124808985
    Total Energy =                       -186.5828012480898508
  @DF-UKS Final Energy:  -186.59792749739330
    Total Energy =                       -186.5979274973933002
  @DF-UKS Final Energy:  -186.60598351613405
    Total Energy =                       -186.6059835161340459
  @DF-UKS Final Energy:  -186.61056975662692
    Total Energy =                       -186.6105697566269157
  @DF-UKS Final Energy:  -186.61319362726584
    Total Energy =                       -186.6131936272658436
  @DF-UKS Final Energy:  -186.61469850261784
    Total Energy =                       -186.6146985026178413
  @DF-UKS Final Energy:  -186.61563192399248
    Total Energy =                       -186.6156319239924812
  @DF-UKS Final Energy:  -186.61630634211730
    Total Energy =                       -186.6163063421172978
  @DF-UKS Final Energy:  -186.61631538598056
    Total Energy =                       -186.6163153859805561
  @DF-UKS Final Energy:  -186.61632435651751
    Total Energy =                       -186.6163243565175378
  @DF-UKS Final Energy:  -186.61699142079289
    Total Energy =                       -186.6169914207928855
  @DF-UKS Final Energy:  -186.61699682639681
    Total Energy =                       -186.6169968263968144
  @DF-UKS Final Energy:  -186.61700221517128
    Total Energy =                       -186.6170022151712828
  @DF-UKS Final Energy:  -186.61700758888722
    Total Energy =                       -186.6170075888872191
  @DF-UKS Final Energy:  -186.61759653671317
    Total Energy =                       -186.6175965367131653
  @DF-UKS Final Energy:  -186.61847235754564
    Total Energy =                       -186.6184723575456417
  @DF-UKS Final Energy:  -186.61847421704479
    Total Energy =                       -186.6184742170448203
  @DF-UKS Final Energy:  -186.61847608034873
    Total Energy =                       -186.6184760803487279
  @DF-UKS Final Energy:  -186.61847793964310
    Total Energy =                       -186.6184779396431281
  @DF-UKS Final Energy:  -186.61847979477545
    Total Energy =                       -186.6184797947754532
  @DF-UKS Final Energy:  -186.61848164585635
    Total Energy =                       -186.6184816458563489
  @DF-UKS Final Energy:  -186.61848349287240
    Total Energy =                       -186.6184834928724001
  @DF-UKS Final Energy:  -186.61848533582776
    Total Energy =                       -186.6184853358277564
  @DF-UKS Final Energy:  -186.61877097530697
    Total Energy =                       -186.6187709753070010
  @DF-UKS Final Energy:  -186.61877221680709
    Total Energy =                       -186.6187722168070877
  @DF-UKS Final Energy:  -186.61877345961923
    Total Energy =                       -186.6187734596192342
  @DF-UKS Final Energy:  -186.61877470007991
    Total Energy =                       -186.6187747000799106
  @DF-UKS Final Energy:  -186.61877593822123
    Total Energy =                       -186.6187759382212334
  @DF-UKS Final Energy:  -186.61877717394970
    Total Energy =                       -186.6187771739496668
  @DF-UKS Final Energy:  -186.61877840739416
    Total Energy =                       -186.6187784073941600
  @DF-UKS Final Energy:  -186.61877963847598
    Total Energy =                       -186.6187796384759849
  @DF-UKS Final Energy:  -186.61878086719142
    Total Energy =                       -186.6187808671914183
  @DF-UKS Final Energy:  -186.61878209361399
    Total Energy =                       -186.6187820936140156
  Basis Set: (CC-PVDZ AUX)
    Blend: CC-PVDZ-JKFIT + DEF2-UNIVERSAL-JKFIT
  Basis Set: CC-PVDZ
    Blend: CC-PVDZ
  Basis Set: (CC-PVDZ AUX)
    Blend: CC-PVDZ-JKFIT + DEF2-UNIVERSAL-JKFIT
  @DF-UKS Final Energy:  -186.61900195630008
    Total Energy =                       -186.6190019563000533
  Basis Set: CC-PVDZ
    Blend: CC-PVDZ
  Basis Set: (CC-PVDZ AUX)
    Blend: CC-PVDZ-JKFIT + DEF2-UNIVERSAL-JKFIT
  Charge       = 1
  Multiplicity = 4
  Basis Set: CC-PVDZ
    Blend: CC-PVDZ
  Basis Set: (CC-PVDZ AUX)
    Blend: CC-PVDZ-JKFIT + DEF2-UNIVERSAL-JKFIT

    Orbital Energies [Eh]
    ---------------------

    Alpha Occupied:

       1A1   -38.774435     2A1    -6.958320     3A1    -2.511705
       4A1    -1.442870     1B1    -1.442847     1B2    -1.442847
       5A1    -0.521302     2B2    -0.291791     2B1    -0.291791

    Alpha Virtual:

       6A1    -0.257277     7A1    -0.202721     3B2    -0.149309
       3B1    -0.149309     8A1    -0.147115     9A1    -0.065472
       4B1    -0.046275     4B2    -0.046275    10A1    -0.045722
       1A2     0.009936    11A1     0.009936    12A1     0.010576
       5B2     0.010874     5B1     0.010874     6B2     0.183099
       6B1     0.183099    13A1     0.215066    14A1     0.263236
       2A2     0.571642    15A1     0.571657     7B1     0.576473
       7B2     0.576473    16A1     0.589977

    Beta Occupied:

       1A1   -38.774435     2A1    -6.918986     3A1    -2.511705
       4A1    -1.442869     1B1    -1.442847     1B2    -1.442847

    Beta Virtual:

       5A1    -0.274262     6A1    -0.257568     7A1    -0.150368
       2B2    -0.148566     2B1    -0.148566     8A1    -0.107789
       3B1    -0.063632     3B2    -0.063632     9A1    -0.060215
       4B2    -0.043442     4B1    -0.043442    10A1    -0.039491
      11A1     0.009169     5B2     0.009747     5B1     0.009747
      12A1     0.010073     1A2     0.010074    13A1     0.257464
       6B1     0.282360     6B2     0.282360    14A1     0.356890
      15A1     0.703650     7B1     0.719241     7B2     0.719241
       2A2     0.753008    16A1     0.753123

    Final Occupation by Irrep:
             A1    A2    B1    B2
    DOCC [     4,    0,    1,    1 ]
    SOCC [     1,    0,    1,    1 ]
    NA   [     5,    0,    2,    2 ]
    NB   [     4,    0,    1,    1 ]

  @DF-UKS Final Energy:  -186.61900277953046

   => Energetics <=

    Nuclear Repulsion Energy =              4.6093477842502155
    One-Electron Energy =                -265.7140013517371813
    Two-Electron Energy =                  89.1908606203497385
    DFT Exchange-Correlation Energy =     -14.7052098323932317
    Empirical Dispersion Energy =           0.0000000000000000
    VV10 Nonlocal Energy =                  0.0000000000000000
    Total Energy =                       -186.6190027795304900

  UHF NO Occupations:
  HONO-2 :    5 A1 1.0000000
  HONO-1 :    2 B2 1.0000000
  HONO-0 :    2 B1 1.0000000
  LUNO+0 :    6 A1 0.0000007
  LUNO+1 :    7 A1 0.0000000
  LUNO+2 :    3 B1 0.0000000
  LUNO+3 :    3 B2 0.0000000

Computation Completed

Properties will be evaluated at   0.000000,   0.000000,   0.000000 [a0]

Properties computed using the SCF density matrix

 Multipole Moments:

 ------------------------------------------------------------------------------------
     Multipole            Electronic (a.u.)      Nuclear  (a.u.)        Total (a.u.)
 ------------------------------------------------------------------------------------

 L = 1.  Multiply by 2.5417464519 to convert [e a0] to [Debye]
 Dipole X            :          0.0000000            0.0000000            0.0000000
 Dipole Y            :          0.0000000            0.0000000            0.0000000
 Dipole Z            :         -1.6246683           -2.1596293           -3.7842975
 Magnitude           :                                                    3.7842975

 ------------------------------------------------------------------------------------

*** tstop() called on Joses-MacBook-Pro-2.local at Thu Jul 17 13:33:42 2025
Module time:
	user time   =       1.22 seconds =       0.02 minutes
	system time =       2.14 seconds =       0.04 minutes
	total time  =          0 seconds =       0.00 minutes
Total time:
	user time   =     143.01 seconds =       2.38 minutes
	system time =     263.66 seconds =       4.39 minutes
	total time  =         40 seconds =       0.67 minutes

*** tstart() called on Joses-MacBook-Pro-2.local
*** at Thu Jul 17 13:33:42 2025

         ------------------------------------------------------------
                                   SCF GRAD
                          Rob Parrish, Justin Turney,
                       Andy Simmonett, and Alex Sokolov
         ------------------------------------------------------------

  ==> Geometry <==

    Molecular point group: c2v
    Full point group: C_inf_v

    Geometry (in Angstrom), charge = 1, multiplicity = 4:

       Center              X                  Y                   Z               Mass
    ------------   -----------------  -----------------  -----------------  -----------------
         B            0.000000000000     0.000000000000     4.269645917958    11.009305360000
         NA           0.000000000000     0.000000000000    -2.044641471312    22.989769282000

  Nuclear repulsion =    4.609347784250216

  ==> Basis Set <==

  Basis Set: CC-PVDZ
    Blend: CC-PVDZ
    Number of shells: 14
    Number of basis functions: 32
    Number of Cartesian functions: 34
    Spherical Harmonics?: true
    Max angular momentum: 2

  ==> DFJKGrad: Density-Fitted SCF Gradients <==

    Gradient:                    1
    J tasked:                  Yes
    K tasked:                  Yes
    wK tasked:                  No
    OpenMP threads:              1
    Integrals threads:           1
    Memory [MiB]:              375
    Schwarz Cutoff:          1E-12
    Fitting Condition:       1E-10

   => Auxiliary Basis Set <=

  Basis Set: (CC-PVDZ AUX)
    Blend: CC-PVDZ-JKFIT + DEF2-UNIVERSAL-JKFIT
    Number of shells: 58
    Number of basis functions: 182
    Number of Cartesian functions: 218
    Spherical Harmonics?: true
    Max angular momentum: 4

  ==> DFT Potential <==

   => LibXC <=

    Version 6.2.2
    S. Lehtola, C. Steigemann, M. J.T. Oliveira, and M. A.L. Marques.,  SoftwareX 7, 1â€“5 (2018) (10.1016/j.softx.2017.11.002)

   => Composite Functional: B3LYP <=

    B3LYP Hyb-GGA Exchange-Correlation Functional

    P. J. Stephens, F. J. Devlin, C. F. Chabalowski, and M. J. Frisch.,  J. Phys. Chem. 98, 11623 (1994) (10.1021/j100096a001)

    Deriv               =              1
    GGA                 =           TRUE
    Meta                =          FALSE

    Exchange Hybrid     =           TRUE
    MP2 Hybrid          =          FALSE

   => Exchange Functionals <=

    0.0800   Slater exchange
    0.7200         Becke 88

   => Exact (HF) Exchange <=

    0.2000               HF

   => Correlation Functionals <=

    0.1900   Vosko, Wilk & Nusair (VWN5_RPA)
    0.8100   Lee, Yang & Parr

   => LibXC Density Thresholds  <==

    XC_HYB_GGA_XC_B3LYP:  1.00E-15

   => Molecular Quadrature <=

    Radial Scheme          =       TREUTLER
    Pruning Scheme         =           NONE
    Nuclear Scheme         =       TREUTLER

    Blocking Scheme        =         OCTREE
    BS radius alpha        =              1
    Pruning alpha          =              1
    Radial Points          =             75
    Spherical Points       =            302
    Total Points           =          43944
    Total Blocks           =            460
    Max Points             =            255
    Max Functions          =             32
    Weights Tolerance      =       1.00E-15

  -Total Gradient:
     Atom            X                  Y                   Z
    ------   -----------------  -----------------  -----------------
       1        0.000000000000     0.000000000000    -0.000222882398
       2        0.000000000000     0.000000000000     0.000224546700

*** tstop() called on Joses-MacBook-Pro-2.local at Thu Jul 17 13:33:42 2025
Module time:
	user time   =       0.73 seconds =       0.01 minutes
	system time =       1.88 seconds =       0.03 minutes
	total time  =          0 seconds =       0.00 minutes
Total time:
	user time   =     143.74 seconds =       2.40 minutes
	system time =     265.54 seconds =       4.43 minutes
	total time  =         40 seconds =       0.67 minutes

    			-----------------------------------------

    			 OPTKING 3.0: for geometry optimizations

    			     By R.A. King, Bethel University

    			        with contributions from

    			    A.V. Copan, J. Cayton, A. Heide

    			-----------------------------------------

	                            ===> Fragment 1 <==

	 Z (Atomic Numbers)          Masses                          Geom
	       5.000000            11.009305          0.00000000  0.00000000  8.06846144
	      11.000000            22.989769          0.00000000  0.00000000 -3.86381241

	 - Coordinate -           - BOHR/RAD -       - ANG/DEG -
	 R(1,2)           =        11.932274           6.314287

	        --- Internal Coordinate Step in ANG or DEG, aJ/ANG or AJ/DEG ---
	-------------------------------------------------------------------------------
	           Coordinate      Previous         Force          Change          New
	           ----------      --------        ------          ------        ------
	               R(1,2)       6.31429        0.00184        0.00194       6.31622
	-------------------------------------------------------------------------------

	                                 ==> Convergence Check <==

	Measures of convergence in internal coordinates in au.

	Criteria marked as inactive (o), active & met (*), and active & unmet ( ).

	----------------------------------------------------------------------------------------------
	   Step    Total Energy     Delta E     Max Force     RMS Force      Max Disp      RMS Disp
	----------------------------------------------------------------------------------------------
	  Convergence Criteria     1.00e-06 *    3.00e-04 *             o    1.20e-03 *             o
	----------------------------------------------------------------------------------------------
	    50    -186.61900278   -8.23e-07 *    2.24e-04 *    2.24e-04 o    3.66e-03      3.66e-03 o  ~
	----------------------------------------------------------------------------------------------

Next Geometry in Ang
	Fragment 1 (Ang)

	    B   0.0000000000   0.0000000000   4.2706144975
	   Na   0.0000000000   0.0000000000  -2.0456100508

    Final optimized geometry and variables:
    Molecular point group: c2v
    Full point group: C_inf_v

    Geometry (in Angstrom), charge = 1, multiplicity = 4:

    B            0.000000000000     0.000000000000     4.269645917958
    NA           0.000000000000     0.000000000000    -2.044641471312

    Psi4 stopped on: Thursday, 17 July 2025 01:33PM
    Psi4 wall time for execution: 0:00:41.70

*** Psi4 exiting successfully. Buy a developer a beer!
