                               Psi4 1.9.1 release

  ==> Input File <==

--------------------------------------------------------------------------
molecule {
1 4
Ne   0.00000        0.60000        0.00000
Ne   0.00000       -0.60000        0.00000
}

set {
basis              cc-pvdz
reference          uks
maxiter            500
geom_maxiter       500
DAMPING_PERCENTAGE 1
guess              SAP
}

optimize('b3lyp')
--------------------------------------------------------------------------

    Molecular point group: d2h
  Charge       = 1
  Multiplicity = 4
  Basis Set: CC-PVDZ
    Blend: CC-PVDZ
  Basis Set: (CC-PVDZ AUX)
    Blend: CC-PVDZ-JKFIT
  @DF-UKS Final Energy:  -255.20818299963298
    Total Energy =                       -255.2081829996329816
 Dipole X            :          0.0000000            0.0000000            0.0000000
 Dipole Y            :          0.0000000            0.0000000            0.0000000
 Dipole Z            :          0.0000000            0.0000000            0.0000000
 Magnitude           :                                                    0.0000000
    Molecular point group: d2h
  Basis Set: CC-PVDZ
    Blend: CC-PVDZ
  Basis Set: (CC-PVDZ AUX)
    Blend: CC-PVDZ-JKFIT
  Basis Set: CC-PVDZ
    Blend: CC-PVDZ
  Basis Set: (CC-PVDZ AUX)
    Blend: CC-PVDZ-JKFIT
  @DF-UKS Final Energy:  -255.41137660187019
    Total Energy =                       -255.4113766018701881
  Basis Set: CC-PVDZ
    Blend: CC-PVDZ
  Basis Set: (CC-PVDZ AUX)
    Blend: CC-PVDZ-JKFIT
  Basis Set: CC-PVDZ
    Blend: CC-PVDZ
  @DF-UKS Final Energy:  -255.42309586784026
    Total Energy =                       -255.4230958678402601
  @DF-UKS Final Energy:  -255.42861615861838
    Total Energy =                       -255.4286161586183823
  @DF-UKS Final Energy:  -255.42903772381555
    Total Energy =                       -255.4290377238155543
  @DF-UKS Final Energy:  -255.42907442608094
    Total Energy =                       -255.4290744260809447
  Basis Set: (CC-PVDZ AUX)
    Blend: CC-PVDZ-JKFIT
  Basis Set: CC-PVDZ
    Blend: CC-PVDZ
  Basis Set: (CC-PVDZ AUX)
    Blend: CC-PVDZ-JKFIT
  @DF-UKS Final Energy:  -255.42907777708226
    Total Energy =                       -255.4290777770822558
  Basis Set: CC-PVDZ
    Blend: CC-PVDZ
  Basis Set: (CC-PVDZ AUX)
    Blend: CC-PVDZ-JKFIT
  Charge       = 1
  Multiplicity = 4
  Basis Set: CC-PVDZ
    Blend: CC-PVDZ
  Basis Set: (CC-PVDZ AUX)
    Blend: CC-PVDZ-JKFIT

    Orbital Energies [Eh]
    ---------------------

    Alpha Occupied:

       1B2u  -31.656456     1Ag   -31.656416     2Ag    -2.136741
       2B2u   -2.053852     3Ag    -1.295366     1B3u   -1.229625
       1B1g   -1.186425     1B1u   -1.182528     1B3g   -1.137789
       3B2u   -1.121478     2B1u    0.641323

    Alpha Virtual:

       2B3u    0.710308     4Ag     0.824113     4B2u    0.926989
       2B3g    0.953726     2B1g    0.960118     5Ag     1.166991
       5B2u    1.855285     6Ag     3.997559     3B3u    4.019631
       3B1g    4.048038     3B1u    4.074467     6B2u    4.085110
       1B2g    4.087027     1Au     4.088509     7Ag     4.098941
       3B3g    4.102714     7B2u    4.313101

    Beta Occupied:

       1Ag   -31.597563     1B2u  -31.597547     2Ag    -2.019416
       2B2u   -1.927976     3Ag    -1.130732     1B1u   -1.095043
       1B3u   -1.059251     1B3g   -1.046744

    Beta Virtual:

       1B1g   -0.945410     3B2u   -0.863909     2B3u    0.791336
       2B1u    0.805055     4Ag     0.921685     4B2u    1.002642
       2B1g    1.038979     2B3g    1.054224     5Ag     1.245220
       5B2u    1.939908     6Ag     4.113007     3B3u    4.138686
       3B1u    4.152953     1B2g    4.164718     1Au     4.166980
       3B1g    4.169189     7Ag     4.169323     6B2u    4.169722
       3B3g    4.182548     7B2u    4.413942

    Final Occupation by Irrep:
             Ag   B1g   B2g   B3g    Au   B1u   B2u   B3u
    DOCC [     3,    0,    0,    1,    0,    1,    2,    1 ]
    SOCC [     0,    1,    0,    0,    0,    1,    1,    0 ]
    NA   [     3,    1,    0,    1,    0,    2,    3,    1 ]
    NB   [     3,    0,    0,    1,    0,    1,    2,    1 ]

  @DF-UKS Final Energy:  -255.42907809823944

   => Energetics <=

    Nuclear Repulsion Energy =             32.8200301639795597
    One-Electron Energy =                -416.9120392348338555
    Two-Electron Energy =                 148.3455361567863520
    DFT Exchange-Correlation Energy =     -19.6826051841714822
    Empirical Dispersion Energy =           0.0000000000000000
    VV10 Nonlocal Energy =                  0.0000000000000000
    Total Energy =                       -255.4290780982394438

  UHF NO Occupations:
  HONO-2 :    1B1g 1.0000000
  HONO-1 :    2B1u 1.0000000
  HONO-0 :    3B2u 1.0000000
  LUNO+0 :    4 Ag 0.0009390
  LUNO+1 :    2B3u 0.0009357
  LUNO+2 :    2B3g 0.0002355
  LUNO+3 :    5 Ag 0.0001306

Computation Completed

Properties will be evaluated at   0.000000,   0.000000,   0.000000 [a0]

Properties computed using the SCF density matrix

 Multipole Moments:

 ------------------------------------------------------------------------------------
     Multipole            Electronic (a.u.)      Nuclear  (a.u.)        Total (a.u.)
 ------------------------------------------------------------------------------------

 L = 1.  Multiply by 2.5417464519 to convert [e a0] to [Debye]
 Dipole X            :          0.0000000            0.0000000            0.0000000
 Dipole Y            :          0.0000000            0.0000000            0.0000000
 Dipole Z            :          0.0000000            0.0000000            0.0000000
 Magnitude           :                                                    0.0000000

 ------------------------------------------------------------------------------------

*** tstop() called on Joses-MacBook-Pro-2.local at Thu Jul 17 14:37:10 2025
Module time:
	user time   =       2.16 seconds =       0.04 minutes
	system time =       3.46 seconds =       0.06 minutes
	total time  =          1 seconds =       0.02 minutes
Total time:
	user time   =      23.19 seconds =       0.39 minutes
	system time =      42.21 seconds =       0.70 minutes
	total time  =          7 seconds =       0.12 minutes

*** tstart() called on Joses-MacBook-Pro-2.local
*** at Thu Jul 17 14:37:10 2025

         ------------------------------------------------------------
                                   SCF GRAD
                          Rob Parrish, Justin Turney,
                       Andy Simmonett, and Alex Sokolov
         ------------------------------------------------------------

  ==> Geometry <==

    Molecular point group: d2h
    Full point group: D_inf_h

    Geometry (in Angstrom), charge = 1, multiplicity = 4:

       Center              X                  Y                   Z               Mass
    ------------   -----------------  -----------------  -----------------  -----------------
         NE          -0.000000000000     0.806180262520     0.000000000000    19.992440176200
         NE           0.000000000000    -0.806180262520     0.000000000000    19.992440176200

  Nuclear repulsion =   32.820030163979560

  ==> Basis Set <==

  Basis Set: CC-PVDZ
    Blend: CC-PVDZ
    Number of shells: 12
    Number of basis functions: 28
    Number of Cartesian functions: 30
    Spherical Harmonics?: true
    Max angular momentum: 2

  ==> DFJKGrad: Density-Fitted SCF Gradients <==

    Gradient:                    1
    J tasked:                  Yes
    K tasked:                  Yes
    wK tasked:                  No
    OpenMP threads:              1
    Integrals threads:           1
    Memory [MiB]:              375
    Schwarz Cutoff:          1E-12
    Fitting Condition:       1E-10

   => Auxiliary Basis Set <=

  Basis Set: (CC-PVDZ AUX)
    Blend: CC-PVDZ-JKFIT
    Number of shells: 48
    Number of basis functions: 140
    Number of Cartesian functions: 162
    Spherical Harmonics?: true
    Max angular momentum: 3

  ==> DFT Potential <==

   => LibXC <=

    Version 6.2.2
    S. Lehtola, C. Steigemann, M. J.T. Oliveira, and M. A.L. Marques.,  SoftwareX 7, 1â€“5 (2018) (10.1016/j.softx.2017.11.002)

   => Composite Functional: B3LYP <=

    B3LYP Hyb-GGA Exchange-Correlation Functional

    P. J. Stephens, F. J. Devlin, C. F. Chabalowski, and M. J. Frisch.,  J. Phys. Chem. 98, 11623 (1994) (10.1021/j100096a001)

    Deriv               =              1
    GGA                 =           TRUE
    Meta                =          FALSE

    Exchange Hybrid     =           TRUE
    MP2 Hybrid          =          FALSE

   => Exchange Functionals <=

    0.0800   Slater exchange
    0.7200         Becke 88

   => Exact (HF) Exchange <=

    0.2000               HF

   => Correlation Functionals <=

    0.1900   Vosko, Wilk & Nusair (VWN5_RPA)
    0.8100   Lee, Yang & Parr

   => LibXC Density Thresholds  <==

    XC_HYB_GGA_XC_B3LYP:  1.00E-15

   => Molecular Quadrature <=

    Radial Scheme          =       TREUTLER
    Pruning Scheme         =           NONE
    Nuclear Scheme         =       TREUTLER

    Blocking Scheme        =         OCTREE
    BS radius alpha        =              1
    Pruning alpha          =              1
    Radial Points          =             75
    Spherical Points       =            302
    Total Points           =          41956
    Total Blocks           =            380
    Max Points             =            255
    Max Functions          =             28
    Weights Tolerance      =       1.00E-15

  -Total Gradient:
     Atom            X                  Y                   Z
    ------   -----------------  -----------------  -----------------
       1        0.000000000000    -0.000100255180     0.000000000000
       2       -0.000000000000     0.000100255180     0.000000000000

*** tstop() called on Joses-MacBook-Pro-2.local at Thu Jul 17 14:37:10 2025
Module time:
	user time   =       0.58 seconds =       0.01 minutes
	system time =       1.14 seconds =       0.02 minutes
	total time  =          0 seconds =       0.00 minutes
Total time:
	user time   =      23.77 seconds =       0.40 minutes
	system time =      43.36 seconds =       0.72 minutes
	total time  =          7 seconds =       0.12 minutes

    			-----------------------------------------

    			 OPTKING 3.0: for geometry optimizations

    			     By R.A. King, Bethel University

    			        with contributions from

    			    A.V. Copan, J. Cayton, A. Heide

    			-----------------------------------------

	                            ===> Fragment 1 <==

	 Z (Atomic Numbers)          Masses                          Geom
	      10.000000            19.992440         -0.00000000  1.52345990  0.00000000
	      10.000000            19.992440          0.00000000 -1.52345990  0.00000000

	 - Coordinate -           - BOHR/RAD -       - ANG/DEG -
	 R(1,2)           =         3.046920           1.612361

	        --- Internal Coordinate Step in ANG or DEG, aJ/ANG or AJ/DEG ---
	-------------------------------------------------------------------------------
	           Coordinate      Previous         Force          Change          New
	           ----------      --------        ------          ------        ------
	               R(1,2)       1.61236        0.00083        0.00014       1.61250
	-------------------------------------------------------------------------------

	                                 ==> Convergence Check <==

	Measures of convergence in internal coordinates in au.

	Criteria marked as inactive (o), active & met (*), and active & unmet ( ).

	----------------------------------------------------------------------------------------------
	   Step    Total Energy     Delta E     Max Force     RMS Force      Max Disp      RMS Disp
	----------------------------------------------------------------------------------------------
	  Convergence Criteria     1.00e-06 *    3.00e-04 *             o    1.20e-03 *             o
	----------------------------------------------------------------------------------------------
	     8    -255.42907810   -3.21e-07 *    1.00e-04 *    1.00e-04 o    2.65e-04 *    2.65e-04 o  ~
	----------------------------------------------------------------------------------------------

Next Geometry in Ang
	Fragment 1 (Ang)

	   Ne  -0.0000000000   0.8062504948   0.0000000000
	   Ne   0.0000000000  -0.8062504948   0.0000000000

    Final optimized geometry and variables:
    Molecular point group: d2h
    Full point group: D_inf_h

    Geometry (in Angstrom), charge = 1, multiplicity = 4:

    NE          -0.000000000000     0.806180262520     0.000000000000
    NE           0.000000000000    -0.806180262520     0.000000000000

    Psi4 stopped on: Thursday, 17 July 2025 02:37PM
    Psi4 wall time for execution: 0:00:07.70

*** Psi4 exiting successfully. Buy a developer a beer!
