                               Psi4 1.9.1 release

  ==> Input File <==

--------------------------------------------------------------------------
molecule {
1 4
He   0.00000        0.60000        0.00000
Mg   0.00000       -0.60000        0.00000
}

set {
basis              cc-pvdz
reference          uks
maxiter            500
geom_maxiter       500
DAMPING_PERCENTAGE 1
guess              SAP
}

optimize('b3lyp')
--------------------------------------------------------------------------

    Molecular point group: c2v
  Charge       = 1
  Multiplicity = 4
  Basis Set: CC-PVDZ
    Blend: CC-PVDZ
  Basis Set: (CC-PVDZ AUX)
    Blend: DEF2-UNIVERSAL-JKFIT
  @DF-UKS Final Energy:  -201.64149603798131
    Total Energy =                       -201.6414960379813124
 Dipole X            :          0.0000000            0.0000000            0.0000000
 Dipole Y            :          0.0000000            0.0000000            0.0000000
 Dipole Z            :          1.1618300           -0.0049551            1.1568749
 Magnitude           :                                                    1.1568749
    Molecular point group: c2v
  Basis Set: CC-PVDZ
    Blend: CC-PVDZ
  Basis Set: (CC-PVDZ AUX)
    Blend: DEF2-UNIVERSAL-JKFIT
  Basis Set: CC-PVDZ
    Blend: CC-PVDZ
  Basis Set: (CC-PVDZ AUX)
    Blend: DEF2-UNIVERSAL-JKFIT
  @DF-UKS Final Energy:  -201.78603982231397
    Total Energy =                       -201.7860398223139669
  Basis Set: CC-PVDZ
    Blend: CC-PVDZ
  Basis Set: (CC-PVDZ AUX)
    Blend: DEF2-UNIVERSAL-JKFIT
  Basis Set: CC-PVDZ
    Blend: CC-PVDZ
  @DF-UKS Final Energy:  -201.86476648582857
    Total Energy =                       -201.8647664858285680
  @DF-UKS Final Energy:  -201.92068735111354
    Total Energy =                       -201.9206873511135711
  @DF-UKS Final Energy:  -201.94114294365517
    Total Energy =                       -201.9411429436551657
  @DF-UKS Final Energy:  -201.96132989102250
    Total Energy =                       -201.9613298910225012
  @DF-UKS Final Energy:  -201.96538800393705
    Total Energy =                       -201.9653880039370506
  @DF-UKS Final Energy:  -201.97301605169463
    Total Energy =                       -201.9730160516946285
  @DF-UKS Final Energy:  -201.97621819943043
    Total Energy =                       -201.9762181994304342
  @DF-UKS Final Energy:  -201.97797014918186
    Total Energy =                       -201.9779701491818571
  @DF-UKS Final Energy:  -201.97888323284471
    Total Energy =                       -201.9788832328447370
  @DF-UKS Final Energy:  -201.97936092682119
    Total Energy =                       -201.9793609268211867
  @DF-UKS Final Energy:  -201.97960925859658
    Total Energy =                       -201.9796092585966107
  @DF-UKS Final Energy:  -201.97974460499827
    Total Energy =                       -201.9797446049983023
  @DF-UKS Final Energy:  -201.97983066090183
    Total Energy =                       -201.9798306609018255
  Basis Set: (CC-PVDZ AUX)
    Blend: DEF2-UNIVERSAL-JKFIT
  Basis Set: CC-PVDZ
    Blend: CC-PVDZ
  Basis Set: (CC-PVDZ AUX)
    Blend: DEF2-UNIVERSAL-JKFIT
  @DF-UKS Final Energy:  -201.97991104723454
    Total Energy =                       -201.9799110472345660
  Basis Set: CC-PVDZ
    Blend: CC-PVDZ
  Basis Set: (CC-PVDZ AUX)
    Blend: DEF2-UNIVERSAL-JKFIT
  Charge       = 1
  Multiplicity = 4
  Basis Set: CC-PVDZ
    Blend: CC-PVDZ
  Basis Set: (CC-PVDZ AUX)
    Blend: DEF2-UNIVERSAL-JKFIT

    Orbital Energies [Eh]
    ---------------------

    Alpha Occupied:

       1A1   -46.999254     2A1    -3.278396     3A1    -2.022869
       1B1    -2.022676     1B2    -2.019605     4A1    -1.628931
       5A1    -0.363136     2B2    -0.217572

    Alpha Virtual:

       6A1    -0.185387     2B1    -0.167016     7A1    -0.046010
       8A1     0.023693     3B2     0.023966     3B1     0.033730
       4B2     0.153326     9A1     0.157763     1A2     0.158711
       4B1     0.165625    10A1     0.167233    11A1     0.420634
       5B1     1.327984     5B2     1.328086    12A1     1.331423

    Beta Occupied:

       1A1   -46.995034     2A1    -3.271364     3A1    -2.018582
       1B1    -2.018513     1B2    -2.010634

    Beta Virtual:

       4A1    -0.970697     5A1    -0.256040     6A1    -0.144111
       2B1    -0.125643     2B2    -0.105395     7A1    -0.009593
       8A1     0.047977     3B1     0.055199     3B2     0.071628
       9A1     0.198968     4B1     0.199993     4B2     0.221288
       1A2     0.225370    10A1     0.231019    11A1     0.734482
       5B1     1.671097     5B2     1.671143    12A1     1.679913

    Final Occupation by Irrep:
             A1    A2    B1    B2
    DOCC [     3,    0,    1,    1 ]
    SOCC [     2,    0,    0,    1 ]
    NA   [     5,    0,    1,    2 ]
    NB   [     3,    0,    1,    1 ]

  @DF-UKS Final Energy:  -201.97991138279789

   => Energetics <=

    Nuclear Repulsion Energy =              2.7983052524477023
    One-Electron Energy =                -284.8631066470372843
    Two-Electron Energy =                  93.8363833114831181
    DFT Exchange-Correlation Energy =     -13.7514932996913988
    Empirical Dispersion Energy =           0.0000000000000000
    VV10 Nonlocal Energy =                  0.0000000000000000
    Total Energy =                       -201.9799113827978658

  UHF NO Occupations:
  HONO-2 :    4 A1 1.0000000
  HONO-1 :    5 A1 1.0000000
  HONO-0 :    2 B2 1.0000000
  LUNO+0 :    6 A1 0.0000009
  LUNO+1 :    2 B1 0.0000007
  LUNO+2 :    3 B2 0.0000003
  LUNO+3 :    7 A1 0.0000001

Computation Completed

Properties will be evaluated at   0.000000,   0.000000,   0.000000 [a0]

Properties computed using the SCF density matrix

 Multipole Moments:

 ------------------------------------------------------------------------------------
     Multipole            Electronic (a.u.)      Nuclear  (a.u.)        Total (a.u.)
 ------------------------------------------------------------------------------------

 L = 1.  Multiply by 2.5417464519 to convert [e a0] to [Debye]
 Dipole X            :          0.0000000            0.0000000            0.0000000
 Dipole Y            :          0.0000000            0.0000000            0.0000000
 Dipole Z            :          6.7365368           -0.0187407            6.7177960
 Magnitude           :                                                    6.7177960

 ------------------------------------------------------------------------------------

*** tstop() called on Joses-MacBook-Pro-2.local at Thu Jul 17 12:30:34 2025
Module time:
	user time   =       1.62 seconds =       0.03 minutes
	system time =       2.02 seconds =       0.03 minutes
	total time  =          0 seconds =       0.00 minutes
Total time:
	user time   =      56.18 seconds =       0.94 minutes
	system time =      74.85 seconds =       1.25 minutes
	total time  =         14 seconds =       0.23 minutes

*** tstart() called on Joses-MacBook-Pro-2.local
*** at Thu Jul 17 12:30:34 2025

         ------------------------------------------------------------
                                   SCF GRAD
                          Rob Parrish, Justin Turney,
                       Andy Simmonett, and Alex Sokolov
         ------------------------------------------------------------

  ==> Geometry <==

    Molecular point group: c2v
    Full point group: C_inf_v

    Geometry (in Angstrom), charge = 1, multiplicity = 4:

       Center              X                  Y                   Z               Mass
    ------------   -----------------  -----------------  -----------------  -----------------
         HE           0.000000000000     0.000000000000     3.889478801081     4.002603254130
         MG           0.000000000000     0.000000000000    -0.649072897298    23.985041697000

  Nuclear repulsion =    2.798305252447702

  ==> Basis Set <==

  Basis Set: CC-PVDZ
    Blend: CC-PVDZ
    Number of shells: 11
    Number of basis functions: 23
    Number of Cartesian functions: 24
    Spherical Harmonics?: true
    Max angular momentum: 2

  ==> DFJKGrad: Density-Fitted SCF Gradients <==

    Gradient:                    1
    J tasked:                  Yes
    K tasked:                  Yes
    wK tasked:                  No
    OpenMP threads:              1
    Integrals threads:           1
    Memory [MiB]:              375
    Schwarz Cutoff:          1E-12
    Fitting Condition:       1E-10

   => Auxiliary Basis Set <=

  Basis Set: (CC-PVDZ AUX)
    Blend: DEF2-UNIVERSAL-JKFIT
    Number of shells: 43
    Number of basis functions: 135
    Number of Cartesian functions: 162
    Spherical Harmonics?: true
    Max angular momentum: 4

  ==> DFT Potential <==

   => LibXC <=

    Version 6.2.2
    S. Lehtola, C. Steigemann, M. J.T. Oliveira, and M. A.L. Marques.,  SoftwareX 7, 1â€“5 (2018) (10.1016/j.softx.2017.11.002)

   => Composite Functional: B3LYP <=

    B3LYP Hyb-GGA Exchange-Correlation Functional

    P. J. Stephens, F. J. Devlin, C. F. Chabalowski, and M. J. Frisch.,  J. Phys. Chem. 98, 11623 (1994) (10.1021/j100096a001)

    Deriv               =              1
    GGA                 =           TRUE
    Meta                =          FALSE

    Exchange Hybrid     =           TRUE
    MP2 Hybrid          =          FALSE

   => Exchange Functionals <=

    0.0800   Slater exchange
    0.7200         Becke 88

   => Exact (HF) Exchange <=

    0.2000               HF

   => Correlation Functionals <=

    0.1900   Vosko, Wilk & Nusair (VWN5_RPA)
    0.8100   Lee, Yang & Parr

   => LibXC Density Thresholds  <==

    XC_HYB_GGA_XC_B3LYP:  1.00E-15

   => Molecular Quadrature <=

    Radial Scheme          =       TREUTLER
    Pruning Scheme         =           NONE
    Nuclear Scheme         =       TREUTLER

    Blocking Scheme        =         OCTREE
    BS radius alpha        =              1
    Pruning alpha          =              1
    Radial Points          =             75
    Spherical Points       =            302
    Total Points           =          43599
    Total Blocks           =            428
    Max Points             =            251
    Max Functions          =             23
    Weights Tolerance      =       1.00E-15

  -Total Gradient:
     Atom            X                  Y                   Z
    ------   -----------------  -----------------  -----------------
       1        0.000000000000    -0.000000000000    -0.000151299808
       2        0.000000000000    -0.000000000000     0.000143711184

*** tstop() called on Joses-MacBook-Pro-2.local at Thu Jul 17 12:30:34 2025
Module time:
	user time   =       0.59 seconds =       0.01 minutes
	system time =       1.11 seconds =       0.02 minutes
	total time  =          0 seconds =       0.00 minutes
Total time:
	user time   =      56.77 seconds =       0.95 minutes
	system time =      75.96 seconds =       1.27 minutes
	total time  =         14 seconds =       0.23 minutes

    			-----------------------------------------

    			 OPTKING 3.0: for geometry optimizations

    			     By R.A. King, Bethel University

    			        with contributions from

    			    A.V. Copan, J. Cayton, A. Heide

    			-----------------------------------------

	                            ===> Fragment 1 <==

	 Z (Atomic Numbers)          Masses                          Geom
	       2.000000             4.002603          0.00000000  0.00000000  7.35004970
	      12.000000            23.985042          0.00000000  0.00000000 -1.22657001

	 - Coordinate -           - BOHR/RAD -       - ANG/DEG -
	 R(1,2)           =         8.576620           4.538552

	        --- Internal Coordinate Step in ANG or DEG, aJ/ANG or AJ/DEG ---
	-------------------------------------------------------------------------------
	           Coordinate      Previous         Force          Change          New
	           ----------      --------        ------          ------        ------
	               R(1,2)       4.53855        0.00122        0.00125       4.53980
	-------------------------------------------------------------------------------

	                                 ==> Convergence Check <==

	Measures of convergence in internal coordinates in au.

	Criteria marked as inactive (o), active & met (*), and active & unmet ( ).

	----------------------------------------------------------------------------------------------
	   Step    Total Energy     Delta E     Max Force     RMS Force      Max Disp      RMS Disp
	----------------------------------------------------------------------------------------------
	  Convergence Criteria     1.00e-06 *    3.00e-04 *             o    1.20e-03 *             o
	----------------------------------------------------------------------------------------------
	    17    -201.97991138   -3.36e-07 *    1.48e-04 *    1.48e-04 o    2.36e-03      2.36e-03 o  ~
	----------------------------------------------------------------------------------------------

Next Geometry in Ang
	Fragment 1 (Ang)

	   He   0.0000000000   0.0000000000   3.8901039344
	   Mg   0.0000000000   0.0000000000  -0.6496980306

    Final optimized geometry and variables:
    Molecular point group: c2v
    Full point group: C_inf_v

    Geometry (in Angstrom), charge = 1, multiplicity = 4:

    HE           0.000000000000     0.000000000000     3.889478801081
    MG           0.000000000000     0.000000000000    -0.649072897298

    Psi4 stopped on: Thursday, 17 July 2025 12:30PM
    Psi4 wall time for execution: 0:00:15.29

*** Psi4 exiting successfully. Buy a developer a beer!
