                               Psi4 1.9.1 release

  ==> Input File <==

--------------------------------------------------------------------------
molecule {
1 4
N   0.00000        0.60000        0.00000
N   0.00000       -0.60000        0.00000
}

set {
basis              cc-pvdz
reference          uks
maxiter            500
geom_maxiter       500
DAMPING_PERCENTAGE 1
guess              SAP
}

optimize('b3lyp')
--------------------------------------------------------------------------

    Molecular point group: d2h
  Charge       = 1
  Multiplicity = 4
  Basis Set: CC-PVDZ
    Blend: CC-PVDZ
  Basis Set: (CC-PVDZ AUX)
    Blend: CC-PVDZ-JKFIT
  @DF-UKS Final Energy:  -108.71364472156699
    Total Energy =                       -108.7136447215669932
 Dipole X            :          0.0000000            0.0000000            0.0000000
 Dipole Y            :          0.0000000            0.0000000            0.0000000
 Dipole Z            :          0.0000000            0.0000000            0.0000000
 Magnitude           :                                                    0.0000000
    Molecular point group: d2h
  Basis Set: CC-PVDZ
    Blend: CC-PVDZ
  Basis Set: (CC-PVDZ AUX)
    Blend: CC-PVDZ-JKFIT
  Basis Set: CC-PVDZ
    Blend: CC-PVDZ
  Basis Set: (CC-PVDZ AUX)
    Blend: CC-PVDZ-JKFIT
  @DF-UKS Final Energy:  -108.73171318043923
    Total Energy =                       -108.7317131804392289
  Basis Set: CC-PVDZ
    Blend: CC-PVDZ
  Basis Set: (CC-PVDZ AUX)
    Blend: CC-PVDZ-JKFIT
  Basis Set: CC-PVDZ
    Blend: CC-PVDZ
  @DF-UKS Final Energy:  -108.73280563266563
    Total Energy =                       -108.7328056326656309
  @DF-UKS Final Energy:  -108.73294137538532
    Total Energy =                       -108.7329413753853231
  @DF-UKS Final Energy:  -108.73295985836788
    Total Energy =                       -108.7329598583678774
  Basis Set: (CC-PVDZ AUX)
    Blend: CC-PVDZ-JKFIT
  Basis Set: CC-PVDZ
    Blend: CC-PVDZ
  Basis Set: (CC-PVDZ AUX)
    Blend: CC-PVDZ-JKFIT
  @DF-UKS Final Energy:  -108.73296245953361
    Total Energy =                       -108.7329624595336099
  Basis Set: CC-PVDZ
    Blend: CC-PVDZ
  Basis Set: (CC-PVDZ AUX)
    Blend: CC-PVDZ-JKFIT
  Charge       = 1
  Multiplicity = 4
  Basis Set: CC-PVDZ
    Blend: CC-PVDZ
  Basis Set: (CC-PVDZ AUX)
    Blend: CC-PVDZ-JKFIT

    Orbital Energies [Eh]
    ---------------------

    Alpha Occupied:

       1Ag   -14.938269     1B2u  -14.938065     2Ag    -1.470233
       2B2u   -1.075411     3Ag    -0.882911     1B3u   -0.858640
       1B1u   -0.852443     1B3g   -0.634620

    Alpha Virtual:

       1B1g   -0.563765     3B2u   -0.189018     2B3u    0.278731
       4B2u    0.278848     2B1u    0.294203     4Ag     0.330725
       5Ag     0.381233     2B1g    0.390211     2B3g    0.398277
       5B2u    0.875360     3B3u    0.976856     3B1u    1.008076
       1B2g    1.129407     6Ag     1.131796     1Au     1.420884
       6B2u    1.423384     7Ag     1.703399     3B1g    1.942120
       3B3g    1.970343     7B2u    2.276009

    Beta Occupied:

       1Ag   -14.903140     1B2u  -14.903045     2Ag    -1.374728
       2B2u   -0.924554     1B1u   -0.745583

    Beta Virtual:

       3Ag    -0.674634     1B3u   -0.671837     1B3g   -0.439502
       1B1g   -0.438089     3B2u   -0.098254     2B3u    0.335717
       4B2u    0.344138     2B1u    0.345723     4Ag     0.374211
       2B1g    0.440461     5Ag     0.443450     2B3g    0.451882
       5B2u    0.922718     3B3u    1.073250     3B1u    1.088189
       1B2g    1.212454     6Ag     1.216544     1Au     1.508595
       6B2u    1.512948     7Ag     1.792912     3B1g    2.032491
       3B3g    2.054326     7B2u    2.357234

    Final Occupation by Irrep:
             Ag   B1g   B2g   B3g    Au   B1u   B2u   B3u
    DOCC [     2,    0,    0,    0,    0,    1,    2,    0 ]
    SOCC [     1,    0,    0,    1,    0,    0,    0,    1 ]
    NA   [     3,    0,    0,    1,    0,    1,    2,    1 ]
    NB   [     2,    0,    0,    0,    0,    1,    2,    0 ]

  @DF-UKS Final Energy:  -108.73296288343313

   => Energetics <=

    Nuclear Repulsion Energy =             19.5280728375625223
    One-Electron Energy =                -180.3433626744914591
    Two-Electron Energy =                  62.7450414165925920
    DFT Exchange-Correlation Energy =     -10.6627144630967940
    Empirical Dispersion Energy =           0.0000000000000000
    VV10 Nonlocal Energy =                  0.0000000000000000
    Total Energy =                       -108.7329628834331459

  UHF NO Occupations:
  HONO-2 :    1B3u 1.0000000
  HONO-1 :    1B3g 1.0000000
  HONO-0 :    3 Ag 1.0000000
  LUNO+0 :    2B1u 0.0015513
  LUNO+1 :    3B2u 0.0012099
  LUNO+2 :    4 Ag 0.0001454
  LUNO+3 :    4B2u 0.0000004

Computation Completed

Properties will be evaluated at   0.000000,   0.000000,   0.000000 [a0]

Properties computed using the SCF density matrix

 Multipole Moments:

 ------------------------------------------------------------------------------------
     Multipole            Electronic (a.u.)      Nuclear  (a.u.)        Total (a.u.)
 ------------------------------------------------------------------------------------

 L = 1.  Multiply by 2.5417464519 to convert [e a0] to [Debye]
 Dipole X            :          0.0000000            0.0000000            0.0000000
 Dipole Y            :          0.0000000            0.0000000            0.0000000
 Dipole Z            :          0.0000000            0.0000000            0.0000000
 Magnitude           :                                                    0.0000000

 ------------------------------------------------------------------------------------

*** tstop() called on Joses-MacBook-Pro-2.local at Thu Jul 17 13:47:54 2025
Module time:
	user time   =       2.19 seconds =       0.04 minutes
	system time =       3.15 seconds =       0.05 minutes
	total time  =          1 seconds =       0.02 minutes
Total time:
	user time   =      19.69 seconds =       0.33 minutes
	system time =      33.68 seconds =       0.56 minutes
	total time  =          5 seconds =       0.08 minutes

*** tstart() called on Joses-MacBook-Pro-2.local
*** at Thu Jul 17 13:47:54 2025

         ------------------------------------------------------------
                                   SCF GRAD
                          Rob Parrish, Justin Turney,
                       Andy Simmonett, and Alex Sokolov
         ------------------------------------------------------------

  ==> Geometry <==

    Molecular point group: d2h
    Full point group: D_inf_h

    Geometry (in Angstrom), charge = 1, multiplicity = 4:

       Center              X                  Y                   Z               Mass
    ------------   -----------------  -----------------  -----------------  -----------------
         N           -0.000000000000     0.663907891437     0.000000000000    14.003074004430
         N            0.000000000000    -0.663907891437     0.000000000000    14.003074004430

  Nuclear repulsion =   19.528072837562522

  ==> Basis Set <==

  Basis Set: CC-PVDZ
    Blend: CC-PVDZ
    Number of shells: 12
    Number of basis functions: 28
    Number of Cartesian functions: 30
    Spherical Harmonics?: true
    Max angular momentum: 2

  ==> DFJKGrad: Density-Fitted SCF Gradients <==

    Gradient:                    1
    J tasked:                  Yes
    K tasked:                  Yes
    wK tasked:                  No
    OpenMP threads:              1
    Integrals threads:           1
    Memory [MiB]:              375
    Schwarz Cutoff:          1E-12
    Fitting Condition:       1E-10

   => Auxiliary Basis Set <=

  Basis Set: (CC-PVDZ AUX)
    Blend: CC-PVDZ-JKFIT
    Number of shells: 48
    Number of basis functions: 140
    Number of Cartesian functions: 162
    Spherical Harmonics?: true
    Max angular momentum: 3

  ==> DFT Potential <==

   => LibXC <=

    Version 6.2.2
    S. Lehtola, C. Steigemann, M. J.T. Oliveira, and M. A.L. Marques.,  SoftwareX 7, 1â€“5 (2018) (10.1016/j.softx.2017.11.002)

   => Composite Functional: B3LYP <=

    B3LYP Hyb-GGA Exchange-Correlation Functional

    P. J. Stephens, F. J. Devlin, C. F. Chabalowski, and M. J. Frisch.,  J. Phys. Chem. 98, 11623 (1994) (10.1021/j100096a001)

    Deriv               =              1
    GGA                 =           TRUE
    Meta                =          FALSE

    Exchange Hybrid     =           TRUE
    MP2 Hybrid          =          FALSE

   => Exchange Functionals <=

    0.0800   Slater exchange
    0.7200         Becke 88

   => Exact (HF) Exchange <=

    0.2000               HF

   => Correlation Functionals <=

    0.1900   Vosko, Wilk & Nusair (VWN5_RPA)
    0.8100   Lee, Yang & Parr

   => LibXC Density Thresholds  <==

    XC_HYB_GGA_XC_B3LYP:  1.00E-15

   => Molecular Quadrature <=

    Radial Scheme          =       TREUTLER
    Pruning Scheme         =           NONE
    Nuclear Scheme         =       TREUTLER

    Blocking Scheme        =         OCTREE
    BS radius alpha        =              1
    Pruning alpha          =              1
    Radial Points          =             75
    Spherical Points       =            302
    Total Points           =          41862
    Total Blocks           =            380
    Max Points             =            252
    Max Functions          =             28
    Weights Tolerance      =       1.00E-15

  -Total Gradient:
     Atom            X                  Y                   Z
    ------   -----------------  -----------------  -----------------
       1        0.000000000000    -0.000081101433     0.000000000000
       2       -0.000000000000     0.000081101433     0.000000000000

*** tstop() called on Joses-MacBook-Pro-2.local at Thu Jul 17 13:47:54 2025
Module time:
	user time   =       0.42 seconds =       0.01 minutes
	system time =       1.06 seconds =       0.02 minutes
	total time  =          0 seconds =       0.00 minutes
Total time:
	user time   =      20.11 seconds =       0.34 minutes
	system time =      34.74 seconds =       0.58 minutes
	total time  =          5 seconds =       0.08 minutes

    			-----------------------------------------

    			 OPTKING 3.0: for geometry optimizations

    			     By R.A. King, Bethel University

    			        with contributions from

    			    A.V. Copan, J. Cayton, A. Heide

    			-----------------------------------------

	                            ===> Fragment 1 <==

	 Z (Atomic Numbers)          Masses                          Geom
	       7.000000            14.003074         -0.00000000  1.25460409  0.00000000
	       7.000000            14.003074          0.00000000 -1.25460409  0.00000000

	 - Coordinate -           - BOHR/RAD -       - ANG/DEG -
	 R(1,2)           =         2.509208           1.327816

	        --- Internal Coordinate Step in ANG or DEG, aJ/ANG or AJ/DEG ---
	-------------------------------------------------------------------------------
	           Coordinate      Previous         Force          Change          New
	           ----------      --------        ------          ------        ------
	               R(1,2)       1.32782        0.00067        0.00009       1.32790
	-------------------------------------------------------------------------------

	                                 ==> Convergence Check <==

	Measures of convergence in internal coordinates in au.

	Criteria marked as inactive (o), active & met (*), and active & unmet ( ).

	----------------------------------------------------------------------------------------------
	   Step    Total Energy     Delta E     Max Force     RMS Force      Max Disp      RMS Disp
	----------------------------------------------------------------------------------------------
	  Convergence Criteria     1.00e-06 *    3.00e-04 *             o    1.20e-03 *             o
	----------------------------------------------------------------------------------------------
	     7    -108.73296288   -4.24e-07 *    8.11e-05 *    8.11e-05 o    1.61e-04 *    1.61e-04 o  ~
	----------------------------------------------------------------------------------------------

Next Geometry in Ang
	Fragment 1 (Ang)

	    N  -0.0000000000   0.6639505464   0.0000000000
	    N   0.0000000000  -0.6639505464   0.0000000000

    Final optimized geometry and variables:
    Molecular point group: d2h
    Full point group: D_inf_h

    Geometry (in Angstrom), charge = 1, multiplicity = 4:

    N           -0.000000000000     0.663907891437     0.000000000000
    N            0.000000000000    -0.663907891437     0.000000000000

    Psi4 stopped on: Thursday, 17 July 2025 01:47PM
    Psi4 wall time for execution: 0:00:05.80

*** Psi4 exiting successfully. Buy a developer a beer!
