                               Psi4 1.9.1 release

  ==> Input File <==

--------------------------------------------------------------------------
molecule {
1 4
Be   0.00000        0.60000        0.00000
Si   0.00000       -0.60000        0.00000
}

set {
basis              cc-pvdz
reference          uks
maxiter            500
geom_maxiter       500
DAMPING_PERCENTAGE 1
guess              SAP
}

optimize('b3lyp')
--------------------------------------------------------------------------

    Molecular point group: c2v
  Charge       = 1
  Multiplicity = 4
  Basis Set: CC-PVDZ
    Blend: CC-PVDZ
  Basis Set: (CC-PVDZ AUX)
    Blend: CC-PVDZ-JKFIT + DEF2-UNIVERSAL-JKFIT
  @DF-UKS Final Energy:  -303.29521146166940
    Total Energy =                       -303.2952114616693393
 Dipole X            :          0.0000000            0.0000000            0.0000000
 Dipole Y            :          0.0000000            0.0000000            0.0000000
 Dipole Z            :          1.5500144           -0.8744053            0.6756091
 Magnitude           :                                                    0.6756091
    Molecular point group: c2v
  Basis Set: CC-PVDZ
    Blend: CC-PVDZ
  Basis Set: (CC-PVDZ AUX)
    Blend: CC-PVDZ-JKFIT + DEF2-UNIVERSAL-JKFIT
  Basis Set: CC-PVDZ
    Blend: CC-PVDZ
  Basis Set: (CC-PVDZ AUX)
    Blend: CC-PVDZ-JKFIT + DEF2-UNIVERSAL-JKFIT
  @DF-UKS Final Energy:  -303.49177776188361
    Total Energy =                       -303.4917777618836681
  Basis Set: CC-PVDZ
    Blend: CC-PVDZ
  Basis Set: (CC-PVDZ AUX)
    Blend: CC-PVDZ-JKFIT + DEF2-UNIVERSAL-JKFIT
  Basis Set: CC-PVDZ
    Blend: CC-PVDZ
  @DF-UKS Final Energy:  -303.65334086940862
    Total Energy =                       -303.6533408694086233
  @DF-UKS Final Energy:  -303.74615995364093
    Total Energy =                       -303.7461599536409267
  @DF-UKS Final Energy:  -303.78109699991290
    Total Energy =                       -303.7810969999129043
  @DF-UKS Final Energy:  -303.79295346756220
    Total Energy =                       -303.7929534675621994
  @DF-UKS Final Energy:  -303.79542066254089
    Total Energy =                       -303.7954206625408915
  @DF-UKS Final Energy:  -303.79614281469355
    Total Energy =                       -303.7961428146935532
  @DF-UKS Final Energy:  -303.79624015177677
    Total Energy =                       -303.7962401517768285
  @DF-UKS Final Energy:  -303.79625445941173
    Total Energy =                       -303.7962544594117276
  Basis Set: (CC-PVDZ AUX)
    Blend: CC-PVDZ-JKFIT + DEF2-UNIVERSAL-JKFIT
  Basis Set: CC-PVDZ
    Blend: CC-PVDZ
  Basis Set: (CC-PVDZ AUX)
    Blend: CC-PVDZ-JKFIT + DEF2-UNIVERSAL-JKFIT
  @DF-UKS Final Energy:  -303.79625691497910
    Total Energy =                       -303.7962569149790397
  Basis Set: CC-PVDZ
    Blend: CC-PVDZ
  Basis Set: (CC-PVDZ AUX)
    Blend: CC-PVDZ-JKFIT + DEF2-UNIVERSAL-JKFIT
  Charge       = 1
  Multiplicity = 4
  Basis Set: CC-PVDZ
    Blend: CC-PVDZ
  Basis Set: (CC-PVDZ AUX)
    Blend: CC-PVDZ-JKFIT + DEF2-UNIVERSAL-JKFIT

    Orbital Energies [Eh]
    ---------------------

    Alpha Occupied:

       1A1   -66.415134     2A1    -5.556660     3A1    -4.405958
       4A1    -3.916151     1B2    -3.915614     1B1    -3.915614
       5A1    -0.732571     6A1    -0.518238     2B1    -0.438846
       2B2    -0.438846

    Alpha Virtual:

       7A1    -0.356407     3B1    -0.265661     3B2    -0.265661
       8A1    -0.105083     9A1    -0.070927     4B1    -0.026019
       4B2    -0.026019    10A1    -0.011455    11A1     0.089784
       1A2     0.089785    12A1     0.093460     5B1     0.095087
       5B2     0.095087     6B2     0.146538     6B1     0.146538
      13A1     0.247451    14A1     0.256978     2A2     0.256978
      15A1     0.435891     7B2     0.457261     7B1     0.457261
      16A1     0.662629

    Beta Occupied:

       1A1   -66.407751     2A1    -5.547765     3A1    -4.394230
       4A1    -3.906147     1B2    -3.903425     1B1    -3.903425
       5A1    -0.651711

    Beta Virtual:

       6A1    -0.396581     2B1    -0.325817     2B2    -0.325817
       7A1    -0.318497     3B1    -0.203721     3B2    -0.203721
       8A1    -0.087695     9A1    -0.023449     4B1    -0.005536
       4B2    -0.005536    10A1    -0.003090    11A1     0.127874
       5B2     0.137089     5B1     0.137089    12A1     0.157327
       1A2     0.157327     6B2     0.191888     6B1     0.191888
      13A1     0.272949    14A1     0.314430     2A2     0.314430
      15A1     0.475418     7B2     0.506033     7B1     0.506033
      16A1     0.697549

    Final Occupation by Irrep:
             A1    A2    B1    B2
    DOCC [     5,    0,    1,    1 ]
    SOCC [     1,    0,    1,    1 ]
    NA   [     6,    0,    2,    2 ]
    NB   [     5,    0,    1,    1 ]

  @DF-UKS Final Energy:  -303.79625704694161

   => Energetics <=

    Nuclear Repulsion Energy =             14.5965860331747237
    One-Electron Energy =                -444.3307106921404284
    Two-Electron Energy =                 144.8354622591687360
    DFT Exchange-Correlation Energy =     -18.8975946471445901
    Empirical Dispersion Energy =           0.0000000000000000
    VV10 Nonlocal Energy =                  0.0000000000000000
    Total Energy =                       -303.7962570469416050

  UHF NO Occupations:
  HONO-2 :    2 B2 1.0000000
  HONO-1 :    2 B1 1.0000000
  HONO-0 :    6 A1 1.0000000
  LUNO+0 :    7 A1 0.0009539
  LUNO+1 :    8 A1 0.0000003
  LUNO+2 :    9 A1 0.0000002
  LUNO+3 :    3 B2 0.0000002

Computation Completed

Properties will be evaluated at   0.000000,   0.000000,   0.000000 [a0]

Properties computed using the SCF density matrix

 Multipole Moments:

 ------------------------------------------------------------------------------------
     Multipole            Electronic (a.u.)      Nuclear  (a.u.)        Total (a.u.)
 ------------------------------------------------------------------------------------

 L = 1.  Multiply by 2.5417464519 to convert [e a0] to [Debye]
 Dipole X            :          0.0000000            0.0000000            0.0000000
 Dipole Y            :          0.0000000            0.0000000            0.0000000
 Dipole Z            :          3.2003591           -1.4793447            1.7210144
 Magnitude           :                                                    1.7210144

 ------------------------------------------------------------------------------------

*** tstop() called on Joses-MacBook-Pro-2.local at Thu Jul 17 13:23:10 2025
Module time:
	user time   =       2.15 seconds =       0.04 minutes
	system time =       4.35 seconds =       0.07 minutes
	total time  =          0 seconds =       0.00 minutes
Total time:
	user time   =      40.54 seconds =       0.68 minutes
	system time =      77.62 seconds =       1.29 minutes
	total time  =         11 seconds =       0.18 minutes

*** tstart() called on Joses-MacBook-Pro-2.local
*** at Thu Jul 17 13:23:10 2025

         ------------------------------------------------------------
                                   SCF GRAD
                          Rob Parrish, Justin Turney,
                       Andy Simmonett, and Alex Sokolov
         ------------------------------------------------------------

  ==> Geometry <==

    Molecular point group: c2v
    Full point group: C_inf_v

    Geometry (in Angstrom), charge = 1, multiplicity = 4:

       Center              X                  Y                   Z               Mass
    ------------   -----------------  -----------------  -----------------  -----------------
         BE           0.000000000000     0.000000000000     1.535550110866     9.012183065000
         SI           0.000000000000     0.000000000000    -0.494645424595    27.976926534650

  Nuclear repulsion =   14.596586033174724

  ==> Basis Set <==

  Basis Set: CC-PVDZ
    Blend: CC-PVDZ
    Number of shells: 14
    Number of basis functions: 32
    Number of Cartesian functions: 34
    Spherical Harmonics?: true
    Max angular momentum: 2

  ==> DFJKGrad: Density-Fitted SCF Gradients <==

    Gradient:                    1
    J tasked:                  Yes
    K tasked:                  Yes
    wK tasked:                  No
    OpenMP threads:              1
    Integrals threads:           1
    Memory [MiB]:              375
    Schwarz Cutoff:          1E-12
    Fitting Condition:       1E-10

   => Auxiliary Basis Set <=

  Basis Set: (CC-PVDZ AUX)
    Blend: CC-PVDZ-JKFIT + DEF2-UNIVERSAL-JKFIT
    Number of shells: 53
    Number of basis functions: 163
    Number of Cartesian functions: 190
    Spherical Harmonics?: true
    Max angular momentum: 3

  ==> DFT Potential <==

   => LibXC <=

    Version 6.2.2
    S. Lehtola, C. Steigemann, M. J.T. Oliveira, and M. A.L. Marques.,  SoftwareX 7, 1â€“5 (2018) (10.1016/j.softx.2017.11.002)

   => Composite Functional: B3LYP <=

    B3LYP Hyb-GGA Exchange-Correlation Functional

    P. J. Stephens, F. J. Devlin, C. F. Chabalowski, and M. J. Frisch.,  J. Phys. Chem. 98, 11623 (1994) (10.1021/j100096a001)

    Deriv               =              1
    GGA                 =           TRUE
    Meta                =          FALSE

    Exchange Hybrid     =           TRUE
    MP2 Hybrid          =          FALSE

   => Exchange Functionals <=

    0.0800   Slater exchange
    0.7200         Becke 88

   => Exact (HF) Exchange <=

    0.2000               HF

   => Correlation Functionals <=

    0.1900   Vosko, Wilk & Nusair (VWN5_RPA)
    0.8100   Lee, Yang & Parr

   => LibXC Density Thresholds  <==

    XC_HYB_GGA_XC_B3LYP:  1.00E-15

   => Molecular Quadrature <=

    Radial Scheme          =       TREUTLER
    Pruning Scheme         =           NONE
    Nuclear Scheme         =       TREUTLER

    Blocking Scheme        =         OCTREE
    BS radius alpha        =              1
    Pruning alpha          =              1
    Radial Points          =             75
    Spherical Points       =            302
    Total Points           =          42478
    Total Blocks           =            394
    Max Points             =            255
    Max Functions          =             32
    Weights Tolerance      =       1.00E-15

  -Total Gradient:
     Atom            X                  Y                   Z
    ------   -----------------  -----------------  -----------------
       1        0.000000000000    -0.000000000000    -0.000026778185
       2        0.000000000000    -0.000000000000     0.000017206150

*** tstop() called on Joses-MacBook-Pro-2.local at Thu Jul 17 13:23:11 2025
Module time:
	user time   =       0.73 seconds =       0.01 minutes
	system time =       1.93 seconds =       0.03 minutes
	total time  =          1 seconds =       0.02 minutes
Total time:
	user time   =      41.27 seconds =       0.69 minutes
	system time =      79.55 seconds =       1.33 minutes
	total time  =         12 seconds =       0.20 minutes

    			-----------------------------------------

    			 OPTKING 3.0: for geometry optimizations

    			     By R.A. King, Bethel University

    			        with contributions from

    			    A.V. Copan, J. Cayton, A. Heide

    			-----------------------------------------

	                            ===> Fragment 1 <==

	 Z (Atomic Numbers)          Masses                          Geom
	       4.000000             9.012183          0.00000000  0.00000000  2.90176916
	      14.000000            27.976927          0.00000000  0.00000000 -0.93474438

	 - Coordinate -           - BOHR/RAD -       - ANG/DEG -
	 R(1,2)           =         3.836514           2.030196

	        --- Internal Coordinate Step in ANG or DEG, aJ/ANG or AJ/DEG ---
	-------------------------------------------------------------------------------
	           Coordinate      Previous         Force          Change          New
	           ----------      --------        ------          ------        ------
	               R(1,2)       2.03020        0.00018        0.00010       2.03029
	-------------------------------------------------------------------------------

	                                 ==> Convergence Check <==

	Measures of convergence in internal coordinates in au.

	Criteria marked as inactive (o), active & met (*), and active & unmet ( ).

	----------------------------------------------------------------------------------------------
	   Step    Total Energy     Delta E     Max Force     RMS Force      Max Disp      RMS Disp
	----------------------------------------------------------------------------------------------
	  Convergence Criteria     1.00e-06 *    3.00e-04 *             o    1.20e-03 *             o
	----------------------------------------------------------------------------------------------
	    12    -303.79625705   -1.32e-07 *    2.20e-05 *    2.20e-05 o    1.80e-04 *    1.80e-04 o  ~
	----------------------------------------------------------------------------------------------

Next Geometry in Ang
	Fragment 1 (Ang)

	   Be   0.0000000000   0.0000000000   1.5355977952
	   Si   0.0000000000   0.0000000000  -0.4946931089

    Final optimized geometry and variables:
    Molecular point group: c2v
    Full point group: C_inf_v

    Geometry (in Angstrom), charge = 1, multiplicity = 4:

    BE           0.000000000000     0.000000000000     1.535550110866
    SI           0.000000000000     0.000000000000    -0.494645424595

    Psi4 stopped on: Thursday, 17 July 2025 01:23PM
    Psi4 wall time for execution: 0:00:12.27

*** Psi4 exiting successfully. Buy a developer a beer!
