                               Psi4 1.9.1 release

  ==> Input File <==

--------------------------------------------------------------------------
molecule {
1 4
H   0.00000        0.60000        0.00000
Na   0.00000       -0.60000        0.00000
}

set {
basis              cc-pvdz
reference          uks
maxiter            500
geom_maxiter       500
DAMPING_PERCENTAGE 1
guess              SAP
}

optimize('b3lyp')
--------------------------------------------------------------------------

    Molecular point group: c2v
  Charge       = 1
  Multiplicity = 4
  Basis Set: CC-PVDZ
    Blend: CC-PVDZ
  Basis Set: (CC-PVDZ AUX)
    Blend: CC-PVDZ-JKFIT + DEF2-UNIVERSAL-JKFIT
  @DF-UKS Final Energy:  -161.10165564702942
    Total Energy =                       -161.1016556470294177
 Dipole X            :          0.0000000            0.0000000            0.0000000
 Dipole Y            :          0.0000000            0.0000000            0.0000000
 Dipole Z            :          0.0480682            1.1248488            1.1729170
 Magnitude           :                                                    1.1729170
    Molecular point group: c2v
  Basis Set: CC-PVDZ
    Blend: CC-PVDZ
  Basis Set: (CC-PVDZ AUX)
    Blend: CC-PVDZ-JKFIT + DEF2-UNIVERSAL-JKFIT
  Basis Set: CC-PVDZ
    Blend: CC-PVDZ
  Basis Set: (CC-PVDZ AUX)
    Blend: CC-PVDZ-JKFIT + DEF2-UNIVERSAL-JKFIT
  @DF-UKS Final Energy:  -161.18292563035470
    Total Energy =                       -161.1829256303547595
  Basis Set: CC-PVDZ
    Blend: CC-PVDZ
  Basis Set: (CC-PVDZ AUX)
    Blend: CC-PVDZ-JKFIT + DEF2-UNIVERSAL-JKFIT
  Basis Set: CC-PVDZ
    Blend: CC-PVDZ
  @DF-UKS Final Energy:  -161.20318798476313
    Total Energy =                       -161.2031879847631330
  @DF-UKS Final Energy:  -161.22650616071846
    Total Energy =                       -161.2265061607184577
  @DF-UKS Final Energy:  -161.24852250292292
    Total Energy =                       -161.2485225029229525
  @DF-UKS Final Energy:  -161.25269954115450
    Total Energy =                       -161.2526995411544704
  @DF-UKS Final Energy:  -161.26062209580780
    Total Energy =                       -161.2606220958078325
  @DF-UKS Final Energy:  -161.26151458733929
    Total Energy =                       -161.2615145873392919
  @DF-UKS Final Energy:  -161.26439943239416
    Total Energy =                       -161.2643994323941570
  @DF-UKS Final Energy:  -161.26537798415862
    Total Energy =                       -161.2653779841586186
  @DF-UKS Final Energy:  -161.26579223032780
    Total Energy =                       -161.2657922303278042
  @DF-UKS Final Energy:  -161.26593015335183
    Total Energy =                       -161.2659301533518033
  @DF-UKS Final Energy:  -161.26596740276824
    Total Energy =                       -161.2659674027682399
  @DF-UKS Final Energy:  -161.26597308706002
    Total Energy =                       -161.2659730870600185
  Basis Set: (CC-PVDZ AUX)
    Blend: CC-PVDZ-JKFIT + DEF2-UNIVERSAL-JKFIT
  Basis Set: CC-PVDZ
    Blend: CC-PVDZ
  Basis Set: (CC-PVDZ AUX)
    Blend: CC-PVDZ-JKFIT + DEF2-UNIVERSAL-JKFIT
  @DF-UKS Final Energy:  -161.26597417427374
    Total Energy =                       -161.2659741742737083
  Basis Set: CC-PVDZ
    Blend: CC-PVDZ
  Basis Set: (CC-PVDZ AUX)
    Blend: CC-PVDZ-JKFIT + DEF2-UNIVERSAL-JKFIT
  Charge       = 1
  Multiplicity = 4
  Basis Set: CC-PVDZ
    Blend: CC-PVDZ
  Basis Set: (CC-PVDZ AUX)
    Blend: CC-PVDZ-JKFIT + DEF2-UNIVERSAL-JKFIT

    Orbital Energies [Eh]
    ---------------------

    Alpha Occupied:

       1A1   -40.015781     2A1    -3.294036     1B1    -2.307593
       1B2    -2.187764     3A1    -2.187761     4A1    -0.487711
       5A1    -0.423980

    Alpha Virtual:

       2B1    -0.255123     2B2    -0.248677     6A1    -0.241424
       7A1    -0.095322     3B1    -0.085114     8A1    -0.083979
       1A2    -0.083290     3B2    -0.081684     9A1    -0.081518
       4B1    -0.073960     4B2    -0.073000    10A1    -0.052803
      11A1     0.354843     5B1     1.053111     5B2     1.053133
      12A1     1.086374

    Beta Occupied:

       1A1   -39.972451     2A1    -3.175095     1B2    -2.142711
       3A1    -2.142671

    Beta Virtual:

       1B1    -1.906824     4A1    -0.348237     5A1    -0.235349
       2B2    -0.212284     2B1    -0.207952     6A1    -0.161172
       7A1    -0.082092     8A1    -0.071837     3B2    -0.069270
       3B1    -0.066516     4B2    -0.051243     4B1    -0.049856
       1A2    -0.047156     9A1    -0.044743    10A1    -0.005204
      11A1     0.551288     5B1     1.297607     5B2     1.299109
      12A1     1.322605

    Final Occupation by Irrep:
             A1    A2    B1    B2
    DOCC [     3,    0,    0,    1 ]
    SOCC [     2,    0,    1,    0 ]
    NA   [     5,    0,    1,    1 ]
    NB   [     3,    0,    0,    1 ]

  @DF-UKS Final Energy:  -161.26597442200341

   => Energetics <=

    Nuclear Repulsion Energy =              1.6869920887842533
    One-Electron Energy =                -219.6345332155908068
    Two-Electron Energy =                  67.7515611642482440
    DFT Exchange-Correlation Energy =     -11.0699944594451143
    Empirical Dispersion Energy =           0.0000000000000000
    VV10 Nonlocal Energy =                  0.0000000000000000
    Total Energy =                       -161.2659744220034383

  UHF NO Occupations:
  HONO-2 :    4 A1 1.0000000
  HONO-1 :    1 B1 1.0000000
  HONO-0 :    5 A1 1.0000000
  LUNO+0 :    6 A1 0.0000012
  LUNO+1 :    2 B2 0.0000011
  LUNO+2 :    7 A1 0.0000009
  LUNO+3 :    8 A1 0.0000000

Computation Completed

Properties will be evaluated at   0.000000,   0.000000,   0.000000 [a0]

Properties computed using the SCF density matrix

 Multipole Moments:

 ------------------------------------------------------------------------------------
     Multipole            Electronic (a.u.)      Nuclear  (a.u.)        Total (a.u.)
 ------------------------------------------------------------------------------------

 L = 1.  Multiply by 2.5417464519 to convert [e a0] to [Debye]
 Dipole X            :          0.0000000            0.0000000            0.0000000
 Dipole Y            :          0.0000000            0.0000000            0.0000000
 Dipole Z            :         -3.2625845            3.2343997           -0.0281848
 Magnitude           :                                                    0.0281848

 ------------------------------------------------------------------------------------

*** tstop() called on Joses-MacBook-Pro-2.local at Thu Jul 17 12:21:23 2025
Module time:
	user time   =       1.97 seconds =       0.03 minutes
	system time =       2.56 seconds =       0.04 minutes
	total time  =          0 seconds =       0.00 minutes
Total time:
	user time   =      44.08 seconds =       0.73 minutes
	system time =      74.59 seconds =       1.24 minutes
	total time  =         11 seconds =       0.18 minutes

*** tstart() called on Joses-MacBook-Pro-2.local
*** at Thu Jul 17 12:21:23 2025

         ------------------------------------------------------------
                                   SCF GRAD
                          Rob Parrish, Justin Turney,
                       Andy Simmonett, and Alex Sokolov
         ------------------------------------------------------------

  ==> Geometry <==

    Molecular point group: c2v
    Full point group: C_inf_v

    Geometry (in Angstrom), charge = 1, multiplicity = 4:

       Center              X                  Y                   Z               Mass
    ------------   -----------------  -----------------  -----------------  -----------------
         H            0.000000000000     0.000000000000     3.305580041312     1.007825032230
         NA           0.000000000000     0.000000000000    -0.144909949761    22.989769282000

  Nuclear repulsion =    1.686992088784253

  ==> Basis Set <==

  Basis Set: CC-PVDZ
    Blend: CC-PVDZ
    Number of shells: 11
    Number of basis functions: 23
    Number of Cartesian functions: 24
    Spherical Harmonics?: true
    Max angular momentum: 2

  ==> DFJKGrad: Density-Fitted SCF Gradients <==

    Gradient:                    1
    J tasked:                  Yes
    K tasked:                  Yes
    wK tasked:                  No
    OpenMP threads:              1
    Integrals threads:           1
    Memory [MiB]:              375
    Schwarz Cutoff:          1E-12
    Fitting Condition:       1E-10

   => Auxiliary Basis Set <=

  Basis Set: (CC-PVDZ AUX)
    Blend: CC-PVDZ-JKFIT + DEF2-UNIVERSAL-JKFIT
    Number of shells: 43
    Number of basis functions: 135
    Number of Cartesian functions: 162
    Spherical Harmonics?: true
    Max angular momentum: 4

  ==> DFT Potential <==

   => LibXC <=

    Version 6.2.2
    S. Lehtola, C. Steigemann, M. J.T. Oliveira, and M. A.L. Marques.,  SoftwareX 7, 1â€“5 (2018) (10.1016/j.softx.2017.11.002)

   => Composite Functional: B3LYP <=

    B3LYP Hyb-GGA Exchange-Correlation Functional

    P. J. Stephens, F. J. Devlin, C. F. Chabalowski, and M. J. Frisch.,  J. Phys. Chem. 98, 11623 (1994) (10.1021/j100096a001)

    Deriv               =              1
    GGA                 =           TRUE
    Meta                =          FALSE

    Exchange Hybrid     =           TRUE
    MP2 Hybrid          =          FALSE

   => Exchange Functionals <=

    0.0800   Slater exchange
    0.7200         Becke 88

   => Exact (HF) Exchange <=

    0.2000               HF

   => Correlation Functionals <=

    0.1900   Vosko, Wilk & Nusair (VWN5_RPA)
    0.8100   Lee, Yang & Parr

   => LibXC Density Thresholds  <==

    XC_HYB_GGA_XC_B3LYP:  1.00E-15

   => Molecular Quadrature <=

    Radial Scheme          =       TREUTLER
    Pruning Scheme         =           NONE
    Nuclear Scheme         =       TREUTLER

    Blocking Scheme        =         OCTREE
    BS radius alpha        =              1
    Pruning alpha          =              1
    Radial Points          =             75
    Spherical Points       =            302
    Total Points           =          43883
    Total Blocks           =            411
    Max Points             =            256
    Max Functions          =             23
    Weights Tolerance      =       1.00E-15

  -Total Gradient:
     Atom            X                  Y                   Z
    ------   -----------------  -----------------  -----------------
       1       -0.000000000000     0.000000000000    -0.000009823703
       2        0.000000000000     0.000000000000     0.000008099317

*** tstop() called on Joses-MacBook-Pro-2.local at Thu Jul 17 12:21:23 2025
Module time:
	user time   =       0.73 seconds =       0.01 minutes
	system time =       1.25 seconds =       0.02 minutes
	total time  =          0 seconds =       0.00 minutes
Total time:
	user time   =      44.82 seconds =       0.75 minutes
	system time =      75.84 seconds =       1.26 minutes
	total time  =         11 seconds =       0.18 minutes

    			-----------------------------------------

    			 OPTKING 3.0: for geometry optimizations

    			     By R.A. King, Bethel University

    			        with contributions from

    			    A.V. Copan, J. Cayton, A. Heide

    			-----------------------------------------

	                            ===> Fragment 1 <==

	 Z (Atomic Numbers)          Masses                          Geom
	       1.000000             1.007825          0.00000000  0.00000000  6.24664096
	      11.000000            22.989769          0.00000000  0.00000000 -0.27384012

	 - Coordinate -           - BOHR/RAD -       - ANG/DEG -
	 R(1,2)           =         6.520481           3.450490

	        --- Internal Coordinate Step in ANG or DEG, aJ/ANG or AJ/DEG ---
	-------------------------------------------------------------------------------
	           Coordinate      Previous         Force          Change          New
	           ----------      --------        ------          ------        ------
	               R(1,2)       3.45049        0.00007        0.00363       3.45412
	-------------------------------------------------------------------------------

	                                 ==> Convergence Check <==

	Measures of convergence in internal coordinates in au.

	Criteria marked as inactive (o), active & met (*), and active & unmet ( ).

	----------------------------------------------------------------------------------------------
	   Step    Total Energy     Delta E     Max Force     RMS Force      Max Disp      RMS Disp
	----------------------------------------------------------------------------------------------
	  Convergence Criteria     1.00e-06 *    3.00e-04 *             o    1.20e-03 *             o
	----------------------------------------------------------------------------------------------
	    16    -161.26597442   -2.48e-07 *    8.96e-06 *    8.96e-06 o    6.87e-03      6.87e-03 o  ~
	----------------------------------------------------------------------------------------------

Next Geometry in Ang
	Fragment 1 (Ang)

	    H   0.0000000000   0.0000000000   3.3073969966
	   Na   0.0000000000   0.0000000000  -0.1467269050

    Final optimized geometry and variables:
    Molecular point group: c2v
    Full point group: C_inf_v

    Geometry (in Angstrom), charge = 1, multiplicity = 4:

    H            0.000000000000     0.000000000000     3.305580041312
    NA           0.000000000000     0.000000000000    -0.144909949761

    Psi4 stopped on: Thursday, 17 July 2025 12:21PM
    Psi4 wall time for execution: 0:00:12.54

*** Psi4 exiting successfully. Buy a developer a beer!
