                               Psi4 1.9.1 release

  ==> Input File <==

--------------------------------------------------------------------------
molecule {
1 4
O   0.00000        0.60000        0.00000
Ar   0.00000       -0.60000        0.00000
}

set {
basis              cc-pvdz
reference          uks
maxiter            500
geom_maxiter       500
DAMPING_PERCENTAGE 1
guess              SAP
}

optimize('b3lyp')
--------------------------------------------------------------------------

    Molecular point group: c2v
  Charge       = 1
  Multiplicity = 4
  Basis Set: CC-PVDZ
    Blend: CC-PVDZ
  Basis Set: (CC-PVDZ AUX)
    Blend: CC-PVDZ-JKFIT
  @DF-UKS Final Energy:  -601.60440725023000
    Total Energy =                       -601.6044072502298832
 Dipole X            :          0.0000000            0.0000000            0.0000000
 Dipole Y            :          0.0000000            0.0000000            0.0000000
 Dipole Z            :         -1.2902769            1.2883152           -0.0019617
 Magnitude           :                                                    0.0019617
    Molecular point group: c2v
  Basis Set: CC-PVDZ
    Blend: CC-PVDZ
  Basis Set: (CC-PVDZ AUX)
    Blend: CC-PVDZ-JKFIT
  Basis Set: CC-PVDZ
    Blend: CC-PVDZ
  Basis Set: (CC-PVDZ AUX)
    Blend: CC-PVDZ-JKFIT
  @DF-UKS Final Energy:  -601.80001007395629
    Total Energy =                       -601.8000100739562868
  Basis Set: CC-PVDZ
    Blend: CC-PVDZ
  Basis Set: (CC-PVDZ AUX)
    Blend: CC-PVDZ-JKFIT
  Basis Set: CC-PVDZ
    Blend: CC-PVDZ
  @DF-UKS Final Energy:  -601.95557992278418
    Total Energy =                       -601.9555799227841817
  @DF-UKS Final Energy:  -602.06555301688388
    Total Energy =                       -602.0655530168838823
  @DF-UKS Final Energy:  -602.11999253906879
    Total Energy =                       -602.1199925390687895
  @DF-UKS Final Energy:  -602.14083068647665
    Total Energy =                       -602.1408306864767610
  @DF-UKS Final Energy:  -602.14897196080165
    Total Energy =                       -602.1489719608016458
  @DF-UKS Final Energy:  -602.15155259004825
    Total Energy =                       -602.1515525900482544
  @DF-UKS Final Energy:  -602.15204989815754
    Total Energy =                       -602.1520498981575429
  @DF-UKS Final Energy:  -602.15218588504513
    Total Energy =                       -602.1521858850451281
  @DF-UKS Final Energy:  -602.15220195513280
    Total Energy =                       -602.1522019551327958
  Basis Set: (CC-PVDZ AUX)
    Blend: CC-PVDZ-JKFIT
  Basis Set: CC-PVDZ
    Blend: CC-PVDZ
  Basis Set: (CC-PVDZ AUX)
    Blend: CC-PVDZ-JKFIT
  @DF-UKS Final Energy:  -602.15220403525507
    Total Energy =                       -602.1522040352550675
  Basis Set: CC-PVDZ
    Blend: CC-PVDZ
  Basis Set: (CC-PVDZ AUX)
    Blend: CC-PVDZ-JKFIT
  Charge       = 1
  Multiplicity = 4
  Basis Set: CC-PVDZ
    Blend: CC-PVDZ
  Basis Set: (CC-PVDZ AUX)
    Blend: CC-PVDZ-JKFIT

    Orbital Energies [Eh]
    ---------------------

    Alpha Occupied:

       1A1  -115.437339     2A1   -19.790176     3A1   -11.470768
       4A1    -9.029240     1B2    -9.017983     1B1    -9.017983
       5A1    -1.476770     6A1    -1.289574     2B2    -0.889320
       2B1    -0.889320     7A1    -0.883523     8A1    -0.731520
       3B1    -0.725765     3B2    -0.725765

    Alpha Virtual:

       4B2     0.294452     4B1     0.294452     9A1     0.330948
      10A1     0.350333     5B1     0.438241     5B2     0.438241
      11A1     0.460059    12A1     0.528966     1A2     0.528967
       6B1     0.553169     6B2     0.553169    13A1     0.594706
      14A1     1.016215     2A2     2.009568    15A1     2.009592
       7B2     2.029426     7B1     2.029426    16A1     2.081969

    Beta Occupied:

       1A1  -115.433114     2A1   -19.718000     3A1   -11.466788
       4A1    -9.017416     1B2    -9.014915     1B1    -9.014915
       5A1    -1.285671     6A1    -1.241203     7A1    -0.744027
       2B1    -0.717227     2B2    -0.717227

    Beta Virtual:

       3B2    -0.572232     3B1    -0.572232     8A1    -0.570104
       4B2     0.310357     4B1     0.310357     9A1     0.354976
      10A1     0.396726    11A1     0.486651     5B1     0.498292
       5B2     0.498292    12A1     0.536556     1A2     0.536557
       6B1     0.621701     6B2     0.621701    13A1     0.674771
      14A1     1.091596     7B2     2.180415     7B1     2.180415
       2A2     2.190716    15A1     2.190744    16A1     2.222428

    Final Occupation by Irrep:
             A1    A2    B1    B2
    DOCC [     7,    0,    2,    2 ]
    SOCC [     1,    0,    1,    1 ]
    NA   [     8,    0,    3,    3 ]
    NB   [     7,    0,    2,    2 ]

  @DF-UKS Final Energy:  -602.15220435478545

   => Energetics <=

    Nuclear Repulsion Energy =             33.0277225847624436
    One-Electron Energy =                -888.2576284401470730
    Two-Electron Energy =                 284.4865578535856230
    DFT Exchange-Correlation Energy =     -31.4088563529863478
    Empirical Dispersion Energy =           0.0000000000000000
    VV10 Nonlocal Energy =                  0.0000000000000000
    Total Energy =                       -602.1522043547854537

  UHF NO Occupations:
  HONO-2 :    3 B2 1.0000000
  HONO-1 :    3 B1 1.0000000
  HONO-0 :    8 A1 1.0000000
  LUNO+0 :    9 A1 0.0013751
  LUNO+1 :   10 A1 0.0007315
  LUNO+2 :   11 A1 0.0000907
  LUNO+3 :    4 B2 0.0000896

Computation Completed

Properties will be evaluated at   0.000000,   0.000000,   0.000000 [a0]

Properties computed using the SCF density matrix

 Multipole Moments:

 ------------------------------------------------------------------------------------
     Multipole            Electronic (a.u.)      Nuclear  (a.u.)        Total (a.u.)
 ------------------------------------------------------------------------------------

 L = 1.  Multiply by 2.5417464519 to convert [e a0] to [Debye]
 Dipole X            :          0.0000000            0.0000000            0.0000000
 Dipole Y            :          0.0000000            0.0000000            0.0000000
 Dipole Z            :         -1.2209897            2.4769993            1.2560096
 Magnitude           :                                                    1.2560096

 ------------------------------------------------------------------------------------

*** tstop() called on Joses-MacBook-Pro-2.local at Thu Jul 17 14:24:23 2025
Module time:
	user time   =       3.83 seconds =       0.06 minutes
	system time =       3.13 seconds =       0.05 minutes
	total time  =          0 seconds =       0.00 minutes
Total time:
	user time   =      66.27 seconds =       1.10 minutes
	system time =      69.46 seconds =       1.16 minutes
	total time  =         13 seconds =       0.22 minutes

*** tstart() called on Joses-MacBook-Pro-2.local
*** at Thu Jul 17 14:24:23 2025

         ------------------------------------------------------------
                                   SCF GRAD
                          Rob Parrish, Justin Turney,
                       Andy Simmonett, and Alex Sokolov
         ------------------------------------------------------------

  ==> Geometry <==

    Molecular point group: c2v
    Full point group: C_inf_v

    Geometry (in Angstrom), charge = 1, multiplicity = 4:

       Center              X                  Y                   Z               Mass
    ------------   -----------------  -----------------  -----------------  -----------------
         O            0.000000000000     0.000000000000     1.647705693047    15.994914619570
         AR           0.000000000000     0.000000000000    -0.659492998625    39.962383123700

  Nuclear repulsion =   33.027722584762444

  ==> Basis Set <==

  Basis Set: CC-PVDZ
    Blend: CC-PVDZ
    Number of shells: 14
    Number of basis functions: 32
    Number of Cartesian functions: 34
    Spherical Harmonics?: true
    Max angular momentum: 2

  ==> DFJKGrad: Density-Fitted SCF Gradients <==

    Gradient:                    1
    J tasked:                  Yes
    K tasked:                  Yes
    wK tasked:                  No
    OpenMP threads:              1
    Integrals threads:           1
    Memory [MiB]:              375
    Schwarz Cutoff:          1E-12
    Fitting Condition:       1E-10

   => Auxiliary Basis Set <=

  Basis Set: (CC-PVDZ AUX)
    Blend: CC-PVDZ-JKFIT
    Number of shells: 60
    Number of basis functions: 182
    Number of Cartesian functions: 211
    Spherical Harmonics?: true
    Max angular momentum: 3

  ==> DFT Potential <==

   => LibXC <=

    Version 6.2.2
    S. Lehtola, C. Steigemann, M. J.T. Oliveira, and M. A.L. Marques.,  SoftwareX 7, 1â€“5 (2018) (10.1016/j.softx.2017.11.002)

   => Composite Functional: B3LYP <=

    B3LYP Hyb-GGA Exchange-Correlation Functional

    P. J. Stephens, F. J. Devlin, C. F. Chabalowski, and M. J. Frisch.,  J. Phys. Chem. 98, 11623 (1994) (10.1021/j100096a001)

    Deriv               =              1
    GGA                 =           TRUE
    Meta                =          FALSE

    Exchange Hybrid     =           TRUE
    MP2 Hybrid          =          FALSE

   => Exchange Functionals <=

    0.0800   Slater exchange
    0.7200         Becke 88

   => Exact (HF) Exchange <=

    0.2000               HF

   => Correlation Functionals <=

    0.1900   Vosko, Wilk & Nusair (VWN5_RPA)
    0.8100   Lee, Yang & Parr

   => LibXC Density Thresholds  <==

    XC_HYB_GGA_XC_B3LYP:  1.00E-15

   => Molecular Quadrature <=

    Radial Scheme          =       TREUTLER
    Pruning Scheme         =           NONE
    Nuclear Scheme         =       TREUTLER

    Blocking Scheme        =         OCTREE
    BS radius alpha        =              1
    Pruning alpha          =              1
    Radial Points          =             75
    Spherical Points       =            302
    Total Points           =          41106
    Total Blocks           =            368
    Max Points             =            255
    Max Functions          =             32
    Weights Tolerance      =       1.00E-15

  -Total Gradient:
     Atom            X                  Y                   Z
    ------   -----------------  -----------------  -----------------
       1        0.000000000000     0.000000000000    -0.000028114192
       2        0.000000000000     0.000000000000     0.000033338488

*** tstop() called on Joses-MacBook-Pro-2.local at Thu Jul 17 14:24:24 2025
Module time:
	user time   =       0.69 seconds =       0.01 minutes
	system time =       1.89 seconds =       0.03 minutes
	total time  =          1 seconds =       0.02 minutes
Total time:
	user time   =      66.96 seconds =       1.12 minutes
	system time =      71.35 seconds =       1.19 minutes
	total time  =         14 seconds =       0.23 minutes

    			-----------------------------------------

    			 OPTKING 3.0: for geometry optimizations

    			     By R.A. King, Bethel University

    			        with contributions from

    			    A.V. Copan, J. Cayton, A. Heide

    			-----------------------------------------

	                            ===> Fragment 1 <==

	 Z (Atomic Numbers)          Masses                          Geom
	       8.000000            15.994915          0.00000000  0.00000000  3.11371250
	      18.000000            39.962383          0.00000000  0.00000000 -1.24626115

	 - Coordinate -           - BOHR/RAD -       - ANG/DEG -
	 R(1,2)           =         4.359974           2.307199

	        --- Internal Coordinate Step in ANG or DEG, aJ/ANG or AJ/DEG ---
	-------------------------------------------------------------------------------
	           Coordinate      Previous         Force          Change          New
	           ----------      --------        ------          ------        ------
	               R(1,2)       2.30720        0.00025        0.00037       2.30757
	-------------------------------------------------------------------------------

	                                 ==> Convergence Check <==

	Measures of convergence in internal coordinates in au.

	Criteria marked as inactive (o), active & met (*), and active & unmet ( ).

	----------------------------------------------------------------------------------------------
	   Step    Total Energy     Delta E     Max Force     RMS Force      Max Disp      RMS Disp
	----------------------------------------------------------------------------------------------
	  Convergence Criteria     1.00e-06 *    3.00e-04 *             o    1.20e-03 *             o
	----------------------------------------------------------------------------------------------
	    13    -602.15220435   -3.20e-07 *    3.07e-05 *    3.07e-05 o    7.02e-04 *    7.02e-04 o  ~
	----------------------------------------------------------------------------------------------

Next Geometry in Ang
	Fragment 1 (Ang)

	    O   0.0000000000   0.0000000000   1.6478913128
	   Ar   0.0000000000   0.0000000000  -0.6596786183

    Final optimized geometry and variables:
    Molecular point group: c2v
    Full point group: C_inf_v

    Geometry (in Angstrom), charge = 1, multiplicity = 4:

    O            0.000000000000     0.000000000000     1.647705693047
    AR           0.000000000000     0.000000000000    -0.659492998625

    Psi4 stopped on: Thursday, 17 July 2025 02:24PM
    Psi4 wall time for execution: 0:00:13.81

*** Psi4 exiting successfully. Buy a developer a beer!
