                               Psi4 1.9.1 release

  ==> Input File <==

--------------------------------------------------------------------------
molecule {
1 4
Al   0.00000        0.60000        0.00000
Al   0.00000       -0.60000        0.00000
}

set {
basis              cc-pvdz
reference          uks
maxiter            500
geom_maxiter       500
DAMPING_PERCENTAGE 1
guess              SAP
}

optimize('b3lyp')
--------------------------------------------------------------------------

    Molecular point group: d2h
  Charge       = 1
  Multiplicity = 4
  Basis Set: CC-PVDZ
    Blend: CC-PVDZ
  Basis Set: (CC-PVDZ AUX)
    Blend: CC-PVDZ-JKFIT
  @DF-UKS Final Energy:  -483.50230994423919
    Total Energy =                       -483.5023099442391867
 Dipole X            :          0.0000000            0.0000000            0.0000000
 Dipole Y            :          0.0000000            0.0000000            0.0000000
 Dipole Z            :          0.0000000            0.0000000            0.0000000
 Magnitude           :                                                    0.0000000
    Molecular point group: d2h
  Basis Set: CC-PVDZ
    Blend: CC-PVDZ
  Basis Set: (CC-PVDZ AUX)
    Blend: CC-PVDZ-JKFIT
  Basis Set: CC-PVDZ
    Blend: CC-PVDZ
  Basis Set: (CC-PVDZ AUX)
    Blend: CC-PVDZ-JKFIT
  @DF-UKS Final Energy:  -483.51463257007640
    Total Energy =                       -483.5146325700764010
  Basis Set: CC-PVDZ
    Blend: CC-PVDZ
  Basis Set: (CC-PVDZ AUX)
    Blend: CC-PVDZ-JKFIT
  Basis Set: CC-PVDZ
    Blend: CC-PVDZ
  @DF-UKS Final Energy:  -483.53849322270770
    Total Energy =                       -483.5384932227077002
  @DF-UKS Final Energy:  -483.62577888268731
    Total Energy =                       -483.6257788826873139
  @DF-UKS Final Energy:  -484.02729986201132
    Total Energy =                       -484.0272998620113185
  @DF-UKS Final Energy:  -484.26903286077248
    Total Energy =                       -484.2690328607724837
  @DF-UKS Final Energy:  -484.40295735869938
    Total Energy =                       -484.4029573586993820
  @DF-UKS Final Energy:  -484.45656469703567
    Total Energy =                       -484.4565646970356738
  @DF-UKS Final Energy:  -484.47638946217995
    Total Energy =                       -484.4763894621799523
  @DF-UKS Final Energy:  -484.48211006575707
    Total Energy =                       -484.4821100657570696
  @DF-UKS Final Energy:  -484.48301975136548
    Total Energy =                       -484.4830197513654753
  @DF-UKS Final Energy:  -484.48320452256661
    Total Energy =                       -484.4832045225666093
  @DF-UKS Final Energy:  -484.48321839986585
    Total Energy =                       -484.4832183998658479
  Basis Set: (CC-PVDZ AUX)
    Blend: CC-PVDZ-JKFIT
  Basis Set: CC-PVDZ
    Blend: CC-PVDZ
  Basis Set: (CC-PVDZ AUX)
    Blend: CC-PVDZ-JKFIT
  @DF-UKS Final Energy:  -484.48321949011216
    Total Energy =                       -484.4832194901121625
  Basis Set: CC-PVDZ
    Blend: CC-PVDZ
  Basis Set: (CC-PVDZ AUX)
    Blend: CC-PVDZ-JKFIT
  Charge       = 1
  Multiplicity = 4
  Basis Set: CC-PVDZ
    Blend: CC-PVDZ
  Basis Set: (CC-PVDZ AUX)
    Blend: CC-PVDZ-JKFIT

    Orbital Energies [Eh]
    ---------------------

    Alpha Occupied:

       1B2u  -56.333602     1Ag   -56.333601     2Ag    -4.411458
       2B2u   -4.411341     3Ag    -2.965474     3B2u   -2.963721
       1B3u   -2.963523     1B1u   -2.963523     1B1g   -2.963358
       1B3g   -2.963358     4Ag    -0.634202     4B2u   -0.503051
       2B1u   -0.381707     2B3u   -0.381707

    Alpha Virtual:

       5Ag    -0.337918     2B1g   -0.250676     2B3g   -0.250676
       5B2u   -0.133062     6Ag    -0.071056     3B1u   -0.027153
       3B3u   -0.027153     7Ag    -0.006630     8Ag    -0.004712
       1B2g   -0.004712     6B2u    0.011719     4B1u    0.035611
       4B3u    0.035611     3B1g    0.056466     3B3g    0.056466
       7B2u    0.094752     1Au     0.094752     8B2u    0.152951
       9Ag     0.217795     4B3g    0.249422     4B1g    0.249422
       9B2u    0.483906

    Beta Occupied:

       1B2u  -56.328663     1Ag   -56.328662     2Ag    -4.404196
       2B2u   -4.404091     3Ag    -2.961066     3B2u   -2.959287
       1B3u   -2.955096     1B1u   -2.955096     1B1g   -2.954916
       1B3g   -2.954916     4Ag    -0.579026

    Beta Virtual:

       4B2u   -0.400794     5Ag    -0.295444     2B1u   -0.287488
       2B3u   -0.287488     2B1g   -0.194814     2B3g   -0.194814
       5B2u   -0.107333     6Ag    -0.051625     3B1u    0.002097
       3B3u    0.002097     7Ag     0.008515     6B2u    0.039308
       1B2g    0.049943     8Ag     0.049944     4B1u    0.072210
       4B3u    0.072210     3B1g    0.080548     3B3g    0.080548
       1Au     0.147521     7B2u    0.147521     8B2u    0.169737
       9Ag     0.252099     4B3g    0.291238     4B1g    0.291238
       9B2u    0.507947

    Final Occupation by Irrep:
             Ag   B1g   B2g   B3g    Au   B1u   B2u   B3u
    DOCC [     4,    1,    0,    1,    0,    1,    3,    1 ]
    SOCC [     0,    0,    0,    0,    0,    1,    1,    1 ]
    NA   [     4,    1,    0,    1,    0,    2,    4,    2 ]
    NB   [     4,    1,    0,    1,    0,    1,    3,    1 ]

  @DF-UKS Final Energy:  -484.48321958267542

   => Energetics <=

    Nuclear Repulsion Energy =             37.9244835412362278
    One-Electron Energy =                -742.5935355005891552
    Two-Electron Energy =                 249.9985762555441511
    DFT Exchange-Correlation Energy =     -29.8127438788666517
    Empirical Dispersion Energy =           0.0000000000000000
    VV10 Nonlocal Energy =                  0.0000000000000000
    Total Energy =                       -484.4832195826754173

  UHF NO Occupations:
  HONO-2 :    2B1u 1.0000000
  HONO-1 :    4B2u 1.0000000
  HONO-0 :    2B3u 1.0000000
  LUNO+0 :    5 Ag 0.0044274
  LUNO+1 :    2B1g 0.0000006
  LUNO+2 :    2B3g 0.0000006
  LUNO+3 :    5B2u 0.0000004

Computation Completed

Properties will be evaluated at   0.000000,   0.000000,   0.000000 [a0]

Properties computed using the SCF density matrix

 Multipole Moments:

 ------------------------------------------------------------------------------------
     Multipole            Electronic (a.u.)      Nuclear  (a.u.)        Total (a.u.)
 ------------------------------------------------------------------------------------

 L = 1.  Multiply by 2.5417464519 to convert [e a0] to [Debye]
 Dipole X            :          0.0000000            0.0000000            0.0000000
 Dipole Y            :          0.0000000            0.0000000            0.0000000
 Dipole Z            :          0.0000000            0.0000000            0.0000000
 Magnitude           :                                                    0.0000000

 ------------------------------------------------------------------------------------

*** tstop() called on Joses-MacBook-Pro-2.local at Thu Jul 17 15:15:21 2025
Module time:
	user time   =       6.08 seconds =       0.10 minutes
	system time =       2.05 seconds =       0.03 minutes
	total time  =          0 seconds =       0.00 minutes
Total time:
	user time   =     153.29 seconds =       2.55 minutes
	system time =      47.65 seconds =       0.79 minutes
	total time  =         19 seconds =       0.32 minutes

*** tstart() called on Joses-MacBook-Pro-2.local
*** at Thu Jul 17 15:15:21 2025

         ------------------------------------------------------------
                                   SCF GRAD
                          Rob Parrish, Justin Turney,
                       Andy Simmonett, and Alex Sokolov
         ------------------------------------------------------------

  ==> Geometry <==

    Molecular point group: d2h
    Full point group: D_inf_h

    Geometry (in Angstrom), charge = 1, multiplicity = 4:

       Center              X                  Y                   Z               Mass
    ------------   -----------------  -----------------  -----------------  -----------------
         AL          -0.000000000000     1.179066136866     0.000000000000    26.981538530000
         AL           0.000000000000    -1.179066136866     0.000000000000    26.981538530000

  Nuclear repulsion =   37.924483541236228

  ==> Basis Set <==

  Basis Set: CC-PVDZ
    Blend: CC-PVDZ
    Number of shells: 16
    Number of basis functions: 36
    Number of Cartesian functions: 38
    Spherical Harmonics?: true
    Max angular momentum: 2

  ==> DFJKGrad: Density-Fitted SCF Gradients <==

    Gradient:                    1
    J tasked:                  Yes
    K tasked:                  Yes
    wK tasked:                  No
    OpenMP threads:              1
    Integrals threads:           1
    Memory [MiB]:              375
    Schwarz Cutoff:          1E-12
    Fitting Condition:       1E-10

   => Auxiliary Basis Set <=

  Basis Set: (CC-PVDZ AUX)
    Blend: CC-PVDZ-JKFIT
    Number of shells: 72
    Number of basis functions: 224
    Number of Cartesian functions: 260
    Spherical Harmonics?: true
    Max angular momentum: 3

  ==> DFT Potential <==

   => LibXC <=

    Version 6.2.2
    S. Lehtola, C. Steigemann, M. J.T. Oliveira, and M. A.L. Marques.,  SoftwareX 7, 1â€“5 (2018) (10.1016/j.softx.2017.11.002)

   => Composite Functional: B3LYP <=

    B3LYP Hyb-GGA Exchange-Correlation Functional

    P. J. Stephens, F. J. Devlin, C. F. Chabalowski, and M. J. Frisch.,  J. Phys. Chem. 98, 11623 (1994) (10.1021/j100096a001)

    Deriv               =              1
    GGA                 =           TRUE
    Meta                =          FALSE

    Exchange Hybrid     =           TRUE
    MP2 Hybrid          =          FALSE

   => Exchange Functionals <=

    0.0800   Slater exchange
    0.7200         Becke 88

   => Exact (HF) Exchange <=

    0.2000               HF

   => Correlation Functionals <=

    0.1900   Vosko, Wilk & Nusair (VWN5_RPA)
    0.8100   Lee, Yang & Parr

   => LibXC Density Thresholds  <==

    XC_HYB_GGA_XC_B3LYP:  1.00E-15

   => Molecular Quadrature <=

    Radial Scheme          =       TREUTLER
    Pruning Scheme         =           NONE
    Nuclear Scheme         =       TREUTLER

    Blocking Scheme        =         OCTREE
    BS radius alpha        =              1
    Pruning alpha          =              1
    Radial Points          =             75
    Spherical Points       =            302
    Total Points           =          42332
    Total Blocks           =            402
    Max Points             =            253
    Max Functions          =             36
    Weights Tolerance      =       1.00E-15

  -Total Gradient:
     Atom            X                  Y                   Z
    ------   -----------------  -----------------  -----------------
       1        0.000000000000    -0.000017676820    -0.000000000000
       2       -0.000000000000     0.000017676820    -0.000000000000

*** tstop() called on Joses-MacBook-Pro-2.local at Thu Jul 17 15:15:22 2025
Module time:
	user time   =       2.95 seconds =       0.05 minutes
	system time =       1.57 seconds =       0.03 minutes
	total time  =          1 seconds =       0.02 minutes
Total time:
	user time   =     156.24 seconds =       2.60 minutes
	system time =      49.22 seconds =       0.82 minutes
	total time  =         20 seconds =       0.33 minutes

    			-----------------------------------------

    			 OPTKING 3.0: for geometry optimizations

    			     By R.A. King, Bethel University

    			        with contributions from

    			    A.V. Copan, J. Cayton, A. Heide

    			-----------------------------------------

	                            ===> Fragment 1 <==

	 Z (Atomic Numbers)          Masses                          Geom
	      13.000000            26.981539         -0.00000000  2.22811208  0.00000000
	      13.000000            26.981539          0.00000000 -2.22811208  0.00000000

	 - Coordinate -           - BOHR/RAD -       - ANG/DEG -
	 R(1,2)           =         4.456224           2.358132

	        --- Internal Coordinate Step in ANG or DEG, aJ/ANG or AJ/DEG ---
	-------------------------------------------------------------------------------
	           Coordinate      Previous         Force          Change          New
	           ----------      --------        ------          ------        ------
	               R(1,2)       2.35813        0.00015        0.00009       2.35823
	-------------------------------------------------------------------------------

	                                 ==> Convergence Check <==

	Measures of convergence in internal coordinates in au.

	Criteria marked as inactive (o), active & met (*), and active & unmet ( ).

	----------------------------------------------------------------------------------------------
	   Step    Total Energy     Delta E     Max Force     RMS Force      Max Disp      RMS Disp
	----------------------------------------------------------------------------------------------
	  Convergence Criteria     1.00e-06 *    3.00e-04 *             o    1.20e-03 *             o
	----------------------------------------------------------------------------------------------
	    15    -484.48321958   -9.26e-08 *    1.77e-05 *    1.77e-05 o    1.79e-04 *    1.79e-04 o  ~
	----------------------------------------------------------------------------------------------

Next Geometry in Ang
	Fragment 1 (Ang)

	   Al  -0.0000000000   1.1791134265   0.0000000000
	   Al   0.0000000000  -1.1791134265   0.0000000000

    Final optimized geometry and variables:
    Molecular point group: d2h
    Full point group: D_inf_h

    Geometry (in Angstrom), charge = 1, multiplicity = 4:

    AL          -0.000000000000     1.179066136866     0.000000000000
    AL           0.000000000000    -1.179066136866     0.000000000000

    Psi4 stopped on: Thursday, 17 July 2025 03:15PM
    Psi4 wall time for execution: 0:00:20.03

*** Psi4 exiting successfully. Buy a developer a beer!
