                               Psi4 1.9.1 release

  ==> Input File <==

--------------------------------------------------------------------------
molecule {
1 4
Mg   0.00000        0.60000        0.00000
S   0.00000       -0.60000        0.00000
}

set {
basis              cc-pvdz
reference          uks
maxiter            500
geom_maxiter       500
DAMPING_PERCENTAGE 1
guess              SAP
}

optimize('b3lyp')
--------------------------------------------------------------------------

    Molecular point group: c2v
  Charge       = 1
  Multiplicity = 4
  Basis Set: CC-PVDZ
    Blend: CC-PVDZ
  Basis Set: (CC-PVDZ AUX)
    Blend: CC-PVDZ-JKFIT + DEF2-UNIVERSAL-JKFIT
  @DF-UKS Final Energy:  -596.71364194692501
    Total Energy =                       -596.7136419469250086
 Dipole X            :          0.0000000            0.0000000            0.0000000
 Dipole Y            :          0.0000000            0.0000000            0.0000000
 Dipole Z            :         -0.3687536           -0.0038828           -0.3726365
 Magnitude           :                                                    0.3726365
    Molecular point group: c2v
  Basis Set: CC-PVDZ
    Blend: CC-PVDZ
  Basis Set: (CC-PVDZ AUX)
    Blend: CC-PVDZ-JKFIT + DEF2-UNIVERSAL-JKFIT
  Basis Set: CC-PVDZ
    Blend: CC-PVDZ
  Basis Set: (CC-PVDZ AUX)
    Blend: CC-PVDZ-JKFIT + DEF2-UNIVERSAL-JKFIT
  @DF-UKS Final Energy:  -596.73383850088476
    Total Energy =                       -596.7338385008847581
  Basis Set: CC-PVDZ
    Blend: CC-PVDZ
  Basis Set: (CC-PVDZ AUX)
    Blend: CC-PVDZ-JKFIT + DEF2-UNIVERSAL-JKFIT
  Basis Set: CC-PVDZ
    Blend: CC-PVDZ
  @DF-UKS Final Energy:  -596.77263474361075
    Total Energy =                       -596.7726347436106380
  @DF-UKS Final Energy:  -596.91125010251085
    Total Energy =                       -596.9112501025108486
  @DF-UKS Final Energy:  -597.45270535141833
    Total Energy =                       -597.4527053514183308
  @DF-UKS Final Energy:  -597.67523255753372
    Total Energy =                       -597.6752325575337181
  @DF-UKS Final Energy:  -597.79298910240436
    Total Energy =                       -597.7929891024044764
  @DF-UKS Final Energy:  -597.85606204680789
    Total Energy =                       -597.8560620468078923
  @DF-UKS Final Energy:  -597.89054145778823
    Total Energy =                       -597.8905414577882311
  @DF-UKS Final Energy:  -597.90939522845088
    Total Energy =                       -597.9093952284508759
  @DF-UKS Final Energy:  -597.91982039238928
    Total Energy =                       -597.9198203923892834
  @DF-UKS Final Energy:  -597.92554648181238
    Total Energy =                       -597.9255464818123755
  @DF-UKS Final Energy:  -597.92858756135161
    Total Energy =                       -597.9285875613516055
  @DF-UKS Final Energy:  -597.93010382180626
    Total Energy =                       -597.9301038218063695
  @DF-UKS Final Energy:  -597.93079616368573
    Total Energy =                       -597.9307961636858408
  @DF-UKS Final Energy:  -597.93108304824000
    Total Energy =                       -597.9310830482399979
  @DF-UKS Final Energy:  -597.93118292541715
    Total Energy =                       -597.9311829254170334
  @DF-UKS Final Energy:  -597.93121209231253
    Total Energy =                       -597.9312120923124212
  Basis Set: (CC-PVDZ AUX)
    Blend: CC-PVDZ-JKFIT + DEF2-UNIVERSAL-JKFIT
  Basis Set: CC-PVDZ
    Blend: CC-PVDZ
  Basis Set: (CC-PVDZ AUX)
    Blend: CC-PVDZ-JKFIT + DEF2-UNIVERSAL-JKFIT
  @DF-UKS Final Energy:  -597.93121576007616
    Total Energy =                       -597.9312157600761566
  Basis Set: CC-PVDZ
    Blend: CC-PVDZ
  Basis Set: (CC-PVDZ AUX)
    Blend: CC-PVDZ-JKFIT + DEF2-UNIVERSAL-JKFIT
  Charge       = 1
  Multiplicity = 4
  Basis Set: CC-PVDZ
    Blend: CC-PVDZ
  Basis Set: (CC-PVDZ AUX)
    Blend: CC-PVDZ-JKFIT + DEF2-UNIVERSAL-JKFIT

    Orbital Energies [Eh]
    ---------------------

    Alpha Occupied:

       1A1   -89.080641     2A1   -47.163529     3A1    -8.138730
       4A1    -6.108163     1B2    -6.107845     1B1    -6.087998
       5A1    -3.434098     2B2    -2.176966     6A1    -2.176960
       2B1    -2.176929     7A1    -0.868840     8A1    -0.491428
       3B2    -0.474514     9A1    -0.450091     3B1    -0.426022

    Alpha Virtual:

       4B2    -0.252886     4B1    -0.251923    10A1    -0.246020
      11A1    -0.075337    12A1    -0.032080     5B2    -0.029572
       5B1    -0.028538    13A1     0.049200     6B2     0.054823
       6B1     0.055915     1A2     0.057677    14A1     0.057681
       7B2     0.325242    15A1     0.328566     7B1     0.355510
      16A1     0.372128     8B2     0.375286     8B1     0.413661
       2A2     0.414978    17A1     0.422877    18A1     0.454526

    Beta Occupied:

       1A1   -89.069887     2A1   -47.160135     3A1    -8.127730
       4A1    -6.087221     1B2    -6.086322     1B1    -6.081459
       5A1    -3.427847     2B2    -2.172828     2B1    -2.172795
       6A1    -2.172740     7A1    -0.776662     3B1    -0.399348

    Beta Virtual:

       8A1    -0.373698     9A1    -0.323023     3B2    -0.317231
       4B1    -0.214411     4B2    -0.210241    10A1    -0.198729
      11A1    -0.062436    12A1    -0.015848     5B1    -0.015795
       5B2    -0.012861    13A1     0.092261     6B1     0.098515
       1A2     0.099367    14A1     0.099757     6B2     0.099922
       7B1     0.368167    15A1     0.370997     7B2     0.374015
      16A1     0.454243     8B1     0.469729     2A2     0.472445
      17A1     0.477721     8B2     0.481946    18A1     0.507644

    Final Occupation by Irrep:
             A1    A2    B1    B2
    DOCC [     7,    0,    3,    2 ]
    SOCC [     2,    0,    0,    1 ]
    NA   [     9,    0,    3,    3 ]
    NB   [     7,    0,    3,    2 ]

  @DF-UKS Final Energy:  -597.93121625933406

   => Energetics <=

    Nuclear Repulsion Energy =             26.9044319617238834
    One-Electron Energy =                -876.5307266733445886
    Two-Electron Energy =                 285.4454066671040664
    DFT Exchange-Correlation Energy =     -33.7503282148174151
    Empirical Dispersion Energy =           0.0000000000000000
    VV10 Nonlocal Energy =                  0.0000000000000000
    Total Energy =                       -597.9312162593340645

  UHF NO Occupations:
  HONO-2 :    8 A1 1.0000000
  HONO-1 :    3 B2 1.0000000
  HONO-0 :    9 A1 1.0000000
  LUNO+0 :   10 A1 0.0010070
  LUNO+1 :    4 B1 0.0001316
  LUNO+2 :    4 B2 0.0000015
  LUNO+3 :   11 A1 0.0000015

Computation Completed

Properties will be evaluated at   0.000000,   0.000000,   0.000000 [a0]

Properties computed using the SCF density matrix

 Multipole Moments:

 ------------------------------------------------------------------------------------
     Multipole            Electronic (a.u.)      Nuclear  (a.u.)        Total (a.u.)
 ------------------------------------------------------------------------------------

 L = 1.  Multiply by 2.5417464519 to convert [e a0] to [Debye]
 Dipole X            :          0.0000000            0.0000000            0.0000000
 Dipole Y            :          0.0000000            0.0000000            0.0000000
 Dipole Z            :          3.6624992           -0.0122193            3.6502799
 Magnitude           :                                                    3.6502799

 ------------------------------------------------------------------------------------

*** tstop() called on Joses-MacBook-Pro-2.local at Thu Jul 17 15:08:49 2025
Module time:
	user time   =       7.18 seconds =       0.12 minutes
	system time =       2.13 seconds =       0.04 minutes
	total time  =          0 seconds =       0.00 minutes
Total time:
	user time   =     236.68 seconds =       3.94 minutes
	system time =      67.40 seconds =       1.12 minutes
	total time  =         28 seconds =       0.47 minutes

*** tstart() called on Joses-MacBook-Pro-2.local
*** at Thu Jul 17 15:08:49 2025

         ------------------------------------------------------------
                                   SCF GRAD
                          Rob Parrish, Justin Turney,
                       Andy Simmonett, and Alex Sokolov
         ------------------------------------------------------------

  ==> Geometry <==

    Molecular point group: c2v
    Full point group: C_inf_v

    Geometry (in Angstrom), charge = 1, multiplicity = 4:

       Center              X                  Y                   Z               Mass
    ------------   -----------------  -----------------  -----------------  -----------------
         MG           0.000000000000     0.000000000000     2.157714631937    23.985041697000
         S            0.000000000000     0.000000000000    -1.618690110345    31.972071174400

  Nuclear repulsion =   26.904431961723883

  ==> Basis Set <==

  Basis Set: CC-PVDZ
    Blend: CC-PVDZ
    Number of shells: 16
    Number of basis functions: 36
    Number of Cartesian functions: 38
    Spherical Harmonics?: true
    Max angular momentum: 2

  ==> DFJKGrad: Density-Fitted SCF Gradients <==

    Gradient:                    1
    J tasked:                  Yes
    K tasked:                  Yes
    wK tasked:                  No
    OpenMP threads:              1
    Integrals threads:           1
    Memory [MiB]:              375
    Schwarz Cutoff:          1E-12
    Fitting Condition:       1E-10

   => Auxiliary Basis Set <=

  Basis Set: (CC-PVDZ AUX)
    Blend: CC-PVDZ-JKFIT + DEF2-UNIVERSAL-JKFIT
    Number of shells: 70
    Number of basis functions: 224
    Number of Cartesian functions: 267
    Spherical Harmonics?: true
    Max angular momentum: 4

  ==> DFT Potential <==

   => LibXC <=

    Version 6.2.2
    S. Lehtola, C. Steigemann, M. J.T. Oliveira, and M. A.L. Marques.,  SoftwareX 7, 1â€“5 (2018) (10.1016/j.softx.2017.11.002)

   => Composite Functional: B3LYP <=

    B3LYP Hyb-GGA Exchange-Correlation Functional

    P. J. Stephens, F. J. Devlin, C. F. Chabalowski, and M. J. Frisch.,  J. Phys. Chem. 98, 11623 (1994) (10.1021/j100096a001)

    Deriv               =              1
    GGA                 =           TRUE
    Meta                =          FALSE

    Exchange Hybrid     =           TRUE
    MP2 Hybrid          =          FALSE

   => Exchange Functionals <=

    0.0800   Slater exchange
    0.7200         Becke 88

   => Exact (HF) Exchange <=

    0.2000               HF

   => Correlation Functionals <=

    0.1900   Vosko, Wilk & Nusair (VWN5_RPA)
    0.8100   Lee, Yang & Parr

   => LibXC Density Thresholds  <==

    XC_HYB_GGA_XC_B3LYP:  1.00E-15

   => Molecular Quadrature <=

    Radial Scheme          =       TREUTLER
    Pruning Scheme         =           NONE
    Nuclear Scheme         =       TREUTLER

    Blocking Scheme        =         OCTREE
    BS radius alpha        =              1
    Pruning alpha          =              1
    Radial Points          =             75
    Spherical Points       =            302
    Total Points           =          43089
    Total Blocks           =            431
    Max Points             =            254
    Max Functions          =             36
    Weights Tolerance      =       1.00E-15

  -Total Gradient:
     Atom            X                  Y                   Z
    ------   -----------------  -----------------  -----------------
       1        0.000000000000     0.000000000000    -0.000006842795
       2        0.000000000000     0.000000000000     0.000027559154

*** tstop() called on Joses-MacBook-Pro-2.local at Thu Jul 17 15:08:50 2025
Module time:
	user time   =       2.57 seconds =       0.04 minutes
	system time =       1.23 seconds =       0.02 minutes
	total time  =          1 seconds =       0.02 minutes
Total time:
	user time   =     239.25 seconds =       3.99 minutes
	system time =      68.64 seconds =       1.14 minutes
	total time  =         29 seconds =       0.48 minutes

    			-----------------------------------------

    			 OPTKING 3.0: for geometry optimizations

    			     By R.A. King, Bethel University

    			        with contributions from

    			    A.V. Copan, J. Cayton, A. Heide

    			-----------------------------------------

	                            ===> Fragment 1 <==

	 Z (Atomic Numbers)          Masses                          Geom
	      12.000000            23.985042          0.00000000  0.00000000  4.07748971
	      16.000000            31.972071          0.00000000  0.00000000 -3.05888099

	 - Coordinate -           - BOHR/RAD -       - ANG/DEG -
	 R(1,2)           =         7.136371           3.776405

	        --- Internal Coordinate Step in ANG or DEG, aJ/ANG or AJ/DEG ---
	-------------------------------------------------------------------------------
	           Coordinate      Previous         Force          Change          New
	           ----------      --------        ------          ------        ------
	               R(1,2)       3.77640        0.00014        0.00699       3.78340
	-------------------------------------------------------------------------------

	                                 ==> Convergence Check <==

	Measures of convergence in internal coordinates in au.

	Criteria marked as inactive (o), active & met (*), and active & unmet ( ).

	----------------------------------------------------------------------------------------------
	   Step    Total Energy     Delta E     Max Force     RMS Force      Max Disp      RMS Disp
	----------------------------------------------------------------------------------------------
	  Convergence Criteria     1.00e-06 *    3.00e-04 *             o    1.20e-03 *             o
	----------------------------------------------------------------------------------------------
	    20    -597.93121626   -4.99e-07 *    1.72e-05 *    1.72e-05 o    1.32e-02      1.32e-02 o  ~
	----------------------------------------------------------------------------------------------

Next Geometry in Ang
	Fragment 1 (Ang)

	   Mg   0.0000000000   0.0000000000   2.1612110082
	    S   0.0000000000   0.0000000000  -1.6221864866

    Final optimized geometry and variables:
    Molecular point group: c2v
    Full point group: C_inf_v

    Geometry (in Angstrom), charge = 1, multiplicity = 4:

    MG           0.000000000000     0.000000000000     2.157714631937
    S            0.000000000000     0.000000000000    -1.618690110345

    Psi4 stopped on: Thursday, 17 July 2025 03:08PM
    Psi4 wall time for execution: 0:00:29.66

*** Psi4 exiting successfully. Buy a developer a beer!
