                               Psi4 1.9.1 release

  ==> Input File <==

--------------------------------------------------------------------------
molecule {
1 4
Ne   0.00000        0.60000        0.00000
S   0.00000       -0.60000        0.00000
}

set {
basis              cc-pvdz
reference          uks
maxiter            500
geom_maxiter       500
DAMPING_PERCENTAGE 1
guess              SAP
}

optimize('b3lyp')
--------------------------------------------------------------------------

    Molecular point group: c2v
  Charge       = 1
  Multiplicity = 4
  Basis Set: CC-PVDZ
    Blend: CC-PVDZ
  Basis Set: (CC-PVDZ AUX)
    Blend: CC-PVDZ-JKFIT
  @DF-UKS Final Energy:  -525.98363105818066
    Total Energy =                       -525.9836310581806629
 Dipole X            :          0.0000000            0.0000000            0.0000000
 Dipole Y            :          0.0000000            0.0000000            0.0000000
 Dipole Z            :          0.7158219           -0.0069094            0.7089125
 Magnitude           :                                                    0.7089125
    Molecular point group: c2v
  Basis Set: CC-PVDZ
    Blend: CC-PVDZ
  Basis Set: (CC-PVDZ AUX)
    Blend: CC-PVDZ-JKFIT
  Basis Set: CC-PVDZ
    Blend: CC-PVDZ
  Basis Set: (CC-PVDZ AUX)
    Blend: CC-PVDZ-JKFIT
  @DF-UKS Final Energy:  -526.25701855644240
    Total Energy =                       -526.2570185564424037
  Basis Set: CC-PVDZ
    Blend: CC-PVDZ
  Basis Set: (CC-PVDZ AUX)
    Blend: CC-PVDZ-JKFIT
  Basis Set: CC-PVDZ
    Blend: CC-PVDZ
  @DF-UKS Final Energy:  -526.44060126376019
    Total Energy =                       -526.4406012637601862
  @DF-UKS Final Energy:  -526.55233588723422
    Total Energy =                       -526.5523358872342214
  @DF-UKS Final Energy:  -526.60675512874229
    Total Energy =                       -526.6067551287422930
  @DF-UKS Final Energy:  -526.63276941998481
    Total Energy =                       -526.6327694199848111
  @DF-UKS Final Energy:  -526.64518883512073
    Total Energy =                       -526.6451888351207344
  @DF-UKS Final Energy:  -526.65077290166641
    Total Energy =                       -526.6507729016664143
  @DF-UKS Final Energy:  -526.65300814457612
    Total Energy =                       -526.6530081445761198
  @DF-UKS Final Energy:  -526.65373350627397
    Total Energy =                       -526.6537335062739658
  @DF-UKS Final Energy:  -526.65387328691043
    Total Energy =                       -526.6538732869104251
  @DF-UKS Final Energy:  -526.65391035466337
    Total Energy =                       -526.6539103546633669
  Basis Set: (CC-PVDZ AUX)
    Blend: CC-PVDZ-JKFIT
  Basis Set: CC-PVDZ
    Blend: CC-PVDZ
  Basis Set: (CC-PVDZ AUX)
    Blend: CC-PVDZ-JKFIT
  @DF-UKS Final Energy:  -526.65391438989889
    Total Energy =                       -526.6539143898988868
  Basis Set: CC-PVDZ
    Blend: CC-PVDZ
  Basis Set: (CC-PVDZ AUX)
    Blend: CC-PVDZ-JKFIT
  Charge       = 1
  Multiplicity = 4
  Basis Set: CC-PVDZ
    Blend: CC-PVDZ
  Basis Set: (CC-PVDZ AUX)
    Blend: CC-PVDZ-JKFIT

    Orbital Energies [Eh]
    ---------------------

    Alpha Occupied:

       1A1   -89.363401     2A1   -31.184088     3A1    -8.415399
       1B2    -6.380305     1B1    -6.380305     4A1    -6.380009
       5A1    -1.646432     6A1    -1.120838     7A1    -0.768890
       2B1    -0.751392     2B2    -0.751392     3B2    -0.692007
       3B1    -0.692007     8A1    -0.680051

    Alpha Virtual:

       9A1     0.122127     4B2     0.148465     4B1     0.148465
      10A1     0.152300    11A1     0.158623     1A2     0.158623
       5B1     0.158887     5B2     0.158887    12A1     0.173641
       6B1     1.161656     6B2     1.161656    13A1     1.239884
      14A1     1.689538     7B2     4.509621     7B1     4.509621
      15A1     4.510803     2A2     4.514462    16A1     4.514631

    Beta Occupied:

       1A1   -89.344708     2A1   -31.182541     3A1    -8.396538
       1B2    -6.352147     1B1    -6.352147     4A1    -6.351858
       5A1    -1.643042     6A1    -0.975251     7A1    -0.754548
       2B1    -0.749406     2B2    -0.749406

    Beta Virtual:

       3B2    -0.508812     3B1    -0.508812     8A1    -0.502840
       9A1     0.170064     4B2     0.198057     4B1     0.198057
      10A1     0.217346    11A1     0.270461     5B1     0.276630
       5B2     0.276630    12A1     0.276954     1A2     0.276955
       6B1     1.162310     6B2     1.162310    13A1     1.245069
      14A1     1.693102     7B2     4.513253     7B1     4.513253
      15A1     4.515278     2A2     4.515518    16A1     4.515686

    Final Occupation by Irrep:
             A1    A2    B1    B2
    DOCC [     7,    0,    2,    2 ]
    SOCC [     1,    0,    1,    1 ]
    NA   [     8,    0,    3,    3 ]
    NB   [     7,    0,    2,    2 ]

  @DF-UKS Final Energy:  -526.65391476789000

   => Energetics <=

    Nuclear Repulsion Energy =             31.7659536630138000
    One-Electron Energy =                -787.0367764283275847
    Two-Electron Energy =                 259.1261243998921486
    DFT Exchange-Correlation Energy =     -30.5092164024682688
    Empirical Dispersion Energy =           0.0000000000000000
    VV10 Nonlocal Energy =                  0.0000000000000000
    Total Energy =                       -526.6539147678900008

  UHF NO Occupations:
  HONO-2 :    3 B1 1.0000000
  HONO-1 :    3 B2 1.0000000
  HONO-0 :    8 A1 1.0000000
  LUNO+0 :    9 A1 0.0001897
  LUNO+1 :   10 A1 0.0000409
  LUNO+2 :    4 B1 0.0000014
  LUNO+3 :    4 B2 0.0000014

Computation Completed

Properties will be evaluated at   0.000000,   0.000000,   0.000000 [a0]

Properties computed using the SCF density matrix

 Multipole Moments:

 ------------------------------------------------------------------------------------
     Multipole            Electronic (a.u.)      Nuclear  (a.u.)        Total (a.u.)
 ------------------------------------------------------------------------------------

 L = 1.  Multiply by 2.5417464519 to convert [e a0] to [Debye]
 Dipole X            :          0.0000000            0.0000000            0.0000000
 Dipole Y            :          0.0000000            0.0000000            0.0000000
 Dipole Z            :         -1.7144644           -0.0153468           -1.7298111
 Magnitude           :                                                    1.7298111

 ------------------------------------------------------------------------------------

*** tstop() called on Joses-MacBook-Pro-2.local at Thu Jul 17 14:42:20 2025
Module time:
	user time   =       3.61 seconds =       0.06 minutes
	system time =       2.38 seconds =       0.04 minutes
	total time  =          1 seconds =       0.02 minutes
Total time:
	user time   =      68.36 seconds =       1.14 minutes
	system time =      71.70 seconds =       1.20 minutes
	total time  =         14 seconds =       0.23 minutes

*** tstart() called on Joses-MacBook-Pro-2.local
*** at Thu Jul 17 14:42:20 2025

         ------------------------------------------------------------
                                   SCF GRAD
                          Rob Parrish, Justin Turney,
                       Andy Simmonett, and Alex Sokolov
         ------------------------------------------------------------

  ==> Geometry <==

    Molecular point group: c2v
    Full point group: C_inf_v

    Geometry (in Angstrom), charge = 1, multiplicity = 4:

       Center              X                  Y                   Z               Mass
    ------------   -----------------  -----------------  -----------------  -----------------
         NE           0.000000000000     0.000000000000     1.639921806046    19.992440176200
         S            0.000000000000     0.000000000000    -1.025458701821    31.972071174400

  Nuclear repulsion =   31.765953663013800

  ==> Basis Set <==

  Basis Set: CC-PVDZ
    Blend: CC-PVDZ
    Number of shells: 14
    Number of basis functions: 32
    Number of Cartesian functions: 34
    Spherical Harmonics?: true
    Max angular momentum: 2

  ==> DFJKGrad: Density-Fitted SCF Gradients <==

    Gradient:                    1
    J tasked:                  Yes
    K tasked:                  Yes
    wK tasked:                  No
    OpenMP threads:              1
    Integrals threads:           1
    Memory [MiB]:              375
    Schwarz Cutoff:          1E-12
    Fitting Condition:       1E-10

   => Auxiliary Basis Set <=

  Basis Set: (CC-PVDZ AUX)
    Blend: CC-PVDZ-JKFIT
    Number of shells: 60
    Number of basis functions: 182
    Number of Cartesian functions: 211
    Spherical Harmonics?: true
    Max angular momentum: 3

  ==> DFT Potential <==

   => LibXC <=

    Version 6.2.2
    S. Lehtola, C. Steigemann, M. J.T. Oliveira, and M. A.L. Marques.,  SoftwareX 7, 1â€“5 (2018) (10.1016/j.softx.2017.11.002)

   => Composite Functional: B3LYP <=

    B3LYP Hyb-GGA Exchange-Correlation Functional

    P. J. Stephens, F. J. Devlin, C. F. Chabalowski, and M. J. Frisch.,  J. Phys. Chem. 98, 11623 (1994) (10.1021/j100096a001)

    Deriv               =              1
    GGA                 =           TRUE
    Meta                =          FALSE

    Exchange Hybrid     =           TRUE
    MP2 Hybrid          =          FALSE

   => Exchange Functionals <=

    0.0800   Slater exchange
    0.7200         Becke 88

   => Exact (HF) Exchange <=

    0.2000               HF

   => Correlation Functionals <=

    0.1900   Vosko, Wilk & Nusair (VWN5_RPA)
    0.8100   Lee, Yang & Parr

   => LibXC Density Thresholds  <==

    XC_HYB_GGA_XC_B3LYP:  1.00E-15

   => Molecular Quadrature <=

    Radial Scheme          =       TREUTLER
    Pruning Scheme         =           NONE
    Nuclear Scheme         =       TREUTLER

    Blocking Scheme        =         OCTREE
    BS radius alpha        =              1
    Pruning alpha          =              1
    Radial Points          =             75
    Spherical Points       =            302
    Total Points           =          42278
    Total Blocks           =            386
    Max Points             =            256
    Max Functions          =             32
    Weights Tolerance      =       1.00E-15

  -Total Gradient:
     Atom            X                  Y                   Z
    ------   -----------------  -----------------  -----------------
       1        0.000000000000     0.000000000000    -0.000055104445
       2       -0.000000000000     0.000000000000     0.000036463421

*** tstop() called on Joses-MacBook-Pro-2.local at Thu Jul 17 14:42:20 2025
Module time:
	user time   =       0.83 seconds =       0.01 minutes
	system time =       1.55 seconds =       0.03 minutes
	total time  =          0 seconds =       0.00 minutes
Total time:
	user time   =      69.20 seconds =       1.15 minutes
	system time =      73.25 seconds =       1.22 minutes
	total time  =         14 seconds =       0.23 minutes

    			-----------------------------------------

    			 OPTKING 3.0: for geometry optimizations

    			     By R.A. King, Bethel University

    			        with contributions from

    			    A.V. Copan, J. Cayton, A. Heide

    			-----------------------------------------

	                            ===> Fragment 1 <==

	 Z (Atomic Numbers)          Masses                          Geom
	      10.000000            19.992440          0.00000000  0.00000000  3.09900308
	      16.000000            31.972071          0.00000000  0.00000000 -1.93783610

	 - Coordinate -           - BOHR/RAD -       - ANG/DEG -
	 R(1,2)           =         5.036839           2.665381

	        --- Internal Coordinate Step in ANG or DEG, aJ/ANG or AJ/DEG ---
	-------------------------------------------------------------------------------
	           Coordinate      Previous         Force          Change          New
	           ----------      --------        ------          ------        ------
	               R(1,2)       2.66538        0.00038        0.00179       2.66717
	-------------------------------------------------------------------------------

	                                 ==> Convergence Check <==

	Measures of convergence in internal coordinates in au.

	Criteria marked as inactive (o), active & met (*), and active & unmet ( ).

	----------------------------------------------------------------------------------------------
	   Step    Total Energy     Delta E     Max Force     RMS Force      Max Disp      RMS Disp
	----------------------------------------------------------------------------------------------
	  Convergence Criteria     1.00e-06 *    3.00e-04 *             o    1.20e-03 *             o
	----------------------------------------------------------------------------------------------
	    14    -526.65391477   -3.78e-07 *    4.58e-05 *    4.58e-05 o    3.39e-03      3.39e-03 o  ~
	----------------------------------------------------------------------------------------------

Next Geometry in Ang
	Fragment 1 (Ang)

	   Ne   0.0000000000   0.0000000000   1.6408185076
	    S   0.0000000000   0.0000000000  -1.0263554034

    Final optimized geometry and variables:
    Molecular point group: c2v
    Full point group: C_inf_v

    Geometry (in Angstrom), charge = 1, multiplicity = 4:

    NE           0.000000000000     0.000000000000     1.639921806046
    S            0.000000000000     0.000000000000    -1.025458701821

    Psi4 stopped on: Thursday, 17 July 2025 02:42PM
    Psi4 wall time for execution: 0:00:14.89

*** Psi4 exiting successfully. Buy a developer a beer!
