                               Psi4 1.9.1 release

  ==> Input File <==

--------------------------------------------------------------------------
molecule {
1 4
O   0.00000        0.60000        0.00000
Ne   0.00000       -0.60000        0.00000
}

set {
basis              cc-pvdz
reference          uks
maxiter            500
geom_maxiter       500
DAMPING_PERCENTAGE 1
guess              SAP
}

optimize('b3lyp')
--------------------------------------------------------------------------

    Molecular point group: c2v
  Charge       = 1
  Multiplicity = 4
  Basis Set: CC-PVDZ
    Blend: CC-PVDZ
  Basis Set: (CC-PVDZ AUX)
    Blend: CC-PVDZ-JKFIT
  @DF-UKS Final Energy:  -203.15138509280564
    Total Energy =                       -203.1513850928056399
 Dipole X            :          0.0000000            0.0000000            0.0000000
 Dipole Y            :          0.0000000            0.0000000            0.0000000
 Dipole Z            :          0.0911295           -0.0006065            0.0905230
 Magnitude           :                                                    0.0905230
    Molecular point group: c2v
  Basis Set: CC-PVDZ
    Blend: CC-PVDZ
  Basis Set: (CC-PVDZ AUX)
    Blend: CC-PVDZ-JKFIT
  Basis Set: CC-PVDZ
    Blend: CC-PVDZ
  Basis Set: (CC-PVDZ AUX)
    Blend: CC-PVDZ-JKFIT
  @DF-UKS Final Energy:  -203.40072164636504
    Total Energy =                       -203.4007216463650423
  Basis Set: CC-PVDZ
    Blend: CC-PVDZ
  Basis Set: (CC-PVDZ AUX)
    Blend: CC-PVDZ-JKFIT
  Basis Set: CC-PVDZ
    Blend: CC-PVDZ
  @DF-UKS Final Energy:  -203.43994325357804
    Total Energy =                       -203.4399432535780363
  @DF-UKS Final Energy:  -203.46831473469408
    Total Energy =                       -203.4683147346940757
  @DF-UKS Final Energy:  -203.47725009937540
    Total Energy =                       -203.4772500993753965
  @DF-UKS Final Energy:  -203.48157965222487
    Total Energy =                       -203.4815796522248661
  @DF-UKS Final Energy:  -203.48361233191369
    Total Energy =                       -203.4836123319136902
  @DF-UKS Final Energy:  -203.48415593655716
    Total Energy =                       -203.4841559365571584
  @DF-UKS Final Energy:  -203.48435979217956
    Total Energy =                       -203.4843597921795890
  @DF-UKS Final Energy:  -203.48440610249367
    Total Energy =                       -203.4844061024936650
  @DF-UKS Final Energy:  -203.48441925932337
    Total Energy =                       -203.4844192593233458
  Basis Set: (CC-PVDZ AUX)
    Blend: CC-PVDZ-JKFIT
  Basis Set: CC-PVDZ
    Blend: CC-PVDZ
  Basis Set: (CC-PVDZ AUX)
    Blend: CC-PVDZ-JKFIT
  @DF-UKS Final Energy:  -203.48442142344450
    Total Energy =                       -203.4844214234445019
  Basis Set: CC-PVDZ
    Blend: CC-PVDZ
  Basis Set: (CC-PVDZ AUX)
    Blend: CC-PVDZ-JKFIT
  Charge       = 1
  Multiplicity = 4
  Basis Set: CC-PVDZ
    Blend: CC-PVDZ
  Basis Set: (CC-PVDZ AUX)
    Blend: CC-PVDZ-JKFIT

    Orbital Energies [Eh]
    ---------------------

    Alpha Occupied:

       1A1   -31.310869     2A1   -19.919215     3A1    -1.765277
       4A1    -1.578930     5A1    -0.996197     1B2    -0.990224
       1B1    -0.990224     6A1    -0.864367     2B2    -0.860302
       2B1    -0.860302

    Alpha Virtual:

       3B2     0.374142     3B1     0.374142     7A1     0.412825
       8A1     0.576542     4B1     1.076081     4B2     1.076081
       9A1     1.184641    10A1     1.614484     1A2     1.915107
      11A1     1.915112     5B1     1.924696     5B2     1.924696
      12A1     2.060748     6B1     4.389155     6B2     4.389155
      13A1     4.400523    14A1     4.403745     2A2     4.403812

    Beta Occupied:

       1A1   -31.303997     2A1   -19.838835     3A1    -1.748514
       4A1    -1.341340     5A1    -0.858972     1B2    -0.853797
       1B1    -0.853797

    Beta Virtual:

       2B2    -0.657566     2B1    -0.657566     6A1    -0.650923
       3B2     0.484904     3B1     0.484904     7A1     0.509218
       8A1     0.677598     4B1     1.081797     4B2     1.081797
       9A1     1.213673    10A1     1.652495     5B2     2.099706
       5B1     2.099706     1A2     2.101347    11A1     2.101355
      12A1     2.205607     6B1     4.406600     6B2     4.406600
      13A1     4.408613     2A2     4.408681    14A1     4.422173

    Final Occupation by Irrep:
             A1    A2    B1    B2
    DOCC [     5,    0,    1,    1 ]
    SOCC [     1,    0,    1,    1 ]
    NA   [     6,    0,    2,    2 ]
    NB   [     5,    0,    1,    1 ]

  @DF-UKS Final Energy:  -203.48442155988550

   => Energetics <=

    Nuclear Repulsion Energy =             20.6459012571796094
    One-Electron Energy =                -319.4223739271466229
    Two-Electron Energy =                 111.8965110799520914
    DFT Exchange-Correlation Energy =     -16.6044599698705753
    Empirical Dispersion Energy =           0.0000000000000000
    VV10 Nonlocal Energy =                  0.0000000000000000
    Total Energy =                       -203.4844215598855044

  UHF NO Occupations:
  HONO-2 :    2 B1 1.0000000
  HONO-1 :    6 A1 1.0000000
  HONO-0 :    2 B2 1.0000000
  LUNO+0 :    7 A1 0.0008947
  LUNO+1 :    8 A1 0.0005408
  LUNO+2 :    3 B2 0.0000229
  LUNO+3 :    3 B1 0.0000229

Computation Completed

Properties will be evaluated at   0.000000,   0.000000,   0.000000 [a0]

Properties computed using the SCF density matrix

 Multipole Moments:

 ------------------------------------------------------------------------------------
     Multipole            Electronic (a.u.)      Nuclear  (a.u.)        Total (a.u.)
 ------------------------------------------------------------------------------------

 L = 1.  Multiply by 2.5417464519 to convert [e a0] to [Debye]
 Dipole X            :          0.0000000            0.0000000            0.0000000
 Dipole Y            :          0.0000000            0.0000000            0.0000000
 Dipole Z            :          1.5305854           -0.0010363            1.5295491
 Magnitude           :                                                    1.5295491

 ------------------------------------------------------------------------------------

*** tstop() called on Joses-MacBook-Pro-2.local at Thu Jul 17 14:05:03 2025
Module time:
	user time   =       1.96 seconds =       0.03 minutes
	system time =       3.88 seconds =       0.06 minutes
	total time  =          0 seconds =       0.00 minutes
Total time:
	user time   =      37.39 seconds =       0.62 minutes
	system time =      86.22 seconds =       1.44 minutes
	total time  =         12 seconds =       0.20 minutes

*** tstart() called on Joses-MacBook-Pro-2.local
*** at Thu Jul 17 14:05:03 2025

         ------------------------------------------------------------
                                   SCF GRAD
                          Rob Parrish, Justin Turney,
                       Andy Simmonett, and Alex Sokolov
         ------------------------------------------------------------

  ==> Geometry <==

    Molecular point group: c2v
    Full point group: C_inf_v

    Geometry (in Angstrom), charge = 1, multiplicity = 4:

       Center              X                  Y                   Z               Mass
    ------------   -----------------  -----------------  -----------------  -----------------
         O            0.000000000000     0.000000000000     1.139129642959    15.994914619570
         NE           0.000000000000     0.000000000000    -0.911358554492    19.992440176200

  Nuclear repulsion =   20.645901257179609

  ==> Basis Set <==

  Basis Set: CC-PVDZ
    Blend: CC-PVDZ
    Number of shells: 12
    Number of basis functions: 28
    Number of Cartesian functions: 30
    Spherical Harmonics?: true
    Max angular momentum: 2

  ==> DFJKGrad: Density-Fitted SCF Gradients <==

    Gradient:                    1
    J tasked:                  Yes
    K tasked:                  Yes
    wK tasked:                  No
    OpenMP threads:              1
    Integrals threads:           1
    Memory [MiB]:              375
    Schwarz Cutoff:          1E-12
    Fitting Condition:       1E-10

   => Auxiliary Basis Set <=

  Basis Set: (CC-PVDZ AUX)
    Blend: CC-PVDZ-JKFIT
    Number of shells: 48
    Number of basis functions: 140
    Number of Cartesian functions: 162
    Spherical Harmonics?: true
    Max angular momentum: 3

  ==> DFT Potential <==

   => LibXC <=

    Version 6.2.2
    S. Lehtola, C. Steigemann, M. J.T. Oliveira, and M. A.L. Marques.,  SoftwareX 7, 1â€“5 (2018) (10.1016/j.softx.2017.11.002)

   => Composite Functional: B3LYP <=

    B3LYP Hyb-GGA Exchange-Correlation Functional

    P. J. Stephens, F. J. Devlin, C. F. Chabalowski, and M. J. Frisch.,  J. Phys. Chem. 98, 11623 (1994) (10.1021/j100096a001)

    Deriv               =              1
    GGA                 =           TRUE
    Meta                =          FALSE

    Exchange Hybrid     =           TRUE
    MP2 Hybrid          =          FALSE

   => Exchange Functionals <=

    0.0800   Slater exchange
    0.7200         Becke 88

   => Exact (HF) Exchange <=

    0.2000               HF

   => Correlation Functionals <=

    0.1900   Vosko, Wilk & Nusair (VWN5_RPA)
    0.8100   Lee, Yang & Parr

   => LibXC Density Thresholds  <==

    XC_HYB_GGA_XC_B3LYP:  1.00E-15

   => Molecular Quadrature <=

    Radial Scheme          =       TREUTLER
    Pruning Scheme         =           NONE
    Nuclear Scheme         =       TREUTLER

    Blocking Scheme        =         OCTREE
    BS radius alpha        =              1
    Pruning alpha          =              1
    Radial Points          =             75
    Spherical Points       =            302
    Total Points           =          42358
    Total Blocks           =            370
    Max Points             =            256
    Max Functions          =             28
    Weights Tolerance      =       1.00E-15

  -Total Gradient:
     Atom            X                  Y                   Z
    ------   -----------------  -----------------  -----------------
       1        0.000000000000     0.000000000000    -0.000030239599
       2        0.000000000000     0.000000000000     0.000000923083

*** tstop() called on Joses-MacBook-Pro-2.local at Thu Jul 17 14:05:03 2025
Module time:
	user time   =       0.55 seconds =       0.01 minutes
	system time =       1.08 seconds =       0.02 minutes
	total time  =          0 seconds =       0.00 minutes
Total time:
	user time   =      37.94 seconds =       0.63 minutes
	system time =      87.30 seconds =       1.45 minutes
	total time  =         12 seconds =       0.20 minutes

    			-----------------------------------------

    			 OPTKING 3.0: for geometry optimizations

    			     By R.A. King, Bethel University

    			        with contributions from

    			    A.V. Copan, J. Cayton, A. Heide

    			-----------------------------------------

	                            ===> Fragment 1 <==

	 Z (Atomic Numbers)          Masses                          Geom
	       8.000000            15.994915          0.00000000  0.00000000  2.15264305
	      10.000000            19.992440          0.00000000  0.00000000 -1.72221807

	 - Coordinate -           - BOHR/RAD -       - ANG/DEG -
	 R(1,2)           =         3.874861           2.050488

	        --- Internal Coordinate Step in ANG or DEG, aJ/ANG or AJ/DEG ---
	-------------------------------------------------------------------------------
	           Coordinate      Previous         Force          Change          New
	           ----------      --------        ------          ------        ------
	               R(1,2)       2.05049        0.00013        0.00019       2.05068
	-------------------------------------------------------------------------------

	                                 ==> Convergence Check <==

	Measures of convergence in internal coordinates in au.

	Criteria marked as inactive (o), active & met (*), and active & unmet ( ).

	----------------------------------------------------------------------------------------------
	   Step    Total Energy     Delta E     Max Force     RMS Force      Max Disp      RMS Disp
	----------------------------------------------------------------------------------------------
	  Convergence Criteria     1.00e-06 *    3.00e-04 *             o    1.20e-03 *             o
	----------------------------------------------------------------------------------------------
	    13    -203.48442156   -1.36e-07 *    1.56e-05 *    1.56e-05 o    3.60e-04 *    3.60e-04 o  ~
	----------------------------------------------------------------------------------------------

Next Geometry in Ang
	Fragment 1 (Ang)

	    O   0.0000000000   0.0000000000   1.1392249559
	   Ne   0.0000000000   0.0000000000  -0.9114538675

    Final optimized geometry and variables:
    Molecular point group: c2v
    Full point group: C_inf_v

    Geometry (in Angstrom), charge = 1, multiplicity = 4:

    O            0.000000000000     0.000000000000     1.139129642959
    NE           0.000000000000     0.000000000000    -0.911358554492

    Psi4 stopped on: Thursday, 17 July 2025 02:05PM
    Psi4 wall time for execution: 0:00:13.49

*** Psi4 exiting successfully. Buy a developer a beer!
