                               Psi4 1.9.1 release

  ==> Input File <==

--------------------------------------------------------------------------
molecule {
1 4
B   0.00000        0.60000        0.00000
P   0.00000       -0.60000        0.00000
}

set {
basis              cc-pvdz
reference          uks
maxiter            500
geom_maxiter       500
DAMPING_PERCENTAGE 1
guess              SAP
}

optimize('b3lyp')
--------------------------------------------------------------------------

    Molecular point group: c2v
  Charge       = 1
  Multiplicity = 4
  Basis Set: CC-PVDZ
    Blend: CC-PVDZ
  Basis Set: (CC-PVDZ AUX)
    Blend: CC-PVDZ-JKFIT
  @DF-UKS Final Energy:  -365.20533009664325
    Total Energy =                       -365.2053300966432516
 Dipole X            :          0.0000000            0.0000000            0.0000000
 Dipole Y            :          0.0000000            0.0000000            0.0000000
 Dipole Z            :         -0.1399559           -0.5547649           -0.6947208
 Magnitude           :                                                    0.6947208
    Molecular point group: c2v
  Basis Set: CC-PVDZ
    Blend: CC-PVDZ
  Basis Set: (CC-PVDZ AUX)
    Blend: CC-PVDZ-JKFIT
  Basis Set: CC-PVDZ
    Blend: CC-PVDZ
  Basis Set: (CC-PVDZ AUX)
    Blend: CC-PVDZ-JKFIT
  @DF-UKS Final Energy:  -365.43611462251494
    Total Energy =                       -365.4361146225149355
  Basis Set: CC-PVDZ
    Blend: CC-PVDZ
  Basis Set: (CC-PVDZ AUX)
    Blend: CC-PVDZ-JKFIT
  Basis Set: CC-PVDZ
    Blend: CC-PVDZ
  @DF-UKS Final Energy:  -365.55167208641092
    Total Energy =                       -365.5516720864109175
  @DF-UKS Final Energy:  -365.67908483998320
    Total Energy =                       -365.6790848399832612
  @DF-UKS Final Energy:  -365.70822322937045
    Total Energy =                       -365.7082232293704465
  @DF-UKS Final Energy:  -365.71835781475750
    Total Energy =                       -365.7183578147574963
  @DF-UKS Final Energy:  -365.71973345366547
    Total Energy =                       -365.7197334536654694
  @DF-UKS Final Energy:  -365.72007004222883
    Total Energy =                       -365.7200700422288833
  @DF-UKS Final Energy:  -365.72016090686560
    Total Energy =                       -365.7201609068655443
  @DF-UKS Final Energy:  -365.72019225331712
    Total Energy =                       -365.7201922533170659
  Basis Set: (CC-PVDZ AUX)
    Blend: CC-PVDZ-JKFIT
  Basis Set: CC-PVDZ
    Blend: CC-PVDZ
  Basis Set: (CC-PVDZ AUX)
    Blend: CC-PVDZ-JKFIT
  @DF-UKS Final Energy:  -365.72019729669631
    Total Energy =                       -365.7201972966963694
  Basis Set: CC-PVDZ
    Blend: CC-PVDZ
  Basis Set: (CC-PVDZ AUX)
    Blend: CC-PVDZ-JKFIT
  Charge       = 1
  Multiplicity = 4
  Basis Set: CC-PVDZ
    Blend: CC-PVDZ
  Basis Set: (CC-PVDZ AUX)
    Blend: CC-PVDZ-JKFIT

    Orbital Energies [Eh]
    ---------------------

    Alpha Occupied:

       1A1   -77.433882     2A1    -7.170539     3A1    -6.898927
       1B1    -5.063486     1B2    -5.063486     4A1    -5.056754
       5A1    -0.943027     6A1    -0.686615     2B1    -0.560420
       2B2    -0.560420     7A1    -0.551454

    Alpha Virtual:

       3B2    -0.350011     3B1    -0.350011     8A1    -0.165832
       9A1    -0.018509     4B2     0.051541     4B1     0.051541
      10A1     0.075064     5B2     0.125064     5B1     0.125064
      11A1     0.137706     1A2     0.137706    12A1     0.153111
       6B1     0.210406     6B2     0.210406    13A1     0.343067
       2A2     0.432530    14A1     0.432530    15A1     0.559703
       7B2     0.647095     7B1     0.647095    16A1     0.869255

    Beta Occupied:

       1A1   -77.425884     2A1    -7.153924     3A1    -6.890354
       1B1    -5.048777     1B2    -5.048777     4A1    -5.048388
       5A1    -0.867578     6A1    -0.625450

    Beta Virtual:

       2B2    -0.435772     2B1    -0.435772     7A1    -0.394452
       3B1    -0.286976     3B2    -0.286976     8A1    -0.119471
       9A1     0.006673     4B2     0.071697     4B1     0.071697
      10A1     0.128009    11A1     0.180929     5B1     0.182502
       5B2     0.182502    12A1     0.214823     1A2     0.214823
       6B1     0.248967     6B2     0.248967    13A1     0.368606
      14A1     0.479199     2A2     0.479200    15A1     0.605958
       7B2     0.708043     7B1     0.708043    16A1     0.921778

    Final Occupation by Irrep:
             A1    A2    B1    B2
    DOCC [     6,    0,    1,    1 ]
    SOCC [     1,    0,    1,    1 ]
    NA   [     7,    0,    2,    2 ]
    NB   [     6,    0,    1,    1 ]

  @DF-UKS Final Energy:  -365.72019748422002

   => Energetics <=

    Nuclear Repulsion Energy =             21.1589533121488316
    One-Electron Energy =                -540.2017932315543476
    Two-Electron Energy =                 174.9915180114983571
    DFT Exchange-Correlation Energy =     -21.6688755763128142
    Empirical Dispersion Energy =           0.0000000000000000
    VV10 Nonlocal Energy =                  0.0000000000000000
    Total Energy =                       -365.7201974842200229

  UHF NO Occupations:
  HONO-2 :    2 B1 1.0000000
  HONO-1 :    2 B2 1.0000000
  HONO-0 :    7 A1 1.0000000
  LUNO+0 :    8 A1 0.0008115
  LUNO+1 :    9 A1 0.0005353
  LUNO+2 :   10 A1 0.0000001
  LUNO+3 :    3 B1 0.0000000

Computation Completed

Properties will be evaluated at   0.000000,   0.000000,   0.000000 [a0]

Properties computed using the SCF density matrix

 Multipole Moments:

 ------------------------------------------------------------------------------------
     Multipole            Electronic (a.u.)      Nuclear  (a.u.)        Total (a.u.)
 ------------------------------------------------------------------------------------

 L = 1.  Multiply by 2.5417464519 to convert [e a0] to [Debye]
 Dipole X            :          0.0000000            0.0000000            0.0000000
 Dipole Y            :          0.0000000            0.0000000            0.0000000
 Dipole Z            :          1.5190944           -0.8671534            0.6519410
 Magnitude           :                                                    0.6519410

 ------------------------------------------------------------------------------------

*** tstop() called on Joses-MacBook-Pro-2.local at Thu Jul 17 13:36:55 2025
Module time:
	user time   =       2.54 seconds =       0.04 minutes
	system time =       4.18 seconds =       0.07 minutes
	total time  =          0 seconds =       0.00 minutes
Total time:
	user time   =      44.41 seconds =       0.74 minutes
	system time =      78.58 seconds =       1.31 minutes
	total time  =         12 seconds =       0.20 minutes

*** tstart() called on Joses-MacBook-Pro-2.local
*** at Thu Jul 17 13:36:55 2025

         ------------------------------------------------------------
                                   SCF GRAD
                          Rob Parrish, Justin Turney,
                       Andy Simmonett, and Alex Sokolov
         ------------------------------------------------------------

  ==> Geometry <==

    Molecular point group: c2v
    Full point group: C_inf_v

    Geometry (in Angstrom), charge = 1, multiplicity = 4:

       Center              X                  Y                   Z               Mass
    ------------   -----------------  -----------------  -----------------  -----------------
         B            0.000000000000     0.000000000000     1.383846778447    11.009305360000
         P            0.000000000000     0.000000000000    -0.491874114489    30.973761998420

  Nuclear repulsion =   21.158953312148832

  ==> Basis Set <==

  Basis Set: CC-PVDZ
    Blend: CC-PVDZ
    Number of shells: 14
    Number of basis functions: 32
    Number of Cartesian functions: 34
    Spherical Harmonics?: true
    Max angular momentum: 2

  ==> DFJKGrad: Density-Fitted SCF Gradients <==

    Gradient:                    1
    J tasked:                  Yes
    K tasked:                  Yes
    wK tasked:                  No
    OpenMP threads:              1
    Integrals threads:           1
    Memory [MiB]:              375
    Schwarz Cutoff:          1E-12
    Fitting Condition:       1E-10

   => Auxiliary Basis Set <=

  Basis Set: (CC-PVDZ AUX)
    Blend: CC-PVDZ-JKFIT
    Number of shells: 60
    Number of basis functions: 182
    Number of Cartesian functions: 211
    Spherical Harmonics?: true
    Max angular momentum: 3

  ==> DFT Potential <==

   => LibXC <=

    Version 6.2.2
    S. Lehtola, C. Steigemann, M. J.T. Oliveira, and M. A.L. Marques.,  SoftwareX 7, 1â€“5 (2018) (10.1016/j.softx.2017.11.002)

   => Composite Functional: B3LYP <=

    B3LYP Hyb-GGA Exchange-Correlation Functional

    P. J. Stephens, F. J. Devlin, C. F. Chabalowski, and M. J. Frisch.,  J. Phys. Chem. 98, 11623 (1994) (10.1021/j100096a001)

    Deriv               =              1
    GGA                 =           TRUE
    Meta                =          FALSE

    Exchange Hybrid     =           TRUE
    MP2 Hybrid          =          FALSE

   => Exchange Functionals <=

    0.0800   Slater exchange
    0.7200         Becke 88

   => Exact (HF) Exchange <=

    0.2000               HF

   => Correlation Functionals <=

    0.1900   Vosko, Wilk & Nusair (VWN5_RPA)
    0.8100   Lee, Yang & Parr

   => LibXC Density Thresholds  <==

    XC_HYB_GGA_XC_B3LYP:  1.00E-15

   => Molecular Quadrature <=

    Radial Scheme          =       TREUTLER
    Pruning Scheme         =           NONE
    Nuclear Scheme         =       TREUTLER

    Blocking Scheme        =         OCTREE
    BS radius alpha        =              1
    Pruning alpha          =              1
    Radial Points          =             75
    Spherical Points       =            302
    Total Points           =          41998
    Total Blocks           =            385
    Max Points             =            255
    Max Functions          =             32
    Weights Tolerance      =       1.00E-15

  -Total Gradient:
     Atom            X                  Y                   Z
    ------   -----------------  -----------------  -----------------
       1       -0.000000000000     0.000000000000    -0.000030331670
       2        0.000000000000    -0.000000000000     0.000022014380

*** tstop() called on Joses-MacBook-Pro-2.local at Thu Jul 17 13:36:56 2025
Module time:
	user time   =       1.07 seconds =       0.02 minutes
	system time =       1.56 seconds =       0.03 minutes
	total time  =          1 seconds =       0.02 minutes
Total time:
	user time   =      45.48 seconds =       0.76 minutes
	system time =      80.14 seconds =       1.34 minutes
	total time  =         13 seconds =       0.22 minutes

    			-----------------------------------------

    			 OPTKING 3.0: for geometry optimizations

    			     By R.A. King, Bethel University

    			        with contributions from

    			    A.V. Copan, J. Cayton, A. Heide

    			-----------------------------------------

	                            ===> Fragment 1 <==

	 Z (Atomic Numbers)          Masses                          Geom
	       5.000000            11.009305          0.00000000  0.00000000  2.61509141
	      15.000000            30.973762          0.00000000  0.00000000 -0.92950736

	 - Coordinate -           - BOHR/RAD -       - ANG/DEG -
	 R(1,2)           =         3.544599           1.875721

	        --- Internal Coordinate Step in ANG or DEG, aJ/ANG or AJ/DEG ---
	-------------------------------------------------------------------------------
	           Coordinate      Previous         Force          Change          New
	           ----------      --------        ------          ------        ------
	               R(1,2)       1.87572        0.00022        0.00008       1.87580
	-------------------------------------------------------------------------------

	                                 ==> Convergence Check <==

	Measures of convergence in internal coordinates in au.

	Criteria marked as inactive (o), active & met (*), and active & unmet ( ).

	----------------------------------------------------------------------------------------------
	   Step    Total Energy     Delta E     Max Force     RMS Force      Max Disp      RMS Disp
	----------------------------------------------------------------------------------------------
	  Convergence Criteria     1.00e-06 *    3.00e-04 *             o    1.20e-03 *             o
	----------------------------------------------------------------------------------------------
	    12    -365.72019748   -1.88e-07 *    2.62e-05 *    2.62e-05 o    1.49e-04 *    1.49e-04 o  ~
	----------------------------------------------------------------------------------------------

Next Geometry in Ang
	Fragment 1 (Ang)

	    B   0.0000000000   0.0000000000   1.3838862825
	    P   0.0000000000   0.0000000000  -0.4919136186

    Final optimized geometry and variables:
    Molecular point group: c2v
    Full point group: C_inf_v

    Geometry (in Angstrom), charge = 1, multiplicity = 4:

    B            0.000000000000     0.000000000000     1.383846778447
    P            0.000000000000     0.000000000000    -0.491874114489

    Psi4 stopped on: Thursday, 17 July 2025 01:36PM
    Psi4 wall time for execution: 0:00:13.12

*** Psi4 exiting successfully. Buy a developer a beer!
