                               Psi4 1.9.1 release

  ==> Input File <==

--------------------------------------------------------------------------
molecule {
1 4
Be   0.00000        0.60000        0.00000
Mg   0.00000       -0.60000        0.00000
}

set {
basis              cc-pvdz
reference          uks
maxiter            500
geom_maxiter       500
DAMPING_PERCENTAGE 1
guess              SAP
}

optimize('b3lyp')
--------------------------------------------------------------------------

    Molecular point group: c2v
  Charge       = 1
  Multiplicity = 4
  Basis Set: CC-PVDZ
    Blend: CC-PVDZ
  Basis Set: (CC-PVDZ AUX)
    Blend: DEF2-UNIVERSAL-JKFIT
  @DF-UKS Final Energy:  -213.96905025012498
    Total Energy =                       -213.9690502501249796
 Dipole X            :          0.0000000            0.0000000            0.0000000
 Dipole Y            :          0.0000000            0.0000000            0.0000000
 Dipole Z            :          0.1266476           -0.8388361           -0.7121885
 Magnitude           :                                                    0.7121885
    Molecular point group: c2v
  Basis Set: CC-PVDZ
    Blend: CC-PVDZ
  Basis Set: (CC-PVDZ AUX)
    Blend: DEF2-UNIVERSAL-JKFIT
  Basis Set: CC-PVDZ
    Blend: CC-PVDZ
  Basis Set: (CC-PVDZ AUX)
    Blend: DEF2-UNIVERSAL-JKFIT
  @DF-UKS Final Energy:  -214.04904143971464
    Total Energy =                       -214.0490414397146424
  Basis Set: CC-PVDZ
    Blend: CC-PVDZ
  Basis Set: (CC-PVDZ AUX)
    Blend: DEF2-UNIVERSAL-JKFIT
  Basis Set: CC-PVDZ
    Blend: CC-PVDZ
  @DF-UKS Final Energy:  -214.14239343822064
    Total Energy =                       -214.1423934382206369
  @DF-UKS Final Energy:  -214.25010804058400
    Total Energy =                       -214.2501080405840241
  @DF-UKS Final Energy:  -214.30329164367063
    Total Energy =                       -214.3032916436706330
  @DF-UKS Final Energy:  -214.32281134191683
    Total Energy =                       -214.3228113419168324
  @DF-UKS Final Energy:  -214.32861030413375
    Total Energy =                       -214.3286103041338038
  @DF-UKS Final Energy:  -214.32968709209064
    Total Energy =                       -214.3296870920906372
  @DF-UKS Final Energy:  -214.32976423091429
    Total Energy =                       -214.3297642309142645
  Basis Set: (CC-PVDZ AUX)
    Blend: DEF2-UNIVERSAL-JKFIT
  Basis Set: CC-PVDZ
    Blend: CC-PVDZ
  Basis Set: (CC-PVDZ AUX)
    Blend: DEF2-UNIVERSAL-JKFIT
  @DF-UKS Final Energy:  -214.32976999842933
    Total Energy =                       -214.3297699984293274
  Basis Set: CC-PVDZ
    Blend: CC-PVDZ
  Basis Set: (CC-PVDZ AUX)
    Blend: DEF2-UNIVERSAL-JKFIT
  Charge       = 1
  Multiplicity = 4
  Basis Set: CC-PVDZ
    Blend: CC-PVDZ
  Basis Set: (CC-PVDZ AUX)
    Blend: DEF2-UNIVERSAL-JKFIT

    Orbital Energies [Eh]
    ---------------------

    Alpha Occupied:

       1A1   -47.155175     2A1    -4.326270     3A1    -3.429847
       4A1    -2.175132     1B1    -2.172930     1B2    -2.172930
       5A1    -0.545360     2B2    -0.350744     2B1    -0.350744

    Alpha Virtual:

       6A1    -0.344667     7A1    -0.262541     3B2    -0.200736
       3B1    -0.200736     8A1    -0.120354     9A1    -0.066854
       4B2    -0.036730     4B1    -0.036730    10A1     0.003780
      11A1     0.032716     5B2     0.034170     5B1     0.034170
      12A1     0.054002     1A2     0.054002     6B2     0.094033
       6B1     0.094033    13A1     0.157315    14A1     0.279083
       2A2     0.279083    15A1     0.371913     7B2     0.444304
       7B1     0.444304    16A1     0.635234

    Beta Occupied:

       1A1   -47.151885     2A1    -4.310246     3A1    -3.424722
       4A1    -2.171175     1B1    -2.167660     1B2    -2.167660

    Beta Virtual:

       5A1    -0.390808     6A1    -0.298313     7A1    -0.221023
       2B2    -0.220900     2B1    -0.220900     3B1    -0.141493
       3B2    -0.141493     8A1    -0.087542     9A1    -0.053990
       4B2    -0.010757     4B1    -0.010757    10A1     0.026163
      11A1     0.054636     5B2     0.074480     5B1     0.074480
      12A1     0.105380     1A2     0.105386     6B2     0.145200
       6B1     0.145200    13A1     0.196570    14A1     0.383969
       2A2     0.384013    15A1     0.418803     7B2     0.513301
       7B1     0.513301    16A1     0.666112

    Final Occupation by Irrep:
             A1    A2    B1    B2
    DOCC [     4,    0,    1,    1 ]
    SOCC [     1,    0,    1,    1 ]
    NA   [     5,    0,    2,    2 ]
    NB   [     4,    0,    1,    1 ]

  @DF-UKS Final Energy:  -214.32977044497966

   => Energetics <=

    Nuclear Repulsion Energy =             11.5479536510218566
    One-Electron Energy =                -316.6737349454162995
    Two-Electron Energy =                 106.1943156721971917
    DFT Exchange-Correlation Energy =     -15.3983048227824497
    Empirical Dispersion Energy =           0.0000000000000000
    VV10 Nonlocal Energy =                  0.0000000000000000
    Total Energy =                       -214.3297704449796584

  UHF NO Occupations:
  HONO-2 :    5 A1 1.0000000
  HONO-1 :    2 B1 1.0000000
  HONO-0 :    2 B2 1.0000000
  LUNO+0 :    6 A1 0.0000010
  LUNO+1 :    7 A1 0.0000004
  LUNO+2 :    3 B1 0.0000003
  LUNO+3 :    3 B2 0.0000003

Computation Completed

Properties will be evaluated at   0.000000,   0.000000,   0.000000 [a0]

Properties computed using the SCF density matrix

 Multipole Moments:

 ------------------------------------------------------------------------------------
     Multipole            Electronic (a.u.)      Nuclear  (a.u.)        Total (a.u.)
 ------------------------------------------------------------------------------------

 L = 1.  Multiply by 2.5417464519 to convert [e a0] to [Debye]
 Dipole X            :          0.0000000            0.0000000            0.0000000
 Dipole Y            :          0.0000000            0.0000000            0.0000000
 Dipole Z            :          0.9373371           -1.5375641           -0.6002269
 Magnitude           :                                                    0.6002269

 ------------------------------------------------------------------------------------

*** tstop() called on Joses-MacBook-Pro-2.local at Thu Jul 17 13:21:45 2025
Module time:
	user time   =       2.08 seconds =       0.03 minutes
	system time =       3.95 seconds =       0.07 minutes
	total time  =          1 seconds =       0.02 minutes
Total time:
	user time   =      46.52 seconds =       0.78 minutes
	system time =      62.82 seconds =       1.05 minutes
	total time  =         11 seconds =       0.18 minutes

*** tstart() called on Joses-MacBook-Pro-2.local
*** at Thu Jul 17 13:21:45 2025

         ------------------------------------------------------------
                                   SCF GRAD
                          Rob Parrish, Justin Turney,
                       Andy Simmonett, and Alex Sokolov
         ------------------------------------------------------------

  ==> Geometry <==

    Molecular point group: c2v
    Full point group: C_inf_v

    Geometry (in Angstrom), charge = 1, multiplicity = 4:

       Center              X                  Y                   Z               Mass
    ------------   -----------------  -----------------  -----------------  -----------------
         BE           0.000000000000     0.000000000000     1.598823050150     9.012183065000
         MG           0.000000000000     0.000000000000    -0.600744672389    23.985041697000

  Nuclear repulsion =   11.547953651021857

  ==> Basis Set <==

  Basis Set: CC-PVDZ
    Blend: CC-PVDZ
    Number of shells: 14
    Number of basis functions: 32
    Number of Cartesian functions: 34
    Spherical Harmonics?: true
    Max angular momentum: 2

  ==> DFJKGrad: Density-Fitted SCF Gradients <==

    Gradient:                    1
    J tasked:                  Yes
    K tasked:                  Yes
    wK tasked:                  No
    OpenMP threads:              1
    Integrals threads:           1
    Memory [MiB]:              375
    Schwarz Cutoff:          1E-12
    Fitting Condition:       1E-10

   => Auxiliary Basis Set <=

  Basis Set: (CC-PVDZ AUX)
    Blend: DEF2-UNIVERSAL-JKFIT
    Number of shells: 51
    Number of basis functions: 163
    Number of Cartesian functions: 197
    Spherical Harmonics?: true
    Max angular momentum: 4

  ==> DFT Potential <==

   => LibXC <=

    Version 6.2.2
    S. Lehtola, C. Steigemann, M. J.T. Oliveira, and M. A.L. Marques.,  SoftwareX 7, 1â€“5 (2018) (10.1016/j.softx.2017.11.002)

   => Composite Functional: B3LYP <=

    B3LYP Hyb-GGA Exchange-Correlation Functional

    P. J. Stephens, F. J. Devlin, C. F. Chabalowski, and M. J. Frisch.,  J. Phys. Chem. 98, 11623 (1994) (10.1021/j100096a001)

    Deriv               =              1
    GGA                 =           TRUE
    Meta                =          FALSE

    Exchange Hybrid     =           TRUE
    MP2 Hybrid          =          FALSE

   => Exchange Functionals <=

    0.0800   Slater exchange
    0.7200         Becke 88

   => Exact (HF) Exchange <=

    0.2000               HF

   => Correlation Functionals <=

    0.1900   Vosko, Wilk & Nusair (VWN5_RPA)
    0.8100   Lee, Yang & Parr

   => LibXC Density Thresholds  <==

    XC_HYB_GGA_XC_B3LYP:  1.00E-15

   => Molecular Quadrature <=

    Radial Scheme          =       TREUTLER
    Pruning Scheme         =           NONE
    Nuclear Scheme         =       TREUTLER

    Blocking Scheme        =         OCTREE
    BS radius alpha        =              1
    Pruning alpha          =              1
    Radial Points          =             75
    Spherical Points       =            302
    Total Points           =          42955
    Total Blocks           =            417
    Max Points             =            255
    Max Functions          =             32
    Weights Tolerance      =       1.00E-15

  -Total Gradient:
     Atom            X                  Y                   Z
    ------   -----------------  -----------------  -----------------
       1        0.000000000000     0.000000000000    -0.000071811121
       2        0.000000000000    -0.000000000000     0.000070739615

*** tstop() called on Joses-MacBook-Pro-2.local at Thu Jul 17 13:21:45 2025
Module time:
	user time   =       0.51 seconds =       0.01 minutes
	system time =       1.89 seconds =       0.03 minutes
	total time  =          0 seconds =       0.00 minutes
Total time:
	user time   =      47.03 seconds =       0.78 minutes
	system time =      64.71 seconds =       1.08 minutes
	total time  =         11 seconds =       0.18 minutes

    			-----------------------------------------

    			 OPTKING 3.0: for geometry optimizations

    			     By R.A. King, Bethel University

    			        with contributions from

    			    A.V. Copan, J. Cayton, A. Heide

    			-----------------------------------------

	                            ===> Fragment 1 <==

	 Z (Atomic Numbers)          Masses                          Geom
	       4.000000             9.012183          0.00000000  0.00000000  3.02133769
	      12.000000            23.985042          0.00000000  0.00000000 -1.13524290

	 - Coordinate -           - BOHR/RAD -       - ANG/DEG -
	 R(1,2)           =         4.156581           2.199568

	        --- Internal Coordinate Step in ANG or DEG, aJ/ANG or AJ/DEG ---
	-------------------------------------------------------------------------------
	           Coordinate      Previous         Force          Change          New
	           ----------      --------        ------          ------        ------
	               R(1,2)       2.19957        0.00059        0.00048       2.20004
	-------------------------------------------------------------------------------

	                                 ==> Convergence Check <==

	Measures of convergence in internal coordinates in au.

	Criteria marked as inactive (o), active & met (*), and active & unmet ( ).

	----------------------------------------------------------------------------------------------
	   Step    Total Energy     Delta E     Max Force     RMS Force      Max Disp      RMS Disp
	----------------------------------------------------------------------------------------------
	  Convergence Criteria     1.00e-06 *    3.00e-04 *             o    1.20e-03 *             o
	----------------------------------------------------------------------------------------------
	    11    -214.32977044   -4.47e-07 *    7.13e-05 *    7.13e-05 o    9.01e-04 *    9.01e-04 o  ~
	----------------------------------------------------------------------------------------------

Next Geometry in Ang
	Fragment 1 (Ang)

	   Be   0.0000000000   0.0000000000   1.5990615545
	   Mg   0.0000000000   0.0000000000  -0.6009831768

    Final optimized geometry and variables:
    Molecular point group: c2v
    Full point group: C_inf_v

    Geometry (in Angstrom), charge = 1, multiplicity = 4:

    BE           0.000000000000     0.000000000000     1.598823050150
    MG           0.000000000000     0.000000000000    -0.600744672389

    Psi4 stopped on: Thursday, 17 July 2025 01:21PM
    Psi4 wall time for execution: 0:00:12.30

*** Psi4 exiting successfully. Buy a developer a beer!
