                               Psi4 1.9.1 release

  ==> Input File <==

--------------------------------------------------------------------------
molecule {
1 4
N   0.00000        0.60000        0.00000
Al   0.00000       -0.60000        0.00000
}

set {
basis              cc-pvdz
reference          uks
maxiter            500
geom_maxiter       500
DAMPING_PERCENTAGE 1
guess              SAP
}

optimize('b3lyp')
--------------------------------------------------------------------------

    Molecular point group: c2v
  Charge       = 1
  Multiplicity = 4
  Basis Set: CC-PVDZ
    Blend: CC-PVDZ
  Basis Set: (CC-PVDZ AUX)
    Blend: CC-PVDZ-JKFIT
  @DF-UKS Final Energy:  -296.27709021690202
    Total Energy =                       -296.2770902169019678
 Dipole X            :          0.0000000            0.0000000            0.0000000
 Dipole Y            :          0.0000000            0.0000000            0.0000000
 Dipole Z            :         -1.1208903            0.3779474           -0.7429430
 Magnitude           :                                                    0.7429430
    Molecular point group: c2v
  Basis Set: CC-PVDZ
    Blend: CC-PVDZ
  Basis Set: (CC-PVDZ AUX)
    Blend: CC-PVDZ-JKFIT
  Basis Set: CC-PVDZ
    Blend: CC-PVDZ
  Basis Set: (CC-PVDZ AUX)
    Blend: CC-PVDZ-JKFIT
  @DF-UKS Final Energy:  -296.50526964214640
    Total Energy =                       -296.5052696421463452
  Basis Set: CC-PVDZ
    Blend: CC-PVDZ
  Basis Set: (CC-PVDZ AUX)
    Blend: CC-PVDZ-JKFIT
  Basis Set: CC-PVDZ
    Blend: CC-PVDZ
  @DF-UKS Final Energy:  -296.60933427039919
    Total Energy =                       -296.6093342703991880
  @DF-UKS Final Energy:  -296.65256477682294
    Total Energy =                       -296.6525647768229419
  @DF-UKS Final Energy:  -296.66448671006333
    Total Energy =                       -296.6644867100633292
  @DF-UKS Final Energy:  -296.66935869313556
    Total Energy =                       -296.6693586931355640
  @DF-UKS Final Energy:  -296.67038938311572
    Total Energy =                       -296.6703893831157188
  @DF-UKS Final Energy:  -296.67063046266395
    Total Energy =                       -296.6706304626639508
  @DF-UKS Final Energy:  -296.67070115555828
    Total Energy =                       -296.6707011555582767
  Basis Set: (CC-PVDZ AUX)
    Blend: CC-PVDZ-JKFIT
  Basis Set: CC-PVDZ
    Blend: CC-PVDZ
  Basis Set: (CC-PVDZ AUX)
    Blend: CC-PVDZ-JKFIT
  @DF-UKS Final Energy:  -296.67070969947150
    Total Energy =                       -296.6707096994714448
  Basis Set: CC-PVDZ
    Blend: CC-PVDZ
  Basis Set: (CC-PVDZ AUX)
    Blend: CC-PVDZ-JKFIT
  Charge       = 1
  Multiplicity = 4
  Basis Set: CC-PVDZ
    Blend: CC-PVDZ
  Basis Set: (CC-PVDZ AUX)
    Blend: CC-PVDZ-JKFIT

    Orbital Energies [Eh]
    ---------------------

    Alpha Occupied:

       1A1   -56.451269     2A1   -14.653355     3A1    -4.523072
       1B2    -3.077161     4A1    -3.075191     1B1    -3.074260
       5A1    -1.058544     6A1    -0.677017     2B2    -0.596321
       7A1    -0.546393     2B1    -0.544791

    Alpha Virtual:

       3B2    -0.317700     3B1    -0.305841     8A1    -0.200960
       9A1    -0.057110     4B2    -0.014090     4B1    -0.010387
      10A1    -0.006493     1A2    -0.006439    11A1     0.015818
       5B2     0.043474     5B1     0.057465    12A1     0.253948
      13A1     0.532836     6B2     0.534586     6B1     0.568269
      14A1     0.990470    15A1     1.484017     2A2     1.484251
       7B2     1.536127     7B1     1.575986    16A1     1.847892

    Beta Occupied:

       1A1   -56.445501     2A1   -14.614211     3A1    -4.514027
       1B2    -3.070451     1B1    -3.068849     4A1    -3.065053
       5A1    -0.938518     2B1    -0.499809

    Beta Virtual:

       6A1    -0.489735     2B2    -0.393787     7A1    -0.368930
       3B1    -0.261911     3B2    -0.240013     8A1    -0.157914
       9A1    -0.031837     4B1     0.001125     4B2     0.005358
       1A2     0.024114    10A1     0.029497    11A1     0.064289
       5B1     0.101276     5B2     0.113193    12A1     0.301463
       6B1     0.596243     6B2     0.620848    13A1     0.622352
      14A1     1.060978     2A2     1.563216    15A1     1.571633
       7B1     1.651007     7B2     1.672333    16A1     1.948744

    Final Occupation by Irrep:
             A1    A2    B1    B2
    DOCC [     5,    0,    2,    1 ]
    SOCC [     2,    0,    0,    1 ]
    NA   [     7,    0,    2,    2 ]
    NB   [     5,    0,    2,    1 ]

  @DF-UKS Final Energy:  -296.67071013556654

   => Energetics <=

    Nuclear Repulsion Energy =             27.3921814243381085
    One-Electron Energy =                -459.0935043079371098
    Two-Electron Energy =                 155.3630812107050474
    DFT Exchange-Correlation Energy =     -20.3324684626725620
    Empirical Dispersion Energy =           0.0000000000000000
    VV10 Nonlocal Energy =                  0.0000000000000000
    Total Energy =                       -296.6707101355665372

  UHF NO Occupations:
  HONO-2 :    6 A1 1.0000000
  HONO-1 :    7 A1 1.0000000
  HONO-0 :    2 B2 1.0000000
  LUNO+0 :    3 B1 0.0022358
  LUNO+1 :    8 A1 0.0008447
  LUNO+2 :    3 B2 0.0000011
  LUNO+3 :    4 B1 0.0000009

Computation Completed

Properties will be evaluated at   0.000000,   0.000000,   0.000000 [a0]

Properties computed using the SCF density matrix

 Multipole Moments:

 ------------------------------------------------------------------------------------
     Multipole            Electronic (a.u.)      Nuclear  (a.u.)        Total (a.u.)
 ------------------------------------------------------------------------------------

 L = 1.  Multiply by 2.5417464519 to convert [e a0] to [Debye]
 Dipole X            :          0.0000000            0.0000000            0.0000000
 Dipole Y            :          0.0000000            0.0000000            0.0000000
 Dipole Z            :         -2.0033903            0.5536891           -1.4497012
 Magnitude           :                                                    1.4497012

 ------------------------------------------------------------------------------------

*** tstop() called on Joses-MacBook-Pro-2.local at Thu Jul 17 13:55:02 2025
Module time:
	user time   =       1.51 seconds =       0.03 minutes
	system time =       5.07 seconds =       0.08 minutes
	total time  =          0 seconds =       0.00 minutes
Total time:
	user time   =      30.81 seconds =       0.51 minutes
	system time =      83.81 seconds =       1.40 minutes
	total time  =         11 seconds =       0.18 minutes

*** tstart() called on Joses-MacBook-Pro-2.local
*** at Thu Jul 17 13:55:02 2025

         ------------------------------------------------------------
                                   SCF GRAD
                          Rob Parrish, Justin Turney,
                       Andy Simmonett, and Alex Sokolov
         ------------------------------------------------------------

  ==> Geometry <==

    Molecular point group: c2v
    Full point group: C_inf_v

    Geometry (in Angstrom), charge = 1, multiplicity = 4:

       Center              X                  Y                   Z               Mass
    ------------   -----------------  -----------------  -----------------  -----------------
         N            0.000000000000     0.000000000000     1.157342181815    14.003074004430
         AL           0.000000000000     0.000000000000    -0.600645815745    26.981538530000

  Nuclear repulsion =   27.392181424338109

  ==> Basis Set <==

  Basis Set: CC-PVDZ
    Blend: CC-PVDZ
    Number of shells: 14
    Number of basis functions: 32
    Number of Cartesian functions: 34
    Spherical Harmonics?: true
    Max angular momentum: 2

  ==> DFJKGrad: Density-Fitted SCF Gradients <==

    Gradient:                    1
    J tasked:                  Yes
    K tasked:                  Yes
    wK tasked:                  No
    OpenMP threads:              1
    Integrals threads:           1
    Memory [MiB]:              375
    Schwarz Cutoff:          1E-12
    Fitting Condition:       1E-10

   => Auxiliary Basis Set <=

  Basis Set: (CC-PVDZ AUX)
    Blend: CC-PVDZ-JKFIT
    Number of shells: 60
    Number of basis functions: 182
    Number of Cartesian functions: 211
    Spherical Harmonics?: true
    Max angular momentum: 3

  ==> DFT Potential <==

   => LibXC <=

    Version 6.2.2
    S. Lehtola, C. Steigemann, M. J.T. Oliveira, and M. A.L. Marques.,  SoftwareX 7, 1â€“5 (2018) (10.1016/j.softx.2017.11.002)

   => Composite Functional: B3LYP <=

    B3LYP Hyb-GGA Exchange-Correlation Functional

    P. J. Stephens, F. J. Devlin, C. F. Chabalowski, and M. J. Frisch.,  J. Phys. Chem. 98, 11623 (1994) (10.1021/j100096a001)

    Deriv               =              1
    GGA                 =           TRUE
    Meta                =          FALSE

    Exchange Hybrid     =           TRUE
    MP2 Hybrid          =          FALSE

   => Exchange Functionals <=

    0.0800   Slater exchange
    0.7200         Becke 88

   => Exact (HF) Exchange <=

    0.2000               HF

   => Correlation Functionals <=

    0.1900   Vosko, Wilk & Nusair (VWN5_RPA)
    0.8100   Lee, Yang & Parr

   => LibXC Density Thresholds  <==

    XC_HYB_GGA_XC_B3LYP:  1.00E-15

   => Molecular Quadrature <=

    Radial Scheme          =       TREUTLER
    Pruning Scheme         =           NONE
    Nuclear Scheme         =       TREUTLER

    Blocking Scheme        =         OCTREE
    BS radius alpha        =              1
    Pruning alpha          =              1
    Radial Points          =             75
    Spherical Points       =            302
    Total Points           =          43463
    Total Blocks           =            405
    Max Points             =            256
    Max Functions          =             32
    Weights Tolerance      =       1.00E-15

  -Total Gradient:
     Atom            X                  Y                   Z
    ------   -----------------  -----------------  -----------------
       1        0.000000000000     0.000000000000    -0.000063882182
       2        0.000000000000    -0.000000000000     0.000047459765

*** tstop() called on Joses-MacBook-Pro-2.local at Thu Jul 17 13:55:03 2025
Module time:
	user time   =       0.59 seconds =       0.01 minutes
	system time =       1.80 seconds =       0.03 minutes
	total time  =          1 seconds =       0.02 minutes
Total time:
	user time   =      31.40 seconds =       0.52 minutes
	system time =      85.61 seconds =       1.43 minutes
	total time  =         12 seconds =       0.20 minutes

    			-----------------------------------------

    			 OPTKING 3.0: for geometry optimizations

    			     By R.A. King, Bethel University

    			        with contributions from

    			    A.V. Copan, J. Cayton, A. Heide

    			-----------------------------------------

	                            ===> Fragment 1 <==

	 Z (Atomic Numbers)          Masses                          Geom
	       7.000000            14.003074          0.00000000  0.00000000  2.18705976
	      13.000000            26.981539          0.00000000  0.00000000 -1.13505609

	 - Coordinate -           - BOHR/RAD -       - ANG/DEG -
	 R(1,2)           =         3.322116           1.757988

	        --- Internal Coordinate Step in ANG or DEG, aJ/ANG or AJ/DEG ---
	-------------------------------------------------------------------------------
	           Coordinate      Previous         Force          Change          New
	           ----------      --------        ------          ------        ------
	               R(1,2)       1.75799        0.00046        0.00011       1.75810
	-------------------------------------------------------------------------------

	                                 ==> Convergence Check <==

	Measures of convergence in internal coordinates in au.

	Criteria marked as inactive (o), active & met (*), and active & unmet ( ).

	----------------------------------------------------------------------------------------------
	   Step    Total Energy     Delta E     Max Force     RMS Force      Max Disp      RMS Disp
	----------------------------------------------------------------------------------------------
	  Convergence Criteria     1.00e-06 *    3.00e-04 *             o    1.20e-03 *             o
	----------------------------------------------------------------------------------------------
	    11    -296.67071014   -4.36e-07 *    5.57e-05 *    5.57e-05 o    2.05e-04 *    2.05e-04 o  ~
	----------------------------------------------------------------------------------------------

Next Geometry in Ang
	Fragment 1 (Ang)

	    N   0.0000000000   0.0000000000   1.1573963043
	   Al   0.0000000000   0.0000000000  -0.6006999383

    Final optimized geometry and variables:
    Molecular point group: c2v
    Full point group: C_inf_v

    Geometry (in Angstrom), charge = 1, multiplicity = 4:

    N            0.000000000000     0.000000000000     1.157342181815
    AL           0.000000000000     0.000000000000    -0.600645815745

    Psi4 stopped on: Thursday, 17 July 2025 01:55PM
    Psi4 wall time for execution: 0:00:12.67

*** Psi4 exiting successfully. Buy a developer a beer!
