                               Psi4 1.9.1 release

  ==> Input File <==

--------------------------------------------------------------------------
molecule {
1 4
C   0.00000        0.60000        0.00000
Si   0.00000       -0.60000        0.00000
}

set {
basis              cc-pvdz
reference          uks
maxiter            500
geom_maxiter       500
DAMPING_PERCENTAGE 1
guess              SAP
}

optimize('b3lyp')
--------------------------------------------------------------------------

    Molecular point group: c2v
  Charge       = 1
  Multiplicity = 4
  Basis Set: CC-PVDZ
    Blend: CC-PVDZ
  Basis Set: (CC-PVDZ AUX)
    Blend: CC-PVDZ-JKFIT
  @DF-UKS Final Energy:  -326.59673492143406
    Total Energy =                       -326.5967349214340629
 Dipole X            :          0.0000000            0.0000000            0.0000000
 Dipole Y            :          0.0000000            0.0000000            0.0000000
 Dipole Z            :         -0.8897553           -0.0078530           -0.8976083
 Magnitude           :                                                    0.8976083
    Molecular point group: c2v
  Basis Set: CC-PVDZ
    Blend: CC-PVDZ
  Basis Set: (CC-PVDZ AUX)
    Blend: CC-PVDZ-JKFIT
  Basis Set: CC-PVDZ
    Blend: CC-PVDZ
  Basis Set: (CC-PVDZ AUX)
    Blend: CC-PVDZ-JKFIT
  @DF-UKS Final Energy:  -326.81640971782582
    Total Energy =                       -326.8164097178257634
  Basis Set: CC-PVDZ
    Blend: CC-PVDZ
  Basis Set: (CC-PVDZ AUX)
    Blend: CC-PVDZ-JKFIT
  Basis Set: CC-PVDZ
    Blend: CC-PVDZ
  @DF-UKS Final Energy:  -326.90739315505709
    Total Energy =                       -326.9073931550570933
  @DF-UKS Final Energy:  -327.00644248213496
    Total Energy =                       -327.0064424821349576
  @DF-UKS Final Energy:  -327.05612628406169
    Total Energy =                       -327.0561262840616337
  @DF-UKS Final Energy:  -327.06757302525398
    Total Energy =                       -327.0675730252539779
  @DF-UKS Final Energy:  -327.06815965547213
    Total Energy =                       -327.0681596554721295
  @DF-UKS Final Energy:  -327.06821632316849
    Total Energy =                       -327.0682163231685422
  Basis Set: (CC-PVDZ AUX)
    Blend: CC-PVDZ-JKFIT
  Basis Set: CC-PVDZ
    Blend: CC-PVDZ
  Basis Set: (CC-PVDZ AUX)
    Blend: CC-PVDZ-JKFIT
  @DF-UKS Final Energy:  -327.06822218402925
    Total Energy =                       -327.0682221840292527
  Basis Set: CC-PVDZ
    Blend: CC-PVDZ
  Basis Set: (CC-PVDZ AUX)
    Blend: CC-PVDZ-JKFIT
  Charge       = 1
  Multiplicity = 4
  Basis Set: CC-PVDZ
    Blend: CC-PVDZ
  Basis Set: (CC-PVDZ AUX)
    Blend: CC-PVDZ-JKFIT

    Orbital Energies [Eh]
    ---------------------

    Alpha Occupied:

       1A1   -66.515310     2A1   -10.566009     3A1    -5.649845
       1B2    -4.009707     1B1    -4.009707     4A1    -4.006083
       5A1    -0.954684     6A1    -0.700837     7A1    -0.559888
       2B1    -0.556548     2B2    -0.556548

    Alpha Virtual:

       3B1    -0.352587     3B2    -0.352587     8A1    -0.200666
       9A1     0.000663     4B2     0.052054     4B1     0.052054
      10A1     0.065717     1A2     0.065717    11A1     0.076220
       5B1     0.116631     5B2     0.116631    12A1     0.184101
       6B1     0.272582     6B2     0.272582    13A1     0.436641
      14A1     0.582242     2A2     0.859236    15A1     0.859238
       7B1     1.012892     7B2     1.012892    16A1     1.366345

    Beta Occupied:

       1A1   -66.512172     2A1   -10.533186     3A1    -5.646314
       1B2    -4.004881     1B1    -4.004881     4A1    -4.000126
       5A1    -0.854473     6A1    -0.622416

    Beta Virtual:

       2B1    -0.418057     2B2    -0.418057     7A1    -0.404964
       3B1    -0.283494     3B2    -0.283494     8A1    -0.162811
       9A1     0.018643     4B2     0.068650     4B1     0.068650
       1A2     0.095778    10A1     0.095778    11A1     0.107265
       5B1     0.162667     5B2     0.162667    12A1     0.230123
       6B1     0.325496     6B2     0.325496    13A1     0.490983
      14A1     0.640847     2A2     0.957155    15A1     0.957159
       7B1     1.105421     7B2     1.105421    16A1     1.446516

    Final Occupation by Irrep:
             A1    A2    B1    B2
    DOCC [     6,    0,    1,    1 ]
    SOCC [     1,    0,    1,    1 ]
    NA   [     7,    0,    2,    2 ]
    NB   [     6,    0,    1,    1 ]

  @DF-UKS Final Energy:  -327.06822279903224

   => Energetics <=

    Nuclear Repulsion Energy =             24.0718046794291105
    One-Electron Energy =                -493.1194759428047973
    Two-Electron Energy =                 162.8352750702937612
    DFT Exchange-Correlation Energy =     -20.8558266059503197
    Empirical Dispersion Energy =           0.0000000000000000
    VV10 Nonlocal Energy =                  0.0000000000000000
    Total Energy =                       -327.0682227990321849

  UHF NO Occupations:
  HONO-2 :    2 B2 1.0000000
  HONO-1 :    2 B1 1.0000000
  HONO-0 :    7 A1 1.0000000
  LUNO+0 :    8 A1 0.0006723
  LUNO+1 :    9 A1 0.0001456
  LUNO+2 :   10 A1 0.0000002
  LUNO+3 :    3 B1 0.0000000

Computation Completed

Properties will be evaluated at   0.000000,   0.000000,   0.000000 [a0]

Properties computed using the SCF density matrix

 Multipole Moments:

 ------------------------------------------------------------------------------------
     Multipole            Electronic (a.u.)      Nuclear  (a.u.)        Total (a.u.)
 ------------------------------------------------------------------------------------

 L = 1.  Multiply by 2.5417464519 to convert [e a0] to [Debye]
 Dipole X            :          0.0000000            0.0000000            0.0000000
 Dipole Y            :          0.0000000            0.0000000            0.0000000
 Dipole Z            :         -0.5065161           -0.0120844           -0.5186005
 Magnitude           :                                                    0.5186005

 ------------------------------------------------------------------------------------

*** tstop() called on Joses-MacBook-Pro-2.local at Thu Jul 17 13:44:52 2025
Module time:
	user time   =       2.73 seconds =       0.05 minutes
	system time =       3.48 seconds =       0.06 minutes
	total time  =          0 seconds =       0.00 minutes
Total time:
	user time   =      39.60 seconds =       0.66 minutes
	system time =      62.99 seconds =       1.05 minutes
	total time  =         10 seconds =       0.17 minutes

*** tstart() called on Joses-MacBook-Pro-2.local
*** at Thu Jul 17 13:44:52 2025

         ------------------------------------------------------------
                                   SCF GRAD
                          Rob Parrish, Justin Turney,
                       Andy Simmonett, and Alex Sokolov
         ------------------------------------------------------------

  ==> Geometry <==

    Molecular point group: c2v
    Full point group: C_inf_v

    Geometry (in Angstrom), charge = 1, multiplicity = 4:

       Center              X                  Y                   Z               Mass
    ------------   -----------------  -----------------  -----------------  -----------------
         C            0.000000000000     0.000000000000     1.292297095799    12.000000000000
         SI           0.000000000000     0.000000000000    -0.554298383362    27.976926534650

  Nuclear repulsion =   24.071804679429111

  ==> Basis Set <==

  Basis Set: CC-PVDZ
    Blend: CC-PVDZ
    Number of shells: 14
    Number of basis functions: 32
    Number of Cartesian functions: 34
    Spherical Harmonics?: true
    Max angular momentum: 2

  ==> DFJKGrad: Density-Fitted SCF Gradients <==

    Gradient:                    1
    J tasked:                  Yes
    K tasked:                  Yes
    wK tasked:                  No
    OpenMP threads:              1
    Integrals threads:           1
    Memory [MiB]:              375
    Schwarz Cutoff:          1E-12
    Fitting Condition:       1E-10

   => Auxiliary Basis Set <=

  Basis Set: (CC-PVDZ AUX)
    Blend: CC-PVDZ-JKFIT
    Number of shells: 60
    Number of basis functions: 182
    Number of Cartesian functions: 211
    Spherical Harmonics?: true
    Max angular momentum: 3

  ==> DFT Potential <==

   => LibXC <=

    Version 6.2.2
    S. Lehtola, C. Steigemann, M. J.T. Oliveira, and M. A.L. Marques.,  SoftwareX 7, 1â€“5 (2018) (10.1016/j.softx.2017.11.002)

   => Composite Functional: B3LYP <=

    B3LYP Hyb-GGA Exchange-Correlation Functional

    P. J. Stephens, F. J. Devlin, C. F. Chabalowski, and M. J. Frisch.,  J. Phys. Chem. 98, 11623 (1994) (10.1021/j100096a001)

    Deriv               =              1
    GGA                 =           TRUE
    Meta                =          FALSE

    Exchange Hybrid     =           TRUE
    MP2 Hybrid          =          FALSE

   => Exchange Functionals <=

    0.0800   Slater exchange
    0.7200         Becke 88

   => Exact (HF) Exchange <=

    0.2000               HF

   => Correlation Functionals <=

    0.1900   Vosko, Wilk & Nusair (VWN5_RPA)
    0.8100   Lee, Yang & Parr

   => LibXC Density Thresholds  <==

    XC_HYB_GGA_XC_B3LYP:  1.00E-15

   => Molecular Quadrature <=

    Radial Scheme          =       TREUTLER
    Pruning Scheme         =           NONE
    Nuclear Scheme         =       TREUTLER

    Blocking Scheme        =         OCTREE
    BS radius alpha        =              1
    Pruning alpha          =              1
    Radial Points          =             75
    Spherical Points       =            302
    Total Points           =          42449
    Total Blocks           =            388
    Max Points             =            255
    Max Functions          =             32
    Weights Tolerance      =       1.00E-15

  -Total Gradient:
     Atom            X                  Y                   Z
    ------   -----------------  -----------------  -----------------
       1       -0.000000000000     0.000000000000    -0.000181801751
       2        0.000000000000     0.000000000000     0.000166451812

*** tstop() called on Joses-MacBook-Pro-2.local at Thu Jul 17 13:44:53 2025
Module time:
	user time   =       0.81 seconds =       0.01 minutes
	system time =       1.64 seconds =       0.03 minutes
	total time  =          1 seconds =       0.02 minutes
Total time:
	user time   =      40.41 seconds =       0.67 minutes
	system time =      64.63 seconds =       1.08 minutes
	total time  =         11 seconds =       0.18 minutes

    			-----------------------------------------

    			 OPTKING 3.0: for geometry optimizations

    			     By R.A. King, Bethel University

    			        with contributions from

    			    A.V. Copan, J. Cayton, A. Heide

    			-----------------------------------------

	                            ===> Fragment 1 <==

	 Z (Atomic Numbers)          Masses                          Geom
	       6.000000            12.000000          0.00000000  0.00000000  2.44208758
	      14.000000            27.976927          0.00000000  0.00000000 -1.04747214

	 - Coordinate -           - BOHR/RAD -       - ANG/DEG -
	 R(1,2)           =         3.489560           1.846595

	        --- Internal Coordinate Step in ANG or DEG, aJ/ANG or AJ/DEG ---
	-------------------------------------------------------------------------------
	           Coordinate      Previous         Force          Change          New
	           ----------      --------        ------          ------        ------
	               R(1,2)       1.84660        0.00143        0.00042       1.84701
	-------------------------------------------------------------------------------

	                                 ==> Convergence Check <==

	Measures of convergence in internal coordinates in au.

	Criteria marked as inactive (o), active & met (*), and active & unmet ( ).

	----------------------------------------------------------------------------------------------
	   Step    Total Energy     Delta E     Max Force     RMS Force      Max Disp      RMS Disp
	----------------------------------------------------------------------------------------------
	  Convergence Criteria     1.00e-06 *    3.00e-04 *             o    1.20e-03 *             o
	----------------------------------------------------------------------------------------------
	    10    -327.06822280   -6.15e-07 *    1.74e-04 *    1.74e-04 o    7.86e-04 *    7.86e-04 o  ~
	----------------------------------------------------------------------------------------------

Next Geometry in Ang
	Fragment 1 (Ang)

	    C   0.0000000000   0.0000000000   1.2925051197
	   Si   0.0000000000   0.0000000000  -0.5545064073

    Final optimized geometry and variables:
    Molecular point group: c2v
    Full point group: C_inf_v

    Geometry (in Angstrom), charge = 1, multiplicity = 4:

    C            0.000000000000     0.000000000000     1.292297095799
    SI           0.000000000000     0.000000000000    -0.554298383362

    Psi4 stopped on: Thursday, 17 July 2025 01:44PM
    Psi4 wall time for execution: 0:00:10.66

*** Psi4 exiting successfully. Buy a developer a beer!
