                               Psi4 1.9.1 release

  ==> Input File <==

--------------------------------------------------------------------------
molecule {
1 4
F   0.00000        0.60000        0.00000
P   0.00000       -0.60000        0.00000
}

set {
basis              cc-pvdz
reference          uks
maxiter            500
geom_maxiter       500
DAMPING_PERCENTAGE 1
guess              SAP
}

optimize('b3lyp')
--------------------------------------------------------------------------

    Molecular point group: c2v
  Charge       = 1
  Multiplicity = 4
  Basis Set: CC-PVDZ
    Blend: CC-PVDZ
  Basis Set: (CC-PVDZ AUX)
    Blend: CC-PVDZ-JKFIT
  @DF-UKS Final Energy:  -440.39161935555853
    Total Energy =                       -440.3916193555585323
 Dipole X            :          0.0000000            0.0000000            0.0000000
 Dipole Y            :          0.0000000            0.0000000            0.0000000
 Dipole Z            :         -0.4051037           -0.2819010           -0.6870047
 Magnitude           :                                                    0.6870047
    Molecular point group: c2v
  Basis Set: CC-PVDZ
    Blend: CC-PVDZ
  Basis Set: (CC-PVDZ AUX)
    Blend: CC-PVDZ-JKFIT
  Basis Set: CC-PVDZ
    Blend: CC-PVDZ
  Basis Set: (CC-PVDZ AUX)
    Blend: CC-PVDZ-JKFIT
  @DF-UKS Final Energy:  -440.53957280476635
    Total Energy =                       -440.5395728047662942
  Basis Set: CC-PVDZ
    Blend: CC-PVDZ
  Basis Set: (CC-PVDZ AUX)
    Blend: CC-PVDZ-JKFIT
  Basis Set: CC-PVDZ
    Blend: CC-PVDZ
  @DF-UKS Final Energy:  -440.60640453350743
    Total Energy =                       -440.6064045335074297
  @DF-UKS Final Energy:  -440.62681042158238
    Total Energy =                       -440.6268104215823769
  @DF-UKS Final Energy:  -440.63717244375232
    Total Energy =                       -440.6371724437522630
  @DF-UKS Final Energy:  -440.64049320932071
    Total Energy =                       -440.6404932093207094
  @DF-UKS Final Energy:  -440.64217606956095
    Total Energy =                       -440.6421760695609464
  @DF-UKS Final Energy:  -440.64265308147469
    Total Energy =                       -440.6426530814746911
  @DF-UKS Final Energy:  -440.64283723336524
    Total Energy =                       -440.6428372333652419
  @DF-UKS Final Energy:  -440.64288819063722
    Total Energy =                       -440.6428881906371657
  Basis Set: (CC-PVDZ AUX)
    Blend: CC-PVDZ-JKFIT
  Basis Set: CC-PVDZ
    Blend: CC-PVDZ
  Basis Set: (CC-PVDZ AUX)
    Blend: CC-PVDZ-JKFIT
  @DF-UKS Final Energy:  -440.64289582351847
    Total Energy =                       -440.6428958235184155
  Basis Set: CC-PVDZ
    Blend: CC-PVDZ
  Basis Set: (CC-PVDZ AUX)
    Blend: CC-PVDZ-JKFIT
  Charge       = 1
  Multiplicity = 4
  Basis Set: CC-PVDZ
    Blend: CC-PVDZ
  Basis Set: (CC-PVDZ AUX)
    Blend: CC-PVDZ-JKFIT

    Orbital Energies [Eh]
    ---------------------

    Alpha Occupied:

       1A1   -77.554836     2A1   -25.102493     3A1    -7.013817
       4A1    -5.179973     1B2    -5.175999     1B1    -5.175999
       5A1    -1.572174     6A1    -0.991467     7A1    -0.826223
       2B1    -0.800647     2B2    -0.800647     3B2    -0.578695
       3B1    -0.578695

    Alpha Virtual:

       8A1    -0.362814     9A1     0.038607    10A1     0.081095
       1A2     0.081096     4B1     0.097871     4B2     0.097871
      11A1     0.114495     5B1     0.124466     5B2     0.124466
      12A1     0.309866     6B1     0.902441     6B2     0.902441
      13A1     0.905090    14A1     1.769937     2A2     3.195802
      15A1     3.195866     7B1     3.203034     7B2     3.203034
      16A1     3.411923

    Beta Occupied:

       1A1   -77.540412     2A1   -25.084298     3A1    -6.996984
       4A1    -5.166922     1B2    -5.151522     1B1    -5.151522
       5A1    -1.527028     6A1    -0.886616     2B1    -0.767509
       2B2    -0.767509

    Beta Virtual:

       7A1    -0.642705     3B2    -0.405721     3B1    -0.405721
       8A1    -0.293083     9A1     0.076399    10A1     0.140854
       4B1     0.143783     4B2     0.143783     1A2     0.198810
      11A1     0.198810     5B1     0.204413     5B2     0.204413
      12A1     0.374398     6B1     0.920811     6B2     0.920811
      13A1     0.948995    14A1     1.796718     2A2     3.214841
      15A1     3.214907     7B1     3.249829     7B2     3.249829
      16A1     3.466468

    Final Occupation by Irrep:
             A1    A2    B1    B2
    DOCC [     6,    0,    2,    2 ]
    SOCC [     1,    0,    1,    1 ]
    NA   [     7,    0,    3,    3 ]
    NB   [     6,    0,    2,    2 ]

  @DF-UKS Final Energy:  -440.64289638594596

   => Energetics <=

    Nuclear Repulsion Energy =             43.0537868617602939
    One-Electron Energy =                -687.8250773825635633
    Two-Electron Energy =                 231.0056170824797448
    DFT Exchange-Correlation Energy =     -26.8772229476224389
    Empirical Dispersion Energy =           0.0000000000000000
    VV10 Nonlocal Energy =                  0.0000000000000000
    Total Energy =                       -440.6428963859460168

  UHF NO Occupations:
  HONO-2 :    7 A1 1.0000000
  HONO-1 :    3 B1 1.0000000
  HONO-0 :    3 B2 1.0000000
  LUNO+0 :    8 A1 0.0018838
  LUNO+1 :    4 B2 0.0001787
  LUNO+2 :    4 B1 0.0001787
  LUNO+3 :    9 A1 0.0000613

Computation Completed

Properties will be evaluated at   0.000000,   0.000000,   0.000000 [a0]

Properties computed using the SCF density matrix

 Multipole Moments:

 ------------------------------------------------------------------------------------
     Multipole            Electronic (a.u.)      Nuclear  (a.u.)        Total (a.u.)
 ------------------------------------------------------------------------------------

 L = 1.  Multiply by 2.5417464519 to convert [e a0] to [Debye]
 Dipole X            :          0.0000000            0.0000000            0.0000000
 Dipole Y            :          0.0000000            0.0000000            0.0000000
 Dipole Z            :         -0.8256919           -0.3897974           -1.2154893
 Magnitude           :                                                    1.2154893

 ------------------------------------------------------------------------------------

*** tstop() called on Joses-MacBook-Pro-2.local at Thu Jul 17 14:29:22 2025
Module time:
	user time   =       3.25 seconds =       0.05 minutes
	system time =       3.86 seconds =       0.06 minutes
	total time  =          1 seconds =       0.02 minutes
Total time:
	user time   =      57.93 seconds =       0.97 minutes
	system time =      58.83 seconds =       0.98 minutes
	total time  =         11 seconds =       0.18 minutes

*** tstart() called on Joses-MacBook-Pro-2.local
*** at Thu Jul 17 14:29:22 2025

         ------------------------------------------------------------
                                   SCF GRAD
                          Rob Parrish, Justin Turney,
                       Andy Simmonett, and Alex Sokolov
         ------------------------------------------------------------

  ==> Geometry <==

    Molecular point group: c2v
    Full point group: C_inf_v

    Geometry (in Angstrom), charge = 1, multiplicity = 4:

       Center              X                  Y                   Z               Mass
    ------------   -----------------  -----------------  -----------------  -----------------
         F            0.000000000000     0.000000000000     1.028464569772    18.998403162730
         P            0.000000000000     0.000000000000    -0.630830201901    30.973761998420

  Nuclear repulsion =   43.053786861760287

  ==> Basis Set <==

  Basis Set: CC-PVDZ
    Blend: CC-PVDZ
    Number of shells: 14
    Number of basis functions: 32
    Number of Cartesian functions: 34
    Spherical Harmonics?: true
    Max angular momentum: 2

  ==> DFJKGrad: Density-Fitted SCF Gradients <==

    Gradient:                    1
    J tasked:                  Yes
    K tasked:                  Yes
    wK tasked:                  No
    OpenMP threads:              1
    Integrals threads:           1
    Memory [MiB]:              375
    Schwarz Cutoff:          1E-12
    Fitting Condition:       1E-10

   => Auxiliary Basis Set <=

  Basis Set: (CC-PVDZ AUX)
    Blend: CC-PVDZ-JKFIT
    Number of shells: 60
    Number of basis functions: 182
    Number of Cartesian functions: 211
    Spherical Harmonics?: true
    Max angular momentum: 3

  ==> DFT Potential <==

   => LibXC <=

    Version 6.2.2
    S. Lehtola, C. Steigemann, M. J.T. Oliveira, and M. A.L. Marques.,  SoftwareX 7, 1â€“5 (2018) (10.1016/j.softx.2017.11.002)

   => Composite Functional: B3LYP <=

    B3LYP Hyb-GGA Exchange-Correlation Functional

    P. J. Stephens, F. J. Devlin, C. F. Chabalowski, and M. J. Frisch.,  J. Phys. Chem. 98, 11623 (1994) (10.1021/j100096a001)

    Deriv               =              1
    GGA                 =           TRUE
    Meta                =          FALSE

    Exchange Hybrid     =           TRUE
    MP2 Hybrid          =          FALSE

   => Exchange Functionals <=

    0.0800   Slater exchange
    0.7200         Becke 88

   => Exact (HF) Exchange <=

    0.2000               HF

   => Correlation Functionals <=

    0.1900   Vosko, Wilk & Nusair (VWN5_RPA)
    0.8100   Lee, Yang & Parr

   => LibXC Density Thresholds  <==

    XC_HYB_GGA_XC_B3LYP:  1.00E-15

   => Molecular Quadrature <=

    Radial Scheme          =       TREUTLER
    Pruning Scheme         =           NONE
    Nuclear Scheme         =       TREUTLER

    Blocking Scheme        =         OCTREE
    BS radius alpha        =              1
    Pruning alpha          =              1
    Radial Points          =             75
    Spherical Points       =            302
    Total Points           =          42488
    Total Blocks           =            381
    Max Points             =            255
    Max Functions          =             32
    Weights Tolerance      =       1.00E-15

  -Total Gradient:
     Atom            X                  Y                   Z
    ------   -----------------  -----------------  -----------------
       1        0.000000000000     0.000000000000    -0.000135443073
       2       -0.000000000000    -0.000000000000     0.000059227645

*** tstop() called on Joses-MacBook-Pro-2.local at Thu Jul 17 14:29:22 2025
Module time:
	user time   =       1.06 seconds =       0.02 minutes
	system time =       1.51 seconds =       0.03 minutes
	total time  =          0 seconds =       0.00 minutes
Total time:
	user time   =      58.99 seconds =       0.98 minutes
	system time =      60.34 seconds =       1.01 minutes
	total time  =         11 seconds =       0.18 minutes

    			-----------------------------------------

    			 OPTKING 3.0: for geometry optimizations

    			     By R.A. King, Bethel University

    			        with contributions from

    			    A.V. Copan, J. Cayton, A. Heide

    			-----------------------------------------

	                            ===> Fragment 1 <==

	 Z (Atomic Numbers)          Masses                          Geom
	       9.000000            18.998403          0.00000000  0.00000000  1.94351637
	      15.000000            30.973762          0.00000000  0.00000000 -1.19209631

	 - Coordinate -           - BOHR/RAD -       - ANG/DEG -
	 R(1,2)           =         3.135613           1.659295

	        --- Internal Coordinate Step in ANG or DEG, aJ/ANG or AJ/DEG ---
	-------------------------------------------------------------------------------
	           Coordinate      Previous         Force          Change          New
	           ----------      --------        ------          ------        ------
	               R(1,2)       1.65929        0.00080        0.00026       1.65955
	-------------------------------------------------------------------------------

	                                 ==> Convergence Check <==

	Measures of convergence in internal coordinates in au.

	Criteria marked as inactive (o), active & met (*), and active & unmet ( ).

	----------------------------------------------------------------------------------------------
	   Step    Total Energy     Delta E     Max Force     RMS Force      Max Disp      RMS Disp
	----------------------------------------------------------------------------------------------
	  Convergence Criteria     1.00e-06 *    3.00e-04 *             o    1.20e-03 *             o
	----------------------------------------------------------------------------------------------
	    12    -440.64289639   -5.62e-07 *    9.73e-05 *    9.73e-05 o    4.85e-04 *    4.85e-04 o  ~
	----------------------------------------------------------------------------------------------

Next Geometry in Ang
	Fragment 1 (Ang)

	    F   0.0000000000   0.0000000000   1.0285929173
	    P   0.0000000000   0.0000000000  -0.6309585494

    Final optimized geometry and variables:
    Molecular point group: c2v
    Full point group: C_inf_v

    Geometry (in Angstrom), charge = 1, multiplicity = 4:

    F            0.000000000000     0.000000000000     1.028464569772
    P            0.000000000000     0.000000000000    -0.630830201901

    Psi4 stopped on: Thursday, 17 July 2025 02:29PM
    Psi4 wall time for execution: 0:00:11.99

*** Psi4 exiting successfully. Buy a developer a beer!
