                               Psi4 1.9.1 release

  ==> Input File <==

--------------------------------------------------------------------------
molecule {
1 4
Cl   0.00000        0.60000        0.00000
Cl   0.00000       -0.60000        0.00000
}

set {
basis              cc-pvdz
reference          uks
maxiter            500
geom_maxiter       500
DAMPING_PERCENTAGE 1
guess              SAP
}

optimize('b3lyp')
--------------------------------------------------------------------------

    Molecular point group: d2h
  Charge       = 1
  Multiplicity = 4
  Basis Set: CC-PVDZ
    Blend: CC-PVDZ
  Basis Set: (CC-PVDZ AUX)
    Blend: CC-PVDZ-JKFIT
  @DF-UKS Final Energy:  -918.46703144561468
    Total Energy =                       -918.4670314456145661
 Dipole X            :          0.0000000            0.0000000            0.0000000
 Dipole Y            :          0.0000000            0.0000000            0.0000000
 Dipole Z            :          0.0000000            0.0000000            0.0000000
 Magnitude           :                                                    0.0000000
    Molecular point group: d2h
  Basis Set: CC-PVDZ
    Blend: CC-PVDZ
  Basis Set: (CC-PVDZ AUX)
    Blend: CC-PVDZ-JKFIT
  Basis Set: CC-PVDZ
    Blend: CC-PVDZ
  Basis Set: (CC-PVDZ AUX)
    Blend: CC-PVDZ-JKFIT
  @DF-UKS Final Energy:  -918.50996352438790
    Total Energy =                       -918.5099635243880130
  Basis Set: CC-PVDZ
    Blend: CC-PVDZ
  Basis Set: (CC-PVDZ AUX)
    Blend: CC-PVDZ-JKFIT
  Basis Set: CC-PVDZ
    Blend: CC-PVDZ
  @DF-UKS Final Energy:  -918.58809771189249
    Total Energy =                       -918.5880977118923738
  @DF-UKS Final Energy:  -918.83015139338067
    Total Energy =                       -918.8301513933806746
  @DF-UKS Final Energy:  -919.34950221134955
    Total Energy =                       -919.3495022113495452
  @DF-UKS Final Energy:  -919.61298594237974
    Total Energy =                       -919.6129859423796233
  @DF-UKS Final Energy:  -919.76901272950761
    Total Energy =                       -919.7690127295076081
  @DF-UKS Final Energy:  -919.85278708742965
    Total Energy =                       -919.8527870874295331
  @DF-UKS Final Energy:  -919.89169592654548
    Total Energy =                       -919.8916959265454807
  @DF-UKS Final Energy:  -919.90693033225671
    Total Energy =                       -919.9069303322565929
  @DF-UKS Final Energy:  -919.91159134197733
    Total Energy =                       -919.9115913419772141
  @DF-UKS Final Energy:  -919.91240700479864
    Total Energy =                       -919.9124070047986379
  @DF-UKS Final Energy:  -919.91259996864699
    Total Energy =                       -919.9125999686469868
  @DF-UKS Final Energy:  -919.91261800139716
    Total Energy =                       -919.9126180013971634
  Basis Set: (CC-PVDZ AUX)
    Blend: CC-PVDZ-JKFIT
  Basis Set: CC-PVDZ
    Blend: CC-PVDZ
  Basis Set: (CC-PVDZ AUX)
    Blend: CC-PVDZ-JKFIT
  @DF-UKS Final Energy:  -919.91261976090868
    Total Energy =                       -919.9126197609086830
  Basis Set: CC-PVDZ
    Blend: CC-PVDZ
  Basis Set: (CC-PVDZ AUX)
    Blend: CC-PVDZ-JKFIT
  Charge       = 1
  Multiplicity = 4
  Basis Set: CC-PVDZ
    Blend: CC-PVDZ
  Basis Set: (CC-PVDZ AUX)
    Blend: CC-PVDZ-JKFIT

    Orbital Energies [Eh]
    ---------------------

    Alpha Occupied:

       1B2u -101.937922     1Ag  -101.937921     2B2u   -9.849078
       2Ag    -9.849017     3Ag    -7.608694     3B2u   -7.608680
       1B1g   -7.608315     1B3g   -7.608315     1B3u   -7.608311
       1B1u   -7.608311     4Ag    -1.214728     4B2u   -1.145968
       5Ag    -0.765986     2B1u   -0.709881     2B3u   -0.709881
       2B3g   -0.663834     2B1g   -0.663834     5B2u   -0.590239

    Alpha Virtual:

       3B1u    0.188459     3B3u    0.188459     6B2u    0.212096
       6Ag     0.215727     3B1g    0.264885     3B3g    0.264885
       7Ag     0.283340     4B3u    0.318964     4B1u    0.318964
       8Ag     0.349125     1B2g    0.349129     7B2u    0.351881
       9Ag     0.360503     8B2u    0.364335     1Au     0.364339
       4B3g    0.470081     4B1g    0.470081     9B2u    0.902379

    Beta Occupied:

       1Ag  -101.925607     1B2u -101.925607     2B2u   -9.837073
       2Ag    -9.837051     1B3u   -7.590688     1B1u   -7.590688
       1B1g   -7.590687     1B3g   -7.590687     3Ag    -7.590312
       3B2u   -7.590293     4Ag    -1.139623     4B2u   -1.058154
       5Ag    -0.693089     2B1u   -0.630931     2B3u   -0.630931

    Beta Virtual:

       2B3g   -0.537012     2B1g   -0.537012     5B2u   -0.456909
       3B1u    0.223127     3B3u    0.223127     6B2u    0.245476
       6Ag     0.265334     3B1g    0.304793     3B3g    0.304793
       7Ag     0.320855     4B3u    0.377557     4B1u    0.377557
       8Ag     0.395737     7B2u    0.402479     9Ag     0.415546
       1B2g    0.415552     8B2u    0.433040     1Au     0.433045
       4B3g    0.528166     4B1g    0.528166     9B2u    0.946812

    Final Occupation by Irrep:
             Ag   B1g   B2g   B3g    Au   B1u   B2u   B3u
    DOCC [     5,    1,    0,    1,    0,    2,    4,    2 ]
    SOCC [     0,    1,    0,    1,    0,    0,    1,    0 ]
    NA   [     5,    2,    0,    2,    0,    2,    5,    2 ]
    NB   [     5,    1,    0,    1,    0,    2,    4,    2 ]

  @DF-UKS Final Energy:  -919.91261993711419

   => Energetics <=

    Nuclear Repulsion Energy =             65.3728584401829949
    One-Electron Energy =               -1389.5753086393610829
    Two-Electron Energy =                 449.4417223351591133
    DFT Exchange-Correlation Energy =     -45.1518920730950200
    Empirical Dispersion Energy =           0.0000000000000000
    VV10 Nonlocal Energy =                  0.0000000000000000
    Total Energy =                       -919.9126199371141865

  UHF NO Occupations:
  HONO-2 :    2B3g 1.0000000
  HONO-1 :    2B1g 1.0000000
  HONO-0 :    5B2u 1.0000000
  LUNO+0 :    3B1u 0.0008636
  LUNO+1 :    3B3u 0.0008636
  LUNO+2 :    6 Ag 0.0007215
  LUNO+3 :    7 Ag 0.0000666

Computation Completed

Properties will be evaluated at   0.000000,   0.000000,   0.000000 [a0]

Properties computed using the SCF density matrix

 Multipole Moments:

 ------------------------------------------------------------------------------------
     Multipole            Electronic (a.u.)      Nuclear  (a.u.)        Total (a.u.)
 ------------------------------------------------------------------------------------

 L = 1.  Multiply by 2.5417464519 to convert [e a0] to [Debye]
 Dipole X            :          0.0000000            0.0000000            0.0000000
 Dipole Y            :          0.0000000            0.0000000            0.0000000
 Dipole Z            :          0.0000000            0.0000000            0.0000000
 Magnitude           :                                                    0.0000000

 ------------------------------------------------------------------------------------

*** tstop() called on Joses-MacBook-Pro-2.local at Thu Jul 17 16:00:24 2025
Module time:
	user time   =       6.29 seconds =       0.10 minutes
	system time =       1.90 seconds =       0.03 minutes
	total time  =          1 seconds =       0.02 minutes
Total time:
	user time   =     164.83 seconds =       2.75 minutes
	system time =      53.63 seconds =       0.89 minutes
	total time  =         21 seconds =       0.35 minutes

*** tstart() called on Joses-MacBook-Pro-2.local
*** at Thu Jul 17 16:00:24 2025

         ------------------------------------------------------------
                                   SCF GRAD
                          Rob Parrish, Justin Turney,
                       Andy Simmonett, and Alex Sokolov
         ------------------------------------------------------------

  ==> Geometry <==

    Molecular point group: d2h
    Full point group: D_inf_h

    Geometry (in Angstrom), charge = 1, multiplicity = 4:

       Center              X                  Y                   Z               Mass
    ------------   -----------------  -----------------  -----------------  -----------------
         CL          -0.000000000000     1.169691960338     0.000000000000    34.968852682000
         CL           0.000000000000    -1.169691960338     0.000000000000    34.968852682000

  Nuclear repulsion =   65.372858440182995

  ==> Basis Set <==

  Basis Set: CC-PVDZ
    Blend: CC-PVDZ
    Number of shells: 16
    Number of basis functions: 36
    Number of Cartesian functions: 38
    Spherical Harmonics?: true
    Max angular momentum: 2

  ==> DFJKGrad: Density-Fitted SCF Gradients <==

    Gradient:                    1
    J tasked:                  Yes
    K tasked:                  Yes
    wK tasked:                  No
    OpenMP threads:              1
    Integrals threads:           1
    Memory [MiB]:              375
    Schwarz Cutoff:          1E-12
    Fitting Condition:       1E-10

   => Auxiliary Basis Set <=

  Basis Set: (CC-PVDZ AUX)
    Blend: CC-PVDZ-JKFIT
    Number of shells: 72
    Number of basis functions: 224
    Number of Cartesian functions: 260
    Spherical Harmonics?: true
    Max angular momentum: 3

  ==> DFT Potential <==

   => LibXC <=

    Version 6.2.2
    S. Lehtola, C. Steigemann, M. J.T. Oliveira, and M. A.L. Marques.,  SoftwareX 7, 1â€“5 (2018) (10.1016/j.softx.2017.11.002)

   => Composite Functional: B3LYP <=

    B3LYP Hyb-GGA Exchange-Correlation Functional

    P. J. Stephens, F. J. Devlin, C. F. Chabalowski, and M. J. Frisch.,  J. Phys. Chem. 98, 11623 (1994) (10.1021/j100096a001)

    Deriv               =              1
    GGA                 =           TRUE
    Meta                =          FALSE

    Exchange Hybrid     =           TRUE
    MP2 Hybrid          =          FALSE

   => Exchange Functionals <=

    0.0800   Slater exchange
    0.7200         Becke 88

   => Exact (HF) Exchange <=

    0.2000               HF

   => Correlation Functionals <=

    0.1900   Vosko, Wilk & Nusair (VWN5_RPA)
    0.8100   Lee, Yang & Parr

   => LibXC Density Thresholds  <==

    XC_HYB_GGA_XC_B3LYP:  1.00E-15

   => Molecular Quadrature <=

    Radial Scheme          =       TREUTLER
    Pruning Scheme         =           NONE
    Nuclear Scheme         =       TREUTLER

    Blocking Scheme        =         OCTREE
    BS radius alpha        =              1
    Pruning alpha          =              1
    Radial Points          =             75
    Spherical Points       =            302
    Total Points           =          39714
    Total Blocks           =            368
    Max Points             =            252
    Max Functions          =             36
    Weights Tolerance      =       1.00E-15

  -Total Gradient:
     Atom            X                  Y                   Z
    ------   -----------------  -----------------  -----------------
       1        0.000000000000    -0.000029409378     0.000000000000
       2       -0.000000000000     0.000029409378     0.000000000000

*** tstop() called on Joses-MacBook-Pro-2.local at Thu Jul 17 16:00:24 2025
Module time:
	user time   =       2.36 seconds =       0.04 minutes
	system time =       1.32 seconds =       0.02 minutes
	total time  =          0 seconds =       0.00 minutes
Total time:
	user time   =     167.19 seconds =       2.79 minutes
	system time =      54.95 seconds =       0.92 minutes
	total time  =         21 seconds =       0.35 minutes

    			-----------------------------------------

    			 OPTKING 3.0: for geometry optimizations

    			     By R.A. King, Bethel University

    			        with contributions from

    			    A.V. Copan, J. Cayton, A. Heide

    			-----------------------------------------

	                            ===> Fragment 1 <==

	 Z (Atomic Numbers)          Masses                          Geom
	      17.000000            34.968853         -0.00000000  2.21039746  0.00000000
	      17.000000            34.968853          0.00000000 -2.21039746  0.00000000

	 - Coordinate -           - BOHR/RAD -       - ANG/DEG -
	 R(1,2)           =         4.420795           2.339384

	        --- Internal Coordinate Step in ANG or DEG, aJ/ANG or AJ/DEG ---
	-------------------------------------------------------------------------------
	           Coordinate      Previous         Force          Change          New
	           ----------      --------        ------          ------        ------
	               R(1,2)       2.33938        0.00024        0.00018       2.33956
	-------------------------------------------------------------------------------

	                                 ==> Convergence Check <==

	Measures of convergence in internal coordinates in au.

	Criteria marked as inactive (o), active & met (*), and active & unmet ( ).

	----------------------------------------------------------------------------------------------
	   Step    Total Energy     Delta E     Max Force     RMS Force      Max Disp      RMS Disp
	----------------------------------------------------------------------------------------------
	  Convergence Criteria     1.00e-06 *    3.00e-04 *             o    1.20e-03 *             o
	----------------------------------------------------------------------------------------------
	    16    -919.91261994   -1.76e-07 *    2.94e-05 *    2.94e-05 o    3.38e-04 *    3.38e-04 o  ~
	----------------------------------------------------------------------------------------------

Next Geometry in Ang
	Fragment 1 (Ang)

	   Cl  -0.0000000000   1.1697814265   0.0000000000
	   Cl   0.0000000000  -1.1697814265   0.0000000000

    Final optimized geometry and variables:
    Molecular point group: d2h
    Full point group: D_inf_h

    Geometry (in Angstrom), charge = 1, multiplicity = 4:

    CL          -0.000000000000     1.169691960338     0.000000000000
    CL           0.000000000000    -1.169691960338     0.000000000000

    Psi4 stopped on: Thursday, 17 July 2025 04:00PM
    Psi4 wall time for execution: 0:00:21.78

*** Psi4 exiting successfully. Buy a developer a beer!
