                               Psi4 1.9.1 release

  ==> Input File <==

--------------------------------------------------------------------------
molecule {
1 4
Na   0.00000        0.60000        0.00000
Na   0.00000       -0.60000        0.00000
}

set {
basis              cc-pvdz
reference          uks
maxiter            500
geom_maxiter       500
DAMPING_PERCENTAGE 1
guess              SAP
}

optimize('b3lyp')
--------------------------------------------------------------------------

    Molecular point group: d2h
  Charge       = 1
  Multiplicity = 4
  Basis Set: CC-PVDZ
    Blend: CC-PVDZ
  Basis Set: (CC-PVDZ AUX)
    Blend: DEF2-UNIVERSAL-JKFIT
  @DF-UKS Final Energy:  -322.69392559569707
    Total Energy =                       -322.6939255956970669
 Dipole X            :          0.0000000            0.0000000            0.0000000
 Dipole Y            :          0.0000000            0.0000000            0.0000000
 Dipole Z            :          0.0000000            0.0000000            0.0000000
 Magnitude           :                                                    0.0000000
    Molecular point group: d2h
  Basis Set: CC-PVDZ
    Blend: CC-PVDZ
  Basis Set: (CC-PVDZ AUX)
    Blend: DEF2-UNIVERSAL-JKFIT
  Basis Set: CC-PVDZ
    Blend: CC-PVDZ
  Basis Set: (CC-PVDZ AUX)
    Blend: DEF2-UNIVERSAL-JKFIT
  @DF-UKS Final Energy:  -322.69792369414324
    Total Energy =                       -322.6979236941432418
  Basis Set: CC-PVDZ
    Blend: CC-PVDZ
  Basis Set: (CC-PVDZ AUX)
    Blend: DEF2-UNIVERSAL-JKFIT
  Basis Set: CC-PVDZ
    Blend: CC-PVDZ
  @DF-UKS Final Energy:  -322.70569164839515
    Total Energy =                       -322.7056916483952023
  @DF-UKS Final Energy:  -322.73438323647264
    Total Energy =                       -322.7343832364726381
  @DF-UKS Final Energy:  -322.87786975468049
    Total Energy =                       -322.8778697546804892
  @DF-UKS Final Energy:  -322.96693496837457
    Total Energy =                       -322.9669349683745736
  @DF-UKS Final Energy:  -323.01611781264938
    Total Energy =                       -323.0161178126493269
  @DF-UKS Final Energy:  -323.06068181206729
    Total Energy =                       -323.0606818120672870
  @DF-UKS Final Energy:  -323.11138219410964
    Total Energy =                       -323.1113821941096376
  @DF-UKS Final Energy:  -323.14495212721141
    Total Energy =                       -323.1449521272114112
  @DF-UKS Final Energy:  -323.14887660697832
    Total Energy =                       -323.1488766069783196
  @DF-UKS Final Energy:  -323.16098388734423
    Total Energy =                       -323.1609838873441731
  @DF-UKS Final Energy:  -323.16346159544258
    Total Energy =                       -323.1634615954425271
  @DF-UKS Final Energy:  -323.16412125443139
    Total Energy =                       -323.1641212544313362
  @DF-UKS Final Energy:  -323.16422270654067
    Total Energy =                       -323.1642227065406701
  Basis Set: (CC-PVDZ AUX)
    Blend: DEF2-UNIVERSAL-JKFIT
  Basis Set: CC-PVDZ
    Blend: CC-PVDZ
  Basis Set: (CC-PVDZ AUX)
    Blend: DEF2-UNIVERSAL-JKFIT
  @DF-UKS Final Energy:  -323.16423843407745
    Total Energy =                       -323.1642384340773901
  Basis Set: CC-PVDZ
    Blend: CC-PVDZ
  Basis Set: (CC-PVDZ AUX)
    Blend: DEF2-UNIVERSAL-JKFIT
  Charge       = 1
  Multiplicity = 4
  Basis Set: CC-PVDZ
    Blend: CC-PVDZ
  Basis Set: (CC-PVDZ AUX)
    Blend: DEF2-UNIVERSAL-JKFIT

    Orbital Energies [Eh]
    ---------------------

    Alpha Occupied:

       1Ag   -39.301962     1B2u  -39.301961     2B2u   -2.826553
       2Ag    -2.826553     3Ag    -1.801153     3B2u   -1.799009
       1B1u   -1.738800     1B3g   -1.738660     1B3u   -1.736801
       1B1g   -1.736663     4Ag    -0.401627     2B3u   -0.257937

    Alpha Virtual:

       4B2u   -0.255638     2B1u   -0.208537     5Ag    -0.191357
       2B1g   -0.148983     2B3g   -0.135897     6Ag    -0.094450
       5B2u   -0.088271     3B3u   -0.074652     3B1u   -0.069334
       7Ag    -0.058599     1B2g   -0.052105     6B2u   -0.046025
       8Ag    -0.045281     3B1g   -0.038472     3B3g   -0.034713
       4B3u   -0.023347     4B1u   -0.015249     7B2u    0.014136
       1Au     0.021687     8B2u    0.028477     9Ag     0.059289
       4B1g    0.111111     4B3g    0.119460     9B2u    0.610659

    Beta Occupied:

       1Ag   -39.280614     1B2u  -39.280608     2Ag    -2.769439
       2B2u   -2.768926     1B1u   -1.716481     1B3g   -1.716345
       1B3u   -1.713132     1B1g   -1.713003     3Ag    -1.627020

    Beta Virtual:

       3B2u   -1.587789     4Ag    -0.299286     4B2u   -0.237107
       2B1u   -0.174755     2B3u   -0.161359     5Ag    -0.160593
       2B3g   -0.125914     2B1g   -0.116686     5B2u   -0.075861
       6Ag    -0.071121     3B1u   -0.054163     7Ag    -0.049398
       3B3u   -0.048690     6B2u   -0.031882     3B3g   -0.030334
       3B1g   -0.026198     1B2g   -0.008723     8Ag    -0.007839
       4B1u    0.003740     4B3u    0.013996     7B2u    0.025429
       1Au     0.049098     8B2u    0.050867     9Ag     0.080741
       4B3g    0.133156     4B1g    0.143978     9B2u    0.625913

    Final Occupation by Irrep:
             Ag   B1g   B2g   B3g    Au   B1u   B2u   B3u
    DOCC [     3,    1,    0,    1,    0,    1,    2,    1 ]
    SOCC [     1,    0,    0,    0,    0,    0,    1,    1 ]
    NA   [     4,    1,    0,    1,    0,    1,    3,    2 ]
    NB   [     3,    1,    0,    1,    0,    1,    2,    1 ]

  @DF-UKS Final Energy:  -323.16423889861159

   => Energetics <=

    Nuclear Repulsion Energy =             21.9282760654523052
    One-Electron Energy =                -486.0410032509428220
    Two-Electron Energy =                 163.4397919985409544
    DFT Exchange-Correlation Energy =     -22.4913037116620131
    Empirical Dispersion Energy =           0.0000000000000000
    VV10 Nonlocal Energy =                  0.0000000000000000
    Total Energy =                       -323.1642388986115861

  UHF NO Occupations:
  HONO-2 :    4 Ag 1.0000000
  HONO-1 :    2B3u 1.0000000
  HONO-0 :    3B2u 1.0000000
  LUNO+0 :    5 Ag 0.0000727
  LUNO+1 :    4B2u 0.0000034
  LUNO+2 :    2B3g 0.0000017
  LUNO+3 :    2B1g 0.0000015

Computation Completed

Properties will be evaluated at   0.000000,   0.000000,   0.000000 [a0]

Properties computed using the SCF density matrix

 Multipole Moments:

 ------------------------------------------------------------------------------------
     Multipole            Electronic (a.u.)      Nuclear  (a.u.)        Total (a.u.)
 ------------------------------------------------------------------------------------

 L = 1.  Multiply by 2.5417464519 to convert [e a0] to [Debye]
 Dipole X            :          0.0000000            0.0000000            0.0000000
 Dipole Y            :          0.0000000            0.0000000            0.0000000
 Dipole Z            :          0.0000000            0.0000000            0.0000000
 Magnitude           :                                                    0.0000000

 ------------------------------------------------------------------------------------

*** tstop() called on Joses-MacBook-Pro-2.local at Thu Jul 17 14:45:00 2025
Module time:
	user time   =       6.27 seconds =       0.10 minutes
	system time =       2.21 seconds =       0.04 minutes
	total time  =          1 seconds =       0.02 minutes
Total time:
	user time   =     164.55 seconds =       2.74 minutes
	system time =      78.60 seconds =       1.31 minutes
	total time  =         24 seconds =       0.40 minutes

*** tstart() called on Joses-MacBook-Pro-2.local
*** at Thu Jul 17 14:45:00 2025

         ------------------------------------------------------------
                                   SCF GRAD
                          Rob Parrish, Justin Turney,
                       Andy Simmonett, and Alex Sokolov
         ------------------------------------------------------------

  ==> Geometry <==

    Molecular point group: d2h
    Full point group: D_inf_h

    Geometry (in Angstrom), charge = 1, multiplicity = 4:

       Center              X                  Y                   Z               Mass
    ------------   -----------------  -----------------  -----------------  -----------------
         NA          -0.000000000000     1.459997181264     0.000000000000    22.989769282000
         NA           0.000000000000    -1.459997181264     0.000000000000    22.989769282000

  Nuclear repulsion =   21.928276065452305

  ==> Basis Set <==

  Basis Set: CC-PVDZ
    Blend: CC-PVDZ
    Number of shells: 16
    Number of basis functions: 36
    Number of Cartesian functions: 38
    Spherical Harmonics?: true
    Max angular momentum: 2

  ==> DFJKGrad: Density-Fitted SCF Gradients <==

    Gradient:                    1
    J tasked:                  Yes
    K tasked:                  Yes
    wK tasked:                  No
    OpenMP threads:              1
    Integrals threads:           1
    Memory [MiB]:              375
    Schwarz Cutoff:          1E-12
    Fitting Condition:       1E-10

   => Auxiliary Basis Set <=

  Basis Set: (CC-PVDZ AUX)
    Blend: DEF2-UNIVERSAL-JKFIT
    Number of shells: 68
    Number of basis functions: 224
    Number of Cartesian functions: 274
    Spherical Harmonics?: true
    Max angular momentum: 4

  ==> DFT Potential <==

   => LibXC <=

    Version 6.2.2
    S. Lehtola, C. Steigemann, M. J.T. Oliveira, and M. A.L. Marques.,  SoftwareX 7, 1â€“5 (2018) (10.1016/j.softx.2017.11.002)

   => Composite Functional: B3LYP <=

    B3LYP Hyb-GGA Exchange-Correlation Functional

    P. J. Stephens, F. J. Devlin, C. F. Chabalowski, and M. J. Frisch.,  J. Phys. Chem. 98, 11623 (1994) (10.1021/j100096a001)

    Deriv               =              1
    GGA                 =           TRUE
    Meta                =          FALSE

    Exchange Hybrid     =           TRUE
    MP2 Hybrid          =          FALSE

   => Exchange Functionals <=

    0.0800   Slater exchange
    0.7200         Becke 88

   => Exact (HF) Exchange <=

    0.2000               HF

   => Correlation Functionals <=

    0.1900   Vosko, Wilk & Nusair (VWN5_RPA)
    0.8100   Lee, Yang & Parr

   => LibXC Density Thresholds  <==

    XC_HYB_GGA_XC_B3LYP:  1.00E-15

   => Molecular Quadrature <=

    Radial Scheme          =       TREUTLER
    Pruning Scheme         =           NONE
    Nuclear Scheme         =       TREUTLER

    Blocking Scheme        =         OCTREE
    BS radius alpha        =              1
    Pruning alpha          =              1
    Radial Points          =             75
    Spherical Points       =            302
    Total Points           =          43058
    Total Blocks           =            448
    Max Points             =            255
    Max Functions          =             36
    Weights Tolerance      =       1.00E-15

  -Total Gradient:
     Atom            X                  Y                   Z
    ------   -----------------  -----------------  -----------------
       1        0.000000000000    -0.000019668831     0.000000000000
       2       -0.000000000000     0.000019668831     0.000000000000

*** tstop() called on Joses-MacBook-Pro-2.local at Thu Jul 17 14:45:01 2025
Module time:
	user time   =       2.80 seconds =       0.05 minutes
	system time =       2.23 seconds =       0.04 minutes
	total time  =          1 seconds =       0.02 minutes
Total time:
	user time   =     167.36 seconds =       2.79 minutes
	system time =      80.84 seconds =       1.35 minutes
	total time  =         25 seconds =       0.42 minutes

    			-----------------------------------------

    			 OPTKING 3.0: for geometry optimizations

    			     By R.A. King, Bethel University

    			        with contributions from

    			    A.V. Copan, J. Cayton, A. Heide

    			-----------------------------------------

	                            ===> Fragment 1 <==

	 Z (Atomic Numbers)          Masses                          Geom
	      11.000000            22.989769         -0.00000000  2.75899482  0.00000000
	      11.000000            22.989769          0.00000000 -2.75899482  0.00000000

	 - Coordinate -           - BOHR/RAD -       - ANG/DEG -
	 R(1,2)           =         5.517990           2.919994

	        --- Internal Coordinate Step in ANG or DEG, aJ/ANG or AJ/DEG ---
	-------------------------------------------------------------------------------
	           Coordinate      Previous         Force          Change          New
	           ----------      --------        ------          ------        ------
	               R(1,2)       2.91999        0.00016        0.00056       2.92055
	-------------------------------------------------------------------------------

	                                 ==> Convergence Check <==

	Measures of convergence in internal coordinates in au.

	Criteria marked as inactive (o), active & met (*), and active & unmet ( ).

	----------------------------------------------------------------------------------------------
	   Step    Total Energy     Delta E     Max Force     RMS Force      Max Disp      RMS Disp
	----------------------------------------------------------------------------------------------
	  Convergence Criteria     1.00e-06 *    3.00e-04 *             o    1.20e-03 *             o
	----------------------------------------------------------------------------------------------
	    17    -323.16423890   -4.65e-07 *    1.97e-05 *    1.97e-05 o    1.06e-03 *    1.06e-03 o  ~
	----------------------------------------------------------------------------------------------

Next Geometry in Ang
	Fragment 1 (Ang)

	   Na  -0.0000000000   1.4602770251   0.0000000000
	   Na   0.0000000000  -1.4602770251   0.0000000000

    Final optimized geometry and variables:
    Molecular point group: d2h
    Full point group: D_inf_h

    Geometry (in Angstrom), charge = 1, multiplicity = 4:

    NA          -0.000000000000     1.459997181264     0.000000000000
    NA           0.000000000000    -1.459997181264     0.000000000000

    Psi4 stopped on: Thursday, 17 July 2025 02:45PM
    Psi4 wall time for execution: 0:00:25.37

*** Psi4 exiting successfully. Buy a developer a beer!
