                               Psi4 1.9.1 release

  ==> Input File <==

--------------------------------------------------------------------------
molecule {
1 4
Li   0.00000        0.60000        0.00000
N   0.00000       -0.60000        0.00000
}

set {
basis              cc-pvdz
reference          uks
maxiter            500
geom_maxiter       500
DAMPING_PERCENTAGE 1
guess              SAP
}

optimize('b3lyp')
--------------------------------------------------------------------------

    Molecular point group: c2v
  Charge       = 1
  Multiplicity = 4
  Basis Set: CC-PVDZ
    Blend: CC-PVDZ
  Basis Set: (CC-PVDZ AUX)
    Blend: CC-PVDZ-JKFIT + DEF2-UNIVERSAL-JKFIT
  @DF-UKS Final Energy:   -61.65167206511849
    Total Energy =                        -61.6516720651184897
 Dipole X            :          0.0000000            0.0000000            0.0000000
 Dipole Y            :          0.0000000            0.0000000            0.0000000
 Dipole Z            :          2.0598163           -0.7662953            1.2935210
 Magnitude           :                                                    1.2935210
    Molecular point group: c2v
  Basis Set: CC-PVDZ
    Blend: CC-PVDZ
  Basis Set: (CC-PVDZ AUX)
    Blend: CC-PVDZ-JKFIT + DEF2-UNIVERSAL-JKFIT
  Basis Set: CC-PVDZ
    Blend: CC-PVDZ
  Basis Set: (CC-PVDZ AUX)
    Blend: CC-PVDZ-JKFIT + DEF2-UNIVERSAL-JKFIT
  @DF-UKS Final Energy:   -61.79642569135782
    Total Energy =                        -61.7964256913578183
  Basis Set: CC-PVDZ
    Blend: CC-PVDZ
  Basis Set: (CC-PVDZ AUX)
    Blend: CC-PVDZ-JKFIT + DEF2-UNIVERSAL-JKFIT
  Basis Set: CC-PVDZ
    Blend: CC-PVDZ
  @DF-UKS Final Energy:   -61.83964829660692
    Total Energy =                        -61.8396482966069243
  @DF-UKS Final Energy:   -61.86499861942092
    Total Energy =                        -61.8649986194209234
  @DF-UKS Final Energy:   -61.87664348301468
    Total Energy =                        -61.8766434830146750
  @DF-UKS Final Energy:   -61.88215273990564
    Total Energy =                        -61.8821527399056421
  @DF-UKS Final Energy:   -61.88446607616652
    Total Energy =                        -61.8844660761665182
  @DF-UKS Final Energy:   -61.88511495392330
    Total Energy =                        -61.8851149539232992
  @DF-UKS Final Energy:   -61.88538359994725
    Total Energy =                        -61.8853835999472537
  @DF-UKS Final Energy:   -61.88544301448287
    Total Energy =                        -61.8854430144828740
  @DF-UKS Final Energy:   -61.88546031934088
    Total Energy =                        -61.8854603193408792
  Basis Set: (CC-PVDZ AUX)
    Blend: CC-PVDZ-JKFIT + DEF2-UNIVERSAL-JKFIT
  Basis Set: CC-PVDZ
    Blend: CC-PVDZ
  Basis Set: (CC-PVDZ AUX)
    Blend: CC-PVDZ-JKFIT + DEF2-UNIVERSAL-JKFIT
  @DF-UKS Final Energy:   -61.88546230950870
    Total Energy =                        -61.8854623095087035
  Basis Set: CC-PVDZ
    Blend: CC-PVDZ
  Basis Set: (CC-PVDZ AUX)
    Blend: CC-PVDZ-JKFIT + DEF2-UNIVERSAL-JKFIT
  Charge       = 1
  Multiplicity = 4
  Basis Set: CC-PVDZ
    Blend: CC-PVDZ
  Basis Set: (CC-PVDZ AUX)
    Blend: CC-PVDZ-JKFIT + DEF2-UNIVERSAL-JKFIT

    Orbital Energies [Eh]
    ---------------------

    Alpha Occupied:

       1A1   -14.685173     2A1    -2.331013     3A1    -1.046783
       4A1    -0.599113     1B2    -0.584376     1B1    -0.584376

    Alpha Virtual:

       5A1    -0.236981     2B1    -0.177286     2B2    -0.177286
       6A1    -0.146195     3B2    -0.062642     3B1    -0.062642
       7A1    -0.058001     8A1    -0.042232     9A1     0.065215
       1A2     0.065223     4B1     0.069158     4B2     0.069158
      10A1     0.133641     5B2     0.524854     5B1     0.524854
      11A1     0.538970    12A1     1.003607     2A2     1.445201
      13A1     1.445250     6B1     1.468965     6B2     1.468965
      14A1     1.487769

    Beta Occupied:

       1A1   -14.628216     2A1    -2.330582     3A1    -0.852276

    Beta Virtual:

       4A1    -0.361367     1B2    -0.334303     1B1    -0.334303
       5A1    -0.231631     2B1    -0.168814     2B2    -0.168814
       6A1    -0.134584     3B1    -0.063187     3B2    -0.063187
       7A1    -0.049601     8A1    -0.031338     1A2     0.066277
       9A1     0.066280     4B1     0.080711     4B2     0.080711
      10A1     0.151084     5B2     0.621216     5B1     0.621216
      11A1     0.638752    12A1     1.088577     2A2     1.593082
      13A1     1.593144     6B1     1.612949     6B2     1.612949
      14A1     1.628237

    Final Occupation by Irrep:
             A1    A2    B1    B2
    DOCC [     3,    0,    0,    0 ]
    SOCC [     1,    0,    1,    1 ]
    NA   [     4,    0,    1,    1 ]
    NB   [     3,    0,    0,    0 ]

  @DF-UKS Final Energy:   -61.88546254634857

   => Energetics <=

    Nuclear Repulsion Energy =              4.8101880907596177
    One-Electron Energy =                 -90.8261424012713832
    Two-Electron Energy =                  30.9681741172936960
    DFT Exchange-Correlation Energy =      -6.8376823531305124
    Empirical Dispersion Energy =           0.0000000000000000
    VV10 Nonlocal Energy =                  0.0000000000000000
    Total Energy =                        -61.8854625463485704

  UHF NO Occupations:
  HONO-2 :    1 B2 1.0000000
  HONO-1 :    4 A1 1.0000000
  HONO-0 :    1 B1 1.0000000
  LUNO+0 :    5 A1 0.0015115
  LUNO+1 :    6 A1 0.0000005
  LUNO+2 :    7 A1 0.0000001
  LUNO+3 :    8 A1 0.0000000

Computation Completed

Properties will be evaluated at   0.000000,   0.000000,   0.000000 [a0]

Properties computed using the SCF density matrix

 Multipole Moments:

 ------------------------------------------------------------------------------------
     Multipole            Electronic (a.u.)      Nuclear  (a.u.)        Total (a.u.)
 ------------------------------------------------------------------------------------

 L = 1.  Multiply by 2.5417464519 to convert [e a0] to [Debye]
 Dipole X            :          0.0000000            0.0000000            0.0000000
 Dipole Y            :          0.0000000            0.0000000            0.0000000
 Dipole Z            :          4.0242021           -1.4752761            2.5489261
 Magnitude           :                                                    2.5489261

 ------------------------------------------------------------------------------------

*** tstop() called on Joses-MacBook-Pro-2.local at Thu Jul 17 12:48:16 2025
Module time:
	user time   =       2.42 seconds =       0.04 minutes
	system time =       2.20 seconds =       0.04 minutes
	total time  =          0 seconds =       0.00 minutes
Total time:
	user time   =      46.77 seconds =       0.78 minutes
	system time =      55.30 seconds =       0.92 minutes
	total time  =         10 seconds =       0.17 minutes

*** tstart() called on Joses-MacBook-Pro-2.local
*** at Thu Jul 17 12:48:16 2025

         ------------------------------------------------------------
                                   SCF GRAD
                          Rob Parrish, Justin Turney,
                       Andy Simmonett, and Alex Sokolov
         ------------------------------------------------------------

  ==> Geometry <==

    Molecular point group: c2v
    Full point group: C_inf_v

    Geometry (in Angstrom), charge = 1, multiplicity = 4:

       Center              X                  Y                   Z               Mass
    ------------   -----------------  -----------------  -----------------  -----------------
         LI           0.000000000000     0.000000000000     1.539104480641     7.016003436600
         N            0.000000000000     0.000000000000    -0.771142273621    14.003074004430

  Nuclear repulsion =    4.810188090759618

  ==> Basis Set <==

  Basis Set: CC-PVDZ
    Blend: CC-PVDZ
    Number of shells: 12
    Number of basis functions: 28
    Number of Cartesian functions: 30
    Spherical Harmonics?: true
    Max angular momentum: 2

  ==> DFJKGrad: Density-Fitted SCF Gradients <==

    Gradient:                    1
    J tasked:                  Yes
    K tasked:                  Yes
    wK tasked:                  No
    OpenMP threads:              1
    Integrals threads:           1
    Memory [MiB]:              375
    Schwarz Cutoff:          1E-12
    Fitting Condition:       1E-10

   => Auxiliary Basis Set <=

  Basis Set: (CC-PVDZ AUX)
    Blend: CC-PVDZ-JKFIT + DEF2-UNIVERSAL-JKFIT
    Number of shells: 41
    Number of basis functions: 121
    Number of Cartesian functions: 141
    Spherical Harmonics?: true
    Max angular momentum: 3

  ==> DFT Potential <==

   => LibXC <=

    Version 6.2.2
    S. Lehtola, C. Steigemann, M. J.T. Oliveira, and M. A.L. Marques.,  SoftwareX 7, 1â€“5 (2018) (10.1016/j.softx.2017.11.002)

   => Composite Functional: B3LYP <=

    B3LYP Hyb-GGA Exchange-Correlation Functional

    P. J. Stephens, F. J. Devlin, C. F. Chabalowski, and M. J. Frisch.,  J. Phys. Chem. 98, 11623 (1994) (10.1021/j100096a001)

    Deriv               =              1
    GGA                 =           TRUE
    Meta                =          FALSE

    Exchange Hybrid     =           TRUE
    MP2 Hybrid          =          FALSE

   => Exchange Functionals <=

    0.0800   Slater exchange
    0.7200         Becke 88

   => Exact (HF) Exchange <=

    0.2000               HF

   => Correlation Functionals <=

    0.1900   Vosko, Wilk & Nusair (VWN5_RPA)
    0.8100   Lee, Yang & Parr

   => LibXC Density Thresholds  <==

    XC_HYB_GGA_XC_B3LYP:  1.00E-15

   => Molecular Quadrature <=

    Radial Scheme          =       TREUTLER
    Pruning Scheme         =           NONE
    Nuclear Scheme         =       TREUTLER

    Blocking Scheme        =         OCTREE
    BS radius alpha        =              1
    Pruning alpha          =              1
    Radial Points          =             75
    Spherical Points       =            302
    Total Points           =          44330
    Total Blocks           =            428
    Max Points             =            252
    Max Functions          =             28
    Weights Tolerance      =       1.00E-15

  -Total Gradient:
     Atom            X                  Y                   Z
    ------   -----------------  -----------------  -----------------
       1       -0.000000000000    -0.000000000000    -0.000003493598
       2        0.000000000000     0.000000000000     0.000036586643

*** tstop() called on Joses-MacBook-Pro-2.local at Thu Jul 17 12:48:16 2025
Module time:
	user time   =       0.53 seconds =       0.01 minutes
	system time =       1.13 seconds =       0.02 minutes
	total time  =          0 seconds =       0.00 minutes
Total time:
	user time   =      47.30 seconds =       0.79 minutes
	system time =      56.44 seconds =       0.94 minutes
	total time  =         10 seconds =       0.17 minutes

    			-----------------------------------------

    			 OPTKING 3.0: for geometry optimizations

    			     By R.A. King, Bethel University

    			        with contributions from

    			    A.V. Copan, J. Cayton, A. Heide

    			-----------------------------------------

	                            ===> Fragment 1 <==

	 Z (Atomic Numbers)          Masses                          Geom
	       3.000000             7.016003          0.00000000  0.00000000  2.90848595
	       7.000000            14.003074          0.00000000  0.00000000 -1.45724770

	 - Coordinate -           - BOHR/RAD -       - ANG/DEG -
	 R(1,2)           =         4.365734           2.310247

	        --- Internal Coordinate Step in ANG or DEG, aJ/ANG or AJ/DEG ---
	-------------------------------------------------------------------------------
	           Coordinate      Previous         Force          Change          New
	           ----------      --------        ------          ------        ------
	               R(1,2)       2.31025        0.00017        0.00080       2.31105
	-------------------------------------------------------------------------------

	                                 ==> Convergence Check <==

	Measures of convergence in internal coordinates in au.

	Criteria marked as inactive (o), active & met (*), and active & unmet ( ).

	----------------------------------------------------------------------------------------------
	   Step    Total Energy     Delta E     Max Force     RMS Force      Max Disp      RMS Disp
	----------------------------------------------------------------------------------------------
	  Convergence Criteria     1.00e-06 *    3.00e-04 *             o    1.20e-03 *             o
	----------------------------------------------------------------------------------------------
	    13     -61.88546255   -2.37e-07 *    2.00e-05 *    2.00e-05 o    1.51e-03      1.51e-03 o  ~
	----------------------------------------------------------------------------------------------

Next Geometry in Ang
	Fragment 1 (Ang)

	   Li   0.0000000000   0.0000000000   1.5395045399
	    N   0.0000000000   0.0000000000  -0.7715423329

    Final optimized geometry and variables:
    Molecular point group: c2v
    Full point group: C_inf_v

    Geometry (in Angstrom), charge = 1, multiplicity = 4:

    LI           0.000000000000     0.000000000000     1.539104480641
    N            0.000000000000     0.000000000000    -0.771142273621

    Psi4 stopped on: Thursday, 17 July 2025 12:48PM
    Psi4 wall time for execution: 0:00:10.53

*** Psi4 exiting successfully. Buy a developer a beer!
