                               Psi4 1.9.1 release

  ==> Input File <==

--------------------------------------------------------------------------
molecule {
1 4
Be   0.00000        0.60000        0.00000
O   0.00000       -0.60000        0.00000
}

set {
basis              cc-pvdz
reference          uks
maxiter            500
geom_maxiter       500
DAMPING_PERCENTAGE 1
guess              SAP
}

optimize('b3lyp')
--------------------------------------------------------------------------

    Molecular point group: c2v
  Charge       = 1
  Multiplicity = 4
  Basis Set: CC-PVDZ
    Blend: CC-PVDZ
  Basis Set: (CC-PVDZ AUX)
    Blend: CC-PVDZ-JKFIT + DEF2-UNIVERSAL-JKFIT
  @DF-UKS Final Energy:   -89.28039710262931
    Total Energy =                        -89.2803971026293084
 Dipole X            :          0.0000000            0.0000000            0.0000000
 Dipole Y            :          0.0000000            0.0000000            0.0000000
 Dipole Z            :          0.8794425           -0.7361317            0.1433108
 Magnitude           :                                                    0.1433108
    Molecular point group: c2v
  Basis Set: CC-PVDZ
    Blend: CC-PVDZ
  Basis Set: (CC-PVDZ AUX)
    Blend: CC-PVDZ-JKFIT + DEF2-UNIVERSAL-JKFIT
  Basis Set: CC-PVDZ
    Blend: CC-PVDZ
  Basis Set: (CC-PVDZ AUX)
    Blend: CC-PVDZ-JKFIT + DEF2-UNIVERSAL-JKFIT
  @DF-UKS Final Energy:   -89.39241090461188
    Total Energy =                        -89.3924109046118645
  Basis Set: CC-PVDZ
    Blend: CC-PVDZ
  Basis Set: (CC-PVDZ AUX)
    Blend: CC-PVDZ-JKFIT + DEF2-UNIVERSAL-JKFIT
  Basis Set: CC-PVDZ
    Blend: CC-PVDZ
  @DF-UKS Final Energy:   -89.41901168840045
    Total Energy =                        -89.4190116884004453
  @DF-UKS Final Energy:   -89.43543613423302
    Total Energy =                        -89.4354361342330151
  @DF-UKS Final Energy:   -89.44062432781503
    Total Energy =                        -89.4406243278150299
  @DF-UKS Final Energy:   -89.44312717214864
    Total Energy =                        -89.4431271721486354
  @DF-UKS Final Energy:   -89.44413625966750
    Total Energy =                        -89.4441362596675020
  @DF-UKS Final Energy:   -89.44434626359262
    Total Energy =                        -89.4443462635926210
  @DF-UKS Final Energy:   -89.44439556376328
    Total Energy =                        -89.4443955637632797
  @DF-UKS Final Energy:   -89.44440962266614
    Total Energy =                        -89.4444096226661429
  Basis Set: (CC-PVDZ AUX)
    Blend: CC-PVDZ-JKFIT + DEF2-UNIVERSAL-JKFIT
  Basis Set: CC-PVDZ
    Blend: CC-PVDZ
  Basis Set: (CC-PVDZ AUX)
    Blend: CC-PVDZ-JKFIT + DEF2-UNIVERSAL-JKFIT
  @DF-UKS Final Energy:   -89.44441184701013
    Total Energy =                        -89.4444118470101301
  Basis Set: CC-PVDZ
    Blend: CC-PVDZ
  Basis Set: (CC-PVDZ AUX)
    Blend: CC-PVDZ-JKFIT + DEF2-UNIVERSAL-JKFIT
  Charge       = 1
  Multiplicity = 4
  Basis Set: CC-PVDZ
    Blend: CC-PVDZ
  Basis Set: (CC-PVDZ AUX)
    Blend: CC-PVDZ-JKFIT + DEF2-UNIVERSAL-JKFIT

    Orbital Energies [Eh]
    ---------------------

    Alpha Occupied:

       1A1   -19.661646     2A1    -4.447354     3A1    -1.383002
       1B1    -0.804841     1B2    -0.804841     4A1    -0.770595
       5A1    -0.492988

    Alpha Virtual:

       2B2    -0.314624     2B1    -0.314624     6A1    -0.238223
       7A1    -0.040262     3B2    -0.032821     3B1    -0.032821
       8A1    -0.020202     1A2     0.196275     9A1     0.196275
       4B1     0.198608     4B2     0.198608    10A1     0.311713
       5B1     0.611706     5B2     0.611706    11A1     0.682324
      12A1     1.225235     2A2     2.087425    13A1     2.087453
       6B1     2.185821     6B2     2.185821    14A1     2.316156

    Beta Occupied:

       1A1   -19.607119     2A1    -4.433790     3A1    -1.218706
       4A1    -0.709907

    Beta Virtual:

       1B1    -0.519022     1B2    -0.519022     5A1    -0.359357
       2B2    -0.257703     2B1    -0.257703     6A1    -0.188262
       7A1    -0.028653     3B2    -0.016469     3B1    -0.016469
       8A1     0.016311     1A2     0.247311     9A1     0.247311
       4B1     0.262905     4B2     0.262905    10A1     0.371602
       5B1     0.714412     5B2     0.714412    11A1     0.720070
      12A1     1.302432     2A2     2.263634    13A1     2.263662
       6B1     2.283985     6B2     2.283985    14A1     2.402166

    Final Occupation by Irrep:
             A1    A2    B1    B2
    DOCC [     4,    0,    0,    0 ]
    SOCC [     1,    0,    1,    1 ]
    NA   [     5,    0,    1,    1 ]
    NB   [     4,    0,    0,    0 ]

  @DF-UKS Final Energy:   -89.44441197094400

   => Energetics <=

    Nuclear Repulsion Energy =              8.8359162089753962
    One-Electron Energy =                -135.8211225506280755
    Two-Electron Energy =                  46.4353288728964699
    DFT Exchange-Correlation Energy =      -8.8945345021877849
    Empirical Dispersion Energy =           0.0000000000000000
    VV10 Nonlocal Energy =                  0.0000000000000000
    Total Energy =                        -89.4444119709440031

  UHF NO Occupations:
  HONO-2 :    5 A1 1.0000000
  HONO-1 :    1 B1 1.0000000
  HONO-0 :    1 B2 1.0000000
  LUNO+0 :    6 A1 0.0018586
  LUNO+1 :    7 A1 0.0005859
  LUNO+2 :    8 A1 0.0000003
  LUNO+3 :    9 A1 0.0000000

Computation Completed

Properties will be evaluated at   0.000000,   0.000000,   0.000000 [a0]

Properties computed using the SCF density matrix

 Multipole Moments:

 ------------------------------------------------------------------------------------
     Multipole            Electronic (a.u.)      Nuclear  (a.u.)        Total (a.u.)
 ------------------------------------------------------------------------------------

 L = 1.  Multiply by 2.5417464519 to convert [e a0] to [Debye]
 Dipole X            :          0.0000000            0.0000000            0.0000000
 Dipole Y            :          0.0000000            0.0000000            0.0000000
 Dipole Z            :          2.2434143           -1.1756384            1.0677759
 Magnitude           :                                                    1.0677759

 ------------------------------------------------------------------------------------

*** tstop() called on Joses-MacBook-Pro-2.local at Thu Jul 17 13:16:02 2025
Module time:
	user time   =       2.93 seconds =       0.05 minutes
	system time =       2.66 seconds =       0.04 minutes
	total time  =          0 seconds =       0.00 minutes
Total time:
	user time   =      44.29 seconds =       0.74 minutes
	system time =      52.18 seconds =       0.87 minutes
	total time  =          9 seconds =       0.15 minutes

*** tstart() called on Joses-MacBook-Pro-2.local
*** at Thu Jul 17 13:16:02 2025

         ------------------------------------------------------------
                                   SCF GRAD
                          Rob Parrish, Justin Turney,
                       Andy Simmonett, and Alex Sokolov
         ------------------------------------------------------------

  ==> Geometry <==

    Molecular point group: c2v
    Full point group: C_inf_v

    Geometry (in Angstrom), charge = 1, multiplicity = 4:

       Center              X                  Y                   Z               Mass
    ------------   -----------------  -----------------  -----------------  -----------------
         BE           0.000000000000     0.000000000000     1.225795881576     9.012183065000
         O            0.000000000000     0.000000000000    -0.690663073098    15.994914619570

  Nuclear repulsion =    8.835916208975396

  ==> Basis Set <==

  Basis Set: CC-PVDZ
    Blend: CC-PVDZ
    Number of shells: 12
    Number of basis functions: 28
    Number of Cartesian functions: 30
    Spherical Harmonics?: true
    Max angular momentum: 2

  ==> DFJKGrad: Density-Fitted SCF Gradients <==

    Gradient:                    1
    J tasked:                  Yes
    K tasked:                  Yes
    wK tasked:                  No
    OpenMP threads:              1
    Integrals threads:           1
    Memory [MiB]:              375
    Schwarz Cutoff:          1E-12
    Fitting Condition:       1E-10

   => Auxiliary Basis Set <=

  Basis Set: (CC-PVDZ AUX)
    Blend: CC-PVDZ-JKFIT + DEF2-UNIVERSAL-JKFIT
    Number of shells: 41
    Number of basis functions: 121
    Number of Cartesian functions: 141
    Spherical Harmonics?: true
    Max angular momentum: 3

  ==> DFT Potential <==

   => LibXC <=

    Version 6.2.2
    S. Lehtola, C. Steigemann, M. J.T. Oliveira, and M. A.L. Marques.,  SoftwareX 7, 1â€“5 (2018) (10.1016/j.softx.2017.11.002)

   => Composite Functional: B3LYP <=

    B3LYP Hyb-GGA Exchange-Correlation Functional

    P. J. Stephens, F. J. Devlin, C. F. Chabalowski, and M. J. Frisch.,  J. Phys. Chem. 98, 11623 (1994) (10.1021/j100096a001)

    Deriv               =              1
    GGA                 =           TRUE
    Meta                =          FALSE

    Exchange Hybrid     =           TRUE
    MP2 Hybrid          =          FALSE

   => Exchange Functionals <=

    0.0800   Slater exchange
    0.7200         Becke 88

   => Exact (HF) Exchange <=

    0.2000               HF

   => Correlation Functionals <=

    0.1900   Vosko, Wilk & Nusair (VWN5_RPA)
    0.8100   Lee, Yang & Parr

   => LibXC Density Thresholds  <==

    XC_HYB_GGA_XC_B3LYP:  1.00E-15

   => Molecular Quadrature <=

    Radial Scheme          =       TREUTLER
    Pruning Scheme         =           NONE
    Nuclear Scheme         =       TREUTLER

    Blocking Scheme        =         OCTREE
    BS radius alpha        =              1
    Pruning alpha          =              1
    Radial Points          =             75
    Spherical Points       =            302
    Total Points           =          43600
    Total Blocks           =            411
    Max Points             =            253
    Max Functions          =             28
    Weights Tolerance      =       1.00E-15

  -Total Gradient:
     Atom            X                  Y                   Z
    ------   -----------------  -----------------  -----------------
       1       -0.000000000000     0.000000000000    -0.000001863642
       2        0.000000000000     0.000000000000     0.000031123820

*** tstop() called on Joses-MacBook-Pro-2.local at Thu Jul 17 13:16:02 2025
Module time:
	user time   =       0.51 seconds =       0.01 minutes
	system time =       1.32 seconds =       0.02 minutes
	total time  =          0 seconds =       0.00 minutes
Total time:
	user time   =      44.81 seconds =       0.75 minutes
	system time =      53.50 seconds =       0.89 minutes
	total time  =          9 seconds =       0.15 minutes

    			-----------------------------------------

    			 OPTKING 3.0: for geometry optimizations

    			     By R.A. King, Bethel University

    			        with contributions from

    			    A.V. Copan, J. Cayton, A. Heide

    			-----------------------------------------

	                            ===> Fragment 1 <==

	 Z (Atomic Numbers)          Masses                          Geom
	       4.000000             9.012183          0.00000000  0.00000000  2.31641850
	       8.000000            15.994915          0.00000000  0.00000000 -1.30516405

	 - Coordinate -           - BOHR/RAD -       - ANG/DEG -
	 R(1,2)           =         3.621583           1.916459

	        --- Internal Coordinate Step in ANG or DEG, aJ/ANG or AJ/DEG ---
	-------------------------------------------------------------------------------
	           Coordinate      Previous         Force          Change          New
	           ----------      --------        ------          ------        ------
	               R(1,2)       1.91646        0.00014        0.00020       1.91666
	-------------------------------------------------------------------------------

	                                 ==> Convergence Check <==

	Measures of convergence in internal coordinates in au.

	Criteria marked as inactive (o), active & met (*), and active & unmet ( ).

	----------------------------------------------------------------------------------------------
	   Step    Total Energy     Delta E     Max Force     RMS Force      Max Disp      RMS Disp
	----------------------------------------------------------------------------------------------
	  Convergence Criteria     1.00e-06 *    3.00e-04 *             o    1.20e-03 *             o
	----------------------------------------------------------------------------------------------
	    12     -89.44441197   -1.24e-07 *    1.65e-05 *    1.65e-05 o    3.77e-04 *    3.77e-04 o  ~
	----------------------------------------------------------------------------------------------

Next Geometry in Ang
	Fragment 1 (Ang)

	   Be   0.0000000000   0.0000000000   1.2258957027
	    O   0.0000000000   0.0000000000  -0.6907628942

    Final optimized geometry and variables:
    Molecular point group: c2v
    Full point group: C_inf_v

    Geometry (in Angstrom), charge = 1, multiplicity = 4:

    BE           0.000000000000     0.000000000000     1.225795881576
    O            0.000000000000     0.000000000000    -0.690663073098

    Psi4 stopped on: Thursday, 17 July 2025 01:16PM
    Psi4 wall time for execution: 0:00:09.85

*** Psi4 exiting successfully. Buy a developer a beer!
