                               Psi4 1.9.1 release

  ==> Input File <==

--------------------------------------------------------------------------
molecule {
1 4
Be   0.00000        0.60000        0.00000
S   0.00000       -0.60000        0.00000
}

set {
basis              cc-pvdz
reference          uks
maxiter            500
geom_maxiter       500
DAMPING_PERCENTAGE 1
guess              SAP
}

optimize('b3lyp')
--------------------------------------------------------------------------

    Molecular point group: c2v
  Charge       = 1
  Multiplicity = 4
  Basis Set: CC-PVDZ
    Blend: CC-PVDZ
  Basis Set: (CC-PVDZ AUX)
    Blend: CC-PVDZ-JKFIT + DEF2-UNIVERSAL-JKFIT
  @DF-UKS Final Energy:  -411.95325287824977
    Total Energy =                       -411.9532528782497707
 Dipole X            :          0.0000000            0.0000000            0.0000000
 Dipole Y            :          0.0000000            0.0000000            0.0000000
 Dipole Z            :          0.0345462           -0.9022516           -0.8677054
 Magnitude           :                                                    0.8677054
    Molecular point group: c2v
  Basis Set: CC-PVDZ
    Blend: CC-PVDZ
  Basis Set: (CC-PVDZ AUX)
    Blend: CC-PVDZ-JKFIT + DEF2-UNIVERSAL-JKFIT
  Basis Set: CC-PVDZ
    Blend: CC-PVDZ
  Basis Set: (CC-PVDZ AUX)
    Blend: CC-PVDZ-JKFIT + DEF2-UNIVERSAL-JKFIT
  @DF-UKS Final Energy:  -412.16966344096102
    Total Energy =                       -412.1696634409610169
  Basis Set: CC-PVDZ
    Blend: CC-PVDZ
  Basis Set: (CC-PVDZ AUX)
    Blend: CC-PVDZ-JKFIT + DEF2-UNIVERSAL-JKFIT
  Basis Set: CC-PVDZ
    Blend: CC-PVDZ
  @DF-UKS Final Energy:  -412.31311618444903
    Total Energy =                       -412.3131161844490293
  @DF-UKS Final Energy:  -412.39167051057427
    Total Energy =                       -412.3916705105742722
  @DF-UKS Final Energy:  -412.43003840058077
    Total Energy =                       -412.4300384005807700
  @DF-UKS Final Energy:  -412.44926099470121
    Total Energy =                       -412.4492609947012625
  @DF-UKS Final Energy:  -412.45866435461159
    Total Energy =                       -412.4586643546116420
  @DF-UKS Final Energy:  -412.46318492902770
    Total Energy =                       -412.4631849290277046
  @DF-UKS Final Energy:  -412.46524337402445
    Total Energy =                       -412.4652433740244533
  @DF-UKS Final Energy:  -412.46606223693664
    Total Energy =                       -412.4660622369365797
  @DF-UKS Final Energy:  -412.46626429853239
    Total Energy =                       -412.4662642985323942
  @DF-UKS Final Energy:  -412.46633264179940
    Total Energy =                       -412.4663326417993972
  @DF-UKS Final Energy:  -412.46634304113661
    Total Energy =                       -412.4663430411366107
  Basis Set: (CC-PVDZ AUX)
    Blend: CC-PVDZ-JKFIT + DEF2-UNIVERSAL-JKFIT
  Basis Set: CC-PVDZ
    Blend: CC-PVDZ
  Basis Set: (CC-PVDZ AUX)
    Blend: CC-PVDZ-JKFIT + DEF2-UNIVERSAL-JKFIT
  @DF-UKS Final Energy:  -412.46634465936501
    Total Energy =                       -412.4663446593650065
  Basis Set: CC-PVDZ
    Blend: CC-PVDZ
  Basis Set: (CC-PVDZ AUX)
    Blend: CC-PVDZ-JKFIT + DEF2-UNIVERSAL-JKFIT
  Charge       = 1
  Multiplicity = 4
  Basis Set: CC-PVDZ
    Blend: CC-PVDZ
  Basis Set: (CC-PVDZ AUX)
    Blend: CC-PVDZ-JKFIT + DEF2-UNIVERSAL-JKFIT

    Orbital Energies [Eh]
    ---------------------

    Alpha Occupied:

       1A1   -89.181481     2A1    -8.239381     3A1    -6.209068
       1B1    -6.208209     1B2    -6.188280     4A1    -4.464219
       5A1    -0.967414     6A1    -0.619026     2B1    -0.564326
       2B2    -0.516608     7A1    -0.489842

    Alpha Virtual:

       3B1    -0.321017     3B2    -0.317511     8A1    -0.280928
       9A1    -0.057208     4B1    -0.028510     4B2    -0.026242
      10A1    -0.020857     5B1     0.131219     5B2     0.143931
      11A1     0.165908     1A2     0.197800    12A1     0.197945
       6B1     0.260950     6B2     0.292574    13A1     0.306608
      14A1     0.327359     2A2     0.328253    15A1     0.350879
       7B1     0.396606     7B2     0.422688    16A1     0.661208

    Beta Occupied:

       1A1   -89.170726     2A1    -8.228266     3A1    -6.188922
       1B1    -6.186269     1B2    -6.181708     4A1    -4.447726
       5A1    -0.876425     2B2    -0.490191

    Beta Virtual:

       6A1    -0.472890     2B1    -0.407308     7A1    -0.344855
       3B2    -0.262683     3B1    -0.252107     8A1    -0.202392
       9A1    -0.037690     4B2    -0.013062     4B1    -0.008746
      10A1     0.013016     5B2     0.202684     5B1     0.213443
      11A1     0.227309     1A2     0.257944    12A1     0.264309
       6B2     0.310920     6B1     0.318347    13A1     0.370057
       2A2     0.386015    14A1     0.391189    15A1     0.400911
       7B2     0.474326     7B1     0.484086    16A1     0.716556

    Final Occupation by Irrep:
             A1    A2    B1    B2
    DOCC [     5,    0,    1,    2 ]
    SOCC [     2,    0,    1,    0 ]
    NA   [     7,    0,    2,    2 ]
    NB   [     5,    0,    1,    2 ]

  @DF-UKS Final Energy:  -412.46634491309476

   => Energetics <=

    Nuclear Repulsion Energy =             13.0025294792130026
    One-Electron Energy =                -589.3459680701773777
    Two-Electron Energy =                 186.5791391860802833
    DFT Exchange-Correlation Energy =     -22.7020455082105990
    Empirical Dispersion Energy =           0.0000000000000000
    VV10 Nonlocal Energy =                  0.0000000000000000
    Total Energy =                       -412.4663449130947015

  UHF NO Occupations:
  HONO-2 :    6 A1 1.0000000
  HONO-1 :    7 A1 1.0000000
  HONO-0 :    2 B1 1.0000000
  LUNO+0 :    8 A1 0.0009993
  LUNO+1 :    3 B2 0.0002668
  LUNO+2 :    9 A1 0.0000002
  LUNO+3 :   10 A1 0.0000000

Computation Completed

Properties will be evaluated at   0.000000,   0.000000,   0.000000 [a0]

Properties computed using the SCF density matrix

 Multipole Moments:

 ------------------------------------------------------------------------------------
     Multipole            Electronic (a.u.)      Nuclear  (a.u.)        Total (a.u.)
 ------------------------------------------------------------------------------------

 L = 1.  Multiply by 2.5417464519 to convert [e a0] to [Debye]
 Dipole X            :          0.0000000            0.0000000            0.0000000
 Dipole Y            :          0.0000000            0.0000000            0.0000000
 Dipole Z            :          4.2445405           -1.9583923            2.2861482
 Magnitude           :                                                    2.2861482

 ------------------------------------------------------------------------------------

*** tstop() called on Joses-MacBook-Pro-2.local at Thu Jul 17 13:24:39 2025
Module time:
	user time   =       2.51 seconds =       0.04 minutes
	system time =       4.67 seconds =       0.08 minutes
	total time  =          1 seconds =       0.02 minutes
Total time:
	user time   =      54.22 seconds =       0.90 minutes
	system time =      98.76 seconds =       1.65 minutes
	total time  =         15 seconds =       0.25 minutes

*** tstart() called on Joses-MacBook-Pro-2.local
*** at Thu Jul 17 13:24:39 2025

         ------------------------------------------------------------
                                   SCF GRAD
                          Rob Parrish, Justin Turney,
                       Andy Simmonett, and Alex Sokolov
         ------------------------------------------------------------

  ==> Geometry <==

    Molecular point group: c2v
    Full point group: C_inf_v

    Geometry (in Angstrom), charge = 1, multiplicity = 4:

       Center              X                  Y                   Z               Mass
    ------------   -----------------  -----------------  -----------------  -----------------
         BE           0.000000000000     0.000000000000     2.031921818858     9.012183065000
         S            0.000000000000     0.000000000000    -0.572751490056    31.972071174400

  Nuclear repulsion =   13.002529479213003

  ==> Basis Set <==

  Basis Set: CC-PVDZ
    Blend: CC-PVDZ
    Number of shells: 14
    Number of basis functions: 32
    Number of Cartesian functions: 34
    Spherical Harmonics?: true
    Max angular momentum: 2

  ==> DFJKGrad: Density-Fitted SCF Gradients <==

    Gradient:                    1
    J tasked:                  Yes
    K tasked:                  Yes
    wK tasked:                  No
    OpenMP threads:              1
    Integrals threads:           1
    Memory [MiB]:              375
    Schwarz Cutoff:          1E-12
    Fitting Condition:       1E-10

   => Auxiliary Basis Set <=

  Basis Set: (CC-PVDZ AUX)
    Blend: CC-PVDZ-JKFIT + DEF2-UNIVERSAL-JKFIT
    Number of shells: 53
    Number of basis functions: 163
    Number of Cartesian functions: 190
    Spherical Harmonics?: true
    Max angular momentum: 3

  ==> DFT Potential <==

   => LibXC <=

    Version 6.2.2
    S. Lehtola, C. Steigemann, M. J.T. Oliveira, and M. A.L. Marques.,  SoftwareX 7, 1â€“5 (2018) (10.1016/j.softx.2017.11.002)

   => Composite Functional: B3LYP <=

    B3LYP Hyb-GGA Exchange-Correlation Functional

    P. J. Stephens, F. J. Devlin, C. F. Chabalowski, and M. J. Frisch.,  J. Phys. Chem. 98, 11623 (1994) (10.1021/j100096a001)

    Deriv               =              1
    GGA                 =           TRUE
    Meta                =          FALSE

    Exchange Hybrid     =           TRUE
    MP2 Hybrid          =          FALSE

   => Exchange Functionals <=

    0.0800   Slater exchange
    0.7200         Becke 88

   => Exact (HF) Exchange <=

    0.2000               HF

   => Correlation Functionals <=

    0.1900   Vosko, Wilk & Nusair (VWN5_RPA)
    0.8100   Lee, Yang & Parr

   => LibXC Density Thresholds  <==

    XC_HYB_GGA_XC_B3LYP:  1.00E-15

   => Molecular Quadrature <=

    Radial Scheme          =       TREUTLER
    Pruning Scheme         =           NONE
    Nuclear Scheme         =       TREUTLER

    Blocking Scheme        =         OCTREE
    BS radius alpha        =              1
    Pruning alpha          =              1
    Radial Points          =             75
    Spherical Points       =            302
    Total Points           =          42803
    Total Blocks           =            396
    Max Points             =            256
    Max Functions          =             32
    Weights Tolerance      =       1.00E-15

  -Total Gradient:
     Atom            X                  Y                   Z
    ------   -----------------  -----------------  -----------------
       1        0.000000000000    -0.000000000000    -0.000008228582
       2        0.000000000000     0.000000000000     0.000027249424

*** tstop() called on Joses-MacBook-Pro-2.local at Thu Jul 17 13:24:39 2025
Module time:
	user time   =       0.54 seconds =       0.01 minutes
	system time =       2.11 seconds =       0.04 minutes
	total time  =          0 seconds =       0.00 minutes
Total time:
	user time   =      54.76 seconds =       0.91 minutes
	system time =     100.88 seconds =       1.68 minutes
	total time  =         15 seconds =       0.25 minutes

    			-----------------------------------------

    			 OPTKING 3.0: for geometry optimizations

    			     By R.A. King, Bethel University

    			        with contributions from

    			    A.V. Copan, J. Cayton, A. Heide

    			-----------------------------------------

	                            ===> Fragment 1 <==

	 Z (Atomic Numbers)          Masses                          Geom
	       4.000000             9.012183          0.00000000  0.00000000  3.83977575
	      16.000000            31.972071          0.00000000  0.00000000 -1.08234345

	 - Coordinate -           - BOHR/RAD -       - ANG/DEG -
	 R(1,2)           =         4.922119           2.604673

	        --- Internal Coordinate Step in ANG or DEG, aJ/ANG or AJ/DEG ---
	-------------------------------------------------------------------------------
	           Coordinate      Previous         Force          Change          New
	           ----------      --------        ------          ------        ------
	               R(1,2)       2.60467        0.00015        0.00113       2.60581
	-------------------------------------------------------------------------------

	                                 ==> Convergence Check <==

	Measures of convergence in internal coordinates in au.

	Criteria marked as inactive (o), active & met (*), and active & unmet ( ).

	----------------------------------------------------------------------------------------------
	   Step    Total Energy     Delta E     Max Force     RMS Force      Max Disp      RMS Disp
	----------------------------------------------------------------------------------------------
	  Convergence Criteria     1.00e-06 *    3.00e-04 *             o    1.20e-03 *             o
	----------------------------------------------------------------------------------------------
	    15    -412.46634491   -2.54e-07 *    1.77e-05 *    1.77e-05 o    2.14e-03      2.14e-03 o  ~
	----------------------------------------------------------------------------------------------

Next Geometry in Ang
	Fragment 1 (Ang)

	   Be   0.0000000000   0.0000000000   2.0324892768
	    S   0.0000000000   0.0000000000  -0.5733189480

    Final optimized geometry and variables:
    Molecular point group: c2v
    Full point group: C_inf_v

    Geometry (in Angstrom), charge = 1, multiplicity = 4:

    BE           0.000000000000     0.000000000000     2.031921818858
    S            0.000000000000     0.000000000000    -0.572751490056

    Psi4 stopped on: Thursday, 17 July 2025 01:24PM
    Psi4 wall time for execution: 0:00:15.58

*** Psi4 exiting successfully. Buy a developer a beer!
