                               Psi4 1.9.1 release

  ==> Input File <==

--------------------------------------------------------------------------
molecule {
1 4
Si   0.00000        0.60000        0.00000
Ar   0.00000       -0.60000        0.00000
}

set {
basis              cc-pvdz
reference          uks
maxiter            500
geom_maxiter       500
DAMPING_PERCENTAGE 1
guess              SAP
}

optimize('b3lyp')
--------------------------------------------------------------------------

    Molecular point group: c2v
  Charge       = 1
  Multiplicity = 4
  Basis Set: CC-PVDZ
    Blend: CC-PVDZ
  Basis Set: (CC-PVDZ AUX)
    Blend: CC-PVDZ-JKFIT
  @DF-UKS Final Energy:  -815.17331442990996
    Total Energy =                       -815.1733144299100786
 Dipole X            :          0.0000000            0.0000000            0.0000000
 Dipole Y            :          0.0000000            0.0000000            0.0000000
 Dipole Z            :         -2.5192147            1.8654469           -0.6537679
 Magnitude           :                                                    0.6537679
    Molecular point group: c2v
  Basis Set: CC-PVDZ
    Blend: CC-PVDZ
  Basis Set: (CC-PVDZ AUX)
    Blend: CC-PVDZ-JKFIT
  Basis Set: CC-PVDZ
    Blend: CC-PVDZ
  Basis Set: (CC-PVDZ AUX)
    Blend: CC-PVDZ-JKFIT
  @DF-UKS Final Energy:  -815.21406694929090
    Total Energy =                       -815.2140669492908955
  Basis Set: CC-PVDZ
    Blend: CC-PVDZ
  Basis Set: (CC-PVDZ AUX)
    Blend: CC-PVDZ-JKFIT
  Basis Set: CC-PVDZ
    Blend: CC-PVDZ
  @DF-UKS Final Energy:  -815.28969229770610
    Total Energy =                       -815.2896922977060967
  @DF-UKS Final Energy:  -815.53596579527743
    Total Energy =                       -815.5359657952773205
  @DF-UKS Final Energy:  -816.06193375771454
    Total Energy =                       -816.0619337577144279
  @DF-UKS Final Energy:  -816.24849960612175
    Total Energy =                       -816.2484996061217544
  @DF-UKS Final Energy:  -816.36833753965948
    Total Energy =                       -816.3683375396594784
  @DF-UKS Final Energy:  -816.43219396191228
    Total Energy =                       -816.4321939619122759
  @DF-UKS Final Energy:  -816.46062409833837
    Total Energy =                       -816.4606240983383714
  @DF-UKS Final Energy:  -816.47234256639285
    Total Energy =                       -816.4723425663928538
  @DF-UKS Final Energy:  -816.47554943266016
    Total Energy =                       -816.4755494326601593
  @DF-UKS Final Energy:  -816.47687698247410
    Total Energy =                       -816.4768769824740957
  @DF-UKS Final Energy:  -816.47717443268846
    Total Energy =                       -816.4771744326884573
  @DF-UKS Final Energy:  -816.47726397881308
    Total Energy =                       -816.4772639788130846
  @DF-UKS Final Energy:  -816.47727506235515
    Total Energy =                       -816.4772750623551474
  Basis Set: (CC-PVDZ AUX)
    Blend: CC-PVDZ-JKFIT
  Basis Set: CC-PVDZ
    Blend: CC-PVDZ
  Basis Set: (CC-PVDZ AUX)
    Blend: CC-PVDZ-JKFIT
  @DF-UKS Final Energy:  -816.47727658189706
    Total Energy =                       -816.4772765818971720
  Basis Set: CC-PVDZ
    Blend: CC-PVDZ
  Basis Set: (CC-PVDZ AUX)
    Blend: CC-PVDZ-JKFIT
  Charge       = 1
  Multiplicity = 4
  Basis Set: CC-PVDZ
    Blend: CC-PVDZ
  Basis Set: (CC-PVDZ AUX)
    Blend: CC-PVDZ-JKFIT

    Orbital Energies [Eh]
    ---------------------

    Alpha Occupied:

       1A1  -115.429533     2A1   -66.502931     3A1   -11.465108
       4A1    -9.020679     1B1    -9.012537     1B2    -9.012537
       5A1    -5.642303     6A1    -4.004440     2B1    -4.000357
       2B2    -4.000357     7A1    -1.293549     8A1    -0.825214
       3B1    -0.729625     3B2    -0.729625     9A1    -0.692704
       4B1    -0.464493     4B2    -0.464493

    Alpha Virtual:

      10A1    -0.337151    11A1    -0.016317    12A1     0.038850
       5B1     0.039164     5B2     0.039164     1A2     0.056355
      13A1     0.056355     6B1     0.065313     6B2     0.065313
      14A1     0.140949     7B2     0.360836     7B1     0.360836
      15A1     0.370445    16A1     0.531315     2A2     0.531317
      17A1     0.550816     8B1     0.573347     8B2     0.573347
      18A1     0.949679

    Beta Occupied:

       1A1  -115.427688     2A1   -66.489372     3A1   -11.463345
       4A1    -9.016086     1B1    -9.010955     1B2    -9.010955
       5A1    -5.624405     6A1    -3.993322     2B1    -3.977792
       2B2    -3.977792     7A1    -1.283066     8A1    -0.783538
       3B1    -0.723543     3B2    -0.723543

    Beta Virtual:

       9A1    -0.526892     4B1    -0.295686     4B2    -0.295686
      10A1    -0.277578    11A1     0.012474    12A1     0.076867
       5B1     0.111766     5B2     0.111766     6B1     0.123596
       6B2     0.123596    13A1     0.181568     1A2     0.181569
      14A1     0.187899     7B2     0.366282     7B1     0.366282
      15A1     0.387849    16A1     0.535665     2A2     0.535668
      17A1     0.563504     8B1     0.592028     8B2     0.592028
      18A1     0.965344

    Final Occupation by Irrep:
             A1    A2    B1    B2
    DOCC [     8,    0,    3,    3 ]
    SOCC [     1,    0,    1,    1 ]
    NA   [     9,    0,    4,    4 ]
    NB   [     8,    0,    3,    3 ]

  @DF-UKS Final Energy:  -816.47727665614877

   => Energetics <=

    Nuclear Repulsion Energy =             57.8453104588482816
    One-Electron Energy =               -1234.3683999949403187
    Two-Electron Energy =                 401.5143376121380925
    DFT Exchange-Correlation Energy =     -41.4685247321947585
    Empirical Dispersion Energy =           0.0000000000000000
    VV10 Nonlocal Energy =                  0.0000000000000000
    Total Energy =                       -816.4772766561487742

  UHF NO Occupations:
  HONO-2 :    4 B1 1.0000000
  HONO-1 :    4 B2 1.0000000
  HONO-0 :    9 A1 1.0000000
  LUNO+0 :   10 A1 0.0003054
  LUNO+1 :    5 B1 0.0000245
  LUNO+2 :    5 B2 0.0000245
  LUNO+3 :   11 A1 0.0000125

Computation Completed

Properties will be evaluated at   0.000000,   0.000000,   0.000000 [a0]

Properties computed using the SCF density matrix

 Multipole Moments:

 ------------------------------------------------------------------------------------
     Multipole            Electronic (a.u.)      Nuclear  (a.u.)        Total (a.u.)
 ------------------------------------------------------------------------------------

 L = 1.  Multiply by 2.5417464519 to convert [e a0] to [Debye]
 Dipole X            :          0.0000000            0.0000000            0.0000000
 Dipole Y            :          0.0000000            0.0000000            0.0000000
 Dipole Z            :         -2.5550128            3.5837289            1.0287161
 Magnitude           :                                                    1.0287161

 ------------------------------------------------------------------------------------

*** tstop() called on Joses-MacBook-Pro-2.local at Thu Jul 17 15:43:58 2025
Module time:
	user time   =       6.89 seconds =       0.11 minutes
	system time =       1.99 seconds =       0.03 minutes
	total time  =          1 seconds =       0.02 minutes
Total time:
	user time   =     196.78 seconds =       3.28 minutes
	system time =      49.42 seconds =       0.82 minutes
	total time  =         24 seconds =       0.40 minutes

*** tstart() called on Joses-MacBook-Pro-2.local
*** at Thu Jul 17 15:43:58 2025

         ------------------------------------------------------------
                                   SCF GRAD
                          Rob Parrish, Justin Turney,
                       Andy Simmonett, and Alex Sokolov
         ------------------------------------------------------------

  ==> Geometry <==

    Molecular point group: c2v
    Full point group: C_inf_v

    Geometry (in Angstrom), charge = 1, multiplicity = 4:

       Center              X                  Y                   Z               Mass
    ------------   -----------------  -----------------  -----------------  -----------------
         SI           0.000000000000     0.000000000000     1.356012730376    27.976926534650
         AR           0.000000000000     0.000000000000    -0.949319474275    39.962383123700

  Nuclear repulsion =   57.845310458848282

  ==> Basis Set <==

  Basis Set: CC-PVDZ
    Blend: CC-PVDZ
    Number of shells: 16
    Number of basis functions: 36
    Number of Cartesian functions: 38
    Spherical Harmonics?: true
    Max angular momentum: 2

  ==> DFJKGrad: Density-Fitted SCF Gradients <==

    Gradient:                    1
    J tasked:                  Yes
    K tasked:                  Yes
    wK tasked:                  No
    OpenMP threads:              1
    Integrals threads:           1
    Memory [MiB]:              375
    Schwarz Cutoff:          1E-12
    Fitting Condition:       1E-10

   => Auxiliary Basis Set <=

  Basis Set: (CC-PVDZ AUX)
    Blend: CC-PVDZ-JKFIT
    Number of shells: 72
    Number of basis functions: 224
    Number of Cartesian functions: 260
    Spherical Harmonics?: true
    Max angular momentum: 3

  ==> DFT Potential <==

   => LibXC <=

    Version 6.2.2
    S. Lehtola, C. Steigemann, M. J.T. Oliveira, and M. A.L. Marques.,  SoftwareX 7, 1â€“5 (2018) (10.1016/j.softx.2017.11.002)

   => Composite Functional: B3LYP <=

    B3LYP Hyb-GGA Exchange-Correlation Functional

    P. J. Stephens, F. J. Devlin, C. F. Chabalowski, and M. J. Frisch.,  J. Phys. Chem. 98, 11623 (1994) (10.1021/j100096a001)

    Deriv               =              1
    GGA                 =           TRUE
    Meta                =          FALSE

    Exchange Hybrid     =           TRUE
    MP2 Hybrid          =          FALSE

   => Exchange Functionals <=

    0.0800   Slater exchange
    0.7200         Becke 88

   => Exact (HF) Exchange <=

    0.2000               HF

   => Correlation Functionals <=

    0.1900   Vosko, Wilk & Nusair (VWN5_RPA)
    0.8100   Lee, Yang & Parr

   => LibXC Density Thresholds  <==

    XC_HYB_GGA_XC_B3LYP:  1.00E-15

   => Molecular Quadrature <=

    Radial Scheme          =       TREUTLER
    Pruning Scheme         =           NONE
    Nuclear Scheme         =       TREUTLER

    Blocking Scheme        =         OCTREE
    BS radius alpha        =              1
    Pruning alpha          =              1
    Radial Points          =             75
    Spherical Points       =            302
    Total Points           =          41627
    Total Blocks           =            384
    Max Points             =            255
    Max Functions          =             36
    Weights Tolerance      =       1.00E-15

  -Total Gradient:
     Atom            X                  Y                   Z
    ------   -----------------  -----------------  -----------------
       1        0.000000000000     0.000000000000    -0.000005856005
       2        0.000000000000     0.000000000000     0.000025230305

*** tstop() called on Joses-MacBook-Pro-2.local at Thu Jul 17 15:43:58 2025
Module time:
	user time   =       2.43 seconds =       0.04 minutes
	system time =       1.32 seconds =       0.02 minutes
	total time  =          0 seconds =       0.00 minutes
Total time:
	user time   =     199.21 seconds =       3.32 minutes
	system time =      50.75 seconds =       0.85 minutes
	total time  =         24 seconds =       0.40 minutes

    			-----------------------------------------

    			 OPTKING 3.0: for geometry optimizations

    			     By R.A. King, Bethel University

    			        with contributions from

    			    A.V. Copan, J. Cayton, A. Heide

    			-----------------------------------------

	                            ===> Fragment 1 <==

	 Z (Atomic Numbers)          Masses                          Geom
	      14.000000            27.976927          0.00000000  0.00000000  2.56249268
	      18.000000            39.962383          0.00000000  0.00000000 -1.79395381

	 - Coordinate -           - BOHR/RAD -       - ANG/DEG -
	 R(1,2)           =         4.356446           2.305332

	        --- Internal Coordinate Step in ANG or DEG, aJ/ANG or AJ/DEG ---
	-------------------------------------------------------------------------------
	           Coordinate      Previous         Force          Change          New
	           ----------      --------        ------          ------        ------
	               R(1,2)       2.30533        0.00013        0.00012       2.30546
	-------------------------------------------------------------------------------

	                                 ==> Convergence Check <==

	Measures of convergence in internal coordinates in au.

	Criteria marked as inactive (o), active & met (*), and active & unmet ( ).

	----------------------------------------------------------------------------------------------
	   Step    Total Energy     Delta E     Max Force     RMS Force      Max Disp      RMS Disp
	----------------------------------------------------------------------------------------------
	  Convergence Criteria     1.00e-06 *    3.00e-04 *             o    1.20e-03 *             o
	----------------------------------------------------------------------------------------------
	    17    -816.47727666   -7.43e-08 *    1.55e-05 *    1.55e-05 o    2.35e-04 *    2.35e-04 o  ~
	----------------------------------------------------------------------------------------------

Next Geometry in Ang
	Fragment 1 (Ang)

	   Si   0.0000000000   0.0000000000   1.3560750279
	   Ar   0.0000000000   0.0000000000  -0.9493817718

    Final optimized geometry and variables:
    Molecular point group: c2v
    Full point group: C_inf_v

    Geometry (in Angstrom), charge = 1, multiplicity = 4:

    SI           0.000000000000     0.000000000000     1.356012730376
    AR           0.000000000000     0.000000000000    -0.949319474275

    Psi4 stopped on: Thursday, 17 July 2025 03:43PM
    Psi4 wall time for execution: 0:00:24.25

*** Psi4 exiting successfully. Buy a developer a beer!
