                               Psi4 1.9.1 release

  ==> Input File <==

--------------------------------------------------------------------------
molecule {
1 4
Li   0.00000        0.60000        0.00000
P   0.00000       -0.60000        0.00000
}

set {
basis              cc-pvdz
reference          uks
maxiter            500
geom_maxiter       500
DAMPING_PERCENTAGE 1
guess              SAP
}

optimize('b3lyp')
--------------------------------------------------------------------------

    Molecular point group: c2v
  Charge       = 1
  Multiplicity = 4
  Basis Set: CC-PVDZ
    Blend: CC-PVDZ
  Basis Set: (CC-PVDZ AUX)
    Blend: CC-PVDZ-JKFIT + DEF2-UNIVERSAL-JKFIT
  @DF-UKS Final Energy:  -348.04866039598693
    Total Energy =                       -348.0486603959869285
 Dipole X            :          0.0000000            0.0000000            0.0000000
 Dipole Y            :          0.0000000            0.0000000            0.0000000
 Dipole Z            :          2.1030109           -0.7353273            1.3676836
 Magnitude           :                                                    1.3676836
    Molecular point group: c2v
  Basis Set: CC-PVDZ
    Blend: CC-PVDZ
  Basis Set: (CC-PVDZ AUX)
    Blend: CC-PVDZ-JKFIT + DEF2-UNIVERSAL-JKFIT
  Basis Set: CC-PVDZ
    Blend: CC-PVDZ
  Basis Set: (CC-PVDZ AUX)
    Blend: CC-PVDZ-JKFIT + DEF2-UNIVERSAL-JKFIT
  @DF-UKS Final Energy:  -348.19763862092117
    Total Energy =                       -348.1976386209211114
  Basis Set: CC-PVDZ
    Blend: CC-PVDZ
  Basis Set: (CC-PVDZ AUX)
    Blend: CC-PVDZ-JKFIT + DEF2-UNIVERSAL-JKFIT
  Basis Set: CC-PVDZ
    Blend: CC-PVDZ
  @DF-UKS Final Energy:  -348.34579643188357
    Total Energy =                       -348.3457964318835707
  @DF-UKS Final Energy:  -348.46229869429806
    Total Energy =                       -348.4622986942980560
  @DF-UKS Final Energy:  -348.52205693100143
    Total Energy =                       -348.5220569310014298
  @DF-UKS Final Energy:  -348.55197009124794
    Total Energy =                       -348.5519700912479379
  @DF-UKS Final Energy:  -348.56691868839732
    Total Energy =                       -348.5669186883973225
  @DF-UKS Final Energy:  -348.57377839234618
    Total Energy =                       -348.5737783923461279
  @DF-UKS Final Energy:  -348.57652244213926
    Total Energy =                       -348.5765224421393214
  @DF-UKS Final Energy:  -348.57738129702301
    Total Energy =                       -348.5773812970230097
  @DF-UKS Final Energy:  -348.57752720486792
    Total Energy =                       -348.5775272048679199
  @DF-UKS Final Energy:  -348.57755890691971
    Total Energy =                       -348.5775589069197054
  Basis Set: (CC-PVDZ AUX)
    Blend: CC-PVDZ-JKFIT + DEF2-UNIVERSAL-JKFIT
  Basis Set: CC-PVDZ
    Blend: CC-PVDZ
  Basis Set: (CC-PVDZ AUX)
    Blend: CC-PVDZ-JKFIT + DEF2-UNIVERSAL-JKFIT
  @DF-UKS Final Energy:  -348.57756135863548
    Total Energy =                       -348.5775613586354780
  Basis Set: CC-PVDZ
    Blend: CC-PVDZ
  Basis Set: (CC-PVDZ AUX)
    Blend: CC-PVDZ-JKFIT + DEF2-UNIVERSAL-JKFIT
  Charge       = 1
  Multiplicity = 4
  Basis Set: CC-PVDZ
    Blend: CC-PVDZ
  Basis Set: (CC-PVDZ AUX)
    Blend: CC-PVDZ-JKFIT + DEF2-UNIVERSAL-JKFIT

    Orbital Energies [Eh]
    ---------------------

    Alpha Occupied:

       1A1   -77.326466     2A1    -6.794081     3A1    -4.957885
       1B2    -4.957213     1B1    -4.957213     4A1    -2.310017
       5A1    -0.801626     6A1    -0.477794     2B1    -0.453483
       2B2    -0.453483

    Alpha Virtual:

       7A1    -0.226403     3B2    -0.176461     3B1    -0.176461
       8A1    -0.136932     9A1    -0.073254     4B2    -0.063699
       4B1    -0.063699    10A1    -0.042437     5B2     0.046209
       5B1     0.046209     1A2     0.060203    11A1     0.060204
      12A1     0.089844     6B1     0.236340     6B2     0.236340
      13A1     0.244471     2A2     0.244477    14A1     0.259437
      15A1     0.280022     7B1     0.345195     7B2     0.345195
      16A1     0.572139

    Beta Occupied:

       1A1   -77.314147     2A1    -6.780967     3A1    -4.939595
       1B2    -4.937565     1B1    -4.937565     4A1    -2.308873
       5A1    -0.686756

    Beta Virtual:

       6A1    -0.341433     2B1    -0.308136     2B2    -0.308136
       7A1    -0.221197     3B2    -0.166232     3B1    -0.166232
       8A1    -0.125271     4B2    -0.061288     4B1    -0.061288
       9A1    -0.051422    10A1    -0.040427     5B2     0.065943
       5B1     0.065943     1A2     0.067242    11A1     0.067244
      12A1     0.116261     6B1     0.290348     6B2     0.290348
      13A1     0.318319    14A1     0.319286    15A1     0.339520
       2A2     0.339527     7B1     0.413188     7B2     0.413188
      16A1     0.620267

    Final Occupation by Irrep:
             A1    A2    B1    B2
    DOCC [     5,    0,    1,    1 ]
    SOCC [     1,    0,    1,    1 ]
    NA   [     6,    0,    2,    2 ]
    NB   [     5,    0,    1,    1 ]

  @DF-UKS Final Energy:  -348.57756150389071

   => Energetics <=

    Nuclear Repulsion Energy =              8.7426786084984389
    One-Electron Energy =                -494.9683318168422375
    Two-Electron Energy =                 157.6833892826393253
    DFT Exchange-Correlation Energy =     -20.0352975781862597
    Empirical Dispersion Energy =           0.0000000000000000
    VV10 Nonlocal Energy =                  0.0000000000000000
    Total Energy =                       -348.5775615038907063

  UHF NO Occupations:
  HONO-2 :    2 B1 1.0000000
  HONO-1 :    6 A1 1.0000000
  HONO-0 :    2 B2 1.0000000
  LUNO+0 :    7 A1 0.0002015
  LUNO+1 :    8 A1 0.0000002
  LUNO+2 :    9 A1 0.0000000
  LUNO+3 :    3 B1 0.0000000

Computation Completed

Properties will be evaluated at   0.000000,   0.000000,   0.000000 [a0]

Properties computed using the SCF density matrix

 Multipole Moments:

 ------------------------------------------------------------------------------------
     Multipole            Electronic (a.u.)      Nuclear  (a.u.)        Total (a.u.)
 ------------------------------------------------------------------------------------

 L = 1.  Multiply by 2.5417464519 to convert [e a0] to [Debye]
 Dipole X            :          0.0000000            0.0000000            0.0000000
 Dipole Y            :          0.0000000            0.0000000            0.0000000
 Dipole Z            :          4.9560906           -1.6690470            3.2870436
 Magnitude           :                                                    3.2870436

 ------------------------------------------------------------------------------------

*** tstop() called on Joses-MacBook-Pro-2.local at Thu Jul 17 12:55:35 2025
Module time:
	user time   =       2.37 seconds =       0.04 minutes
	system time =       3.43 seconds =       0.06 minutes
	total time  =          1 seconds =       0.02 minutes
Total time:
	user time   =      64.37 seconds =       1.07 minutes
	system time =      76.01 seconds =       1.27 minutes
	total time  =         14 seconds =       0.23 minutes

*** tstart() called on Joses-MacBook-Pro-2.local
*** at Thu Jul 17 12:55:35 2025

         ------------------------------------------------------------
                                   SCF GRAD
                          Rob Parrish, Justin Turney,
                       Andy Simmonett, and Alex Sokolov
         ------------------------------------------------------------

  ==> Geometry <==

    Molecular point group: c2v
    Full point group: C_inf_v

    Geometry (in Angstrom), charge = 1, multiplicity = 4:

       Center              X                  Y                   Z               Mass
    ------------   -----------------  -----------------  -----------------  -----------------
         LI           0.000000000000     0.000000000000     2.220733673539     7.016003436600
         P            0.000000000000     0.000000000000    -0.503028178693    30.973761998420

  Nuclear repulsion =    8.742678608498439

  ==> Basis Set <==

  Basis Set: CC-PVDZ
    Blend: CC-PVDZ
    Number of shells: 14
    Number of basis functions: 32
    Number of Cartesian functions: 34
    Spherical Harmonics?: true
    Max angular momentum: 2

  ==> DFJKGrad: Density-Fitted SCF Gradients <==

    Gradient:                    1
    J tasked:                  Yes
    K tasked:                  Yes
    wK tasked:                  No
    OpenMP threads:              1
    Integrals threads:           1
    Memory [MiB]:              375
    Schwarz Cutoff:          1E-12
    Fitting Condition:       1E-10

   => Auxiliary Basis Set <=

  Basis Set: (CC-PVDZ AUX)
    Blend: CC-PVDZ-JKFIT + DEF2-UNIVERSAL-JKFIT
    Number of shells: 53
    Number of basis functions: 163
    Number of Cartesian functions: 190
    Spherical Harmonics?: true
    Max angular momentum: 3

  ==> DFT Potential <==

   => LibXC <=

    Version 6.2.2
    S. Lehtola, C. Steigemann, M. J.T. Oliveira, and M. A.L. Marques.,  SoftwareX 7, 1â€“5 (2018) (10.1016/j.softx.2017.11.002)

   => Composite Functional: B3LYP <=

    B3LYP Hyb-GGA Exchange-Correlation Functional

    P. J. Stephens, F. J. Devlin, C. F. Chabalowski, and M. J. Frisch.,  J. Phys. Chem. 98, 11623 (1994) (10.1021/j100096a001)

    Deriv               =              1
    GGA                 =           TRUE
    Meta                =          FALSE

    Exchange Hybrid     =           TRUE
    MP2 Hybrid          =          FALSE

   => Exchange Functionals <=

    0.0800   Slater exchange
    0.7200         Becke 88

   => Exact (HF) Exchange <=

    0.2000               HF

   => Correlation Functionals <=

    0.1900   Vosko, Wilk & Nusair (VWN5_RPA)
    0.8100   Lee, Yang & Parr

   => LibXC Density Thresholds  <==

    XC_HYB_GGA_XC_B3LYP:  1.00E-15

   => Molecular Quadrature <=

    Radial Scheme          =       TREUTLER
    Pruning Scheme         =           NONE
    Nuclear Scheme         =       TREUTLER

    Blocking Scheme        =         OCTREE
    BS radius alpha        =              1
    Pruning alpha          =              1
    Radial Points          =             75
    Spherical Points       =            302
    Total Points           =          44349
    Total Blocks           =            440
    Max Points             =            256
    Max Functions          =             32
    Weights Tolerance      =       1.00E-15

  -Total Gradient:
     Atom            X                  Y                   Z
    ------   -----------------  -----------------  -----------------
       1        0.000000000000     0.000000000000    -0.000001317673
       2       -0.000000000000     0.000000000000     0.000047598636

*** tstop() called on Joses-MacBook-Pro-2.local at Thu Jul 17 12:55:35 2025
Module time:
	user time   =       1.23 seconds =       0.02 minutes
	system time =       1.61 seconds =       0.03 minutes
	total time  =          0 seconds =       0.00 minutes
Total time:
	user time   =      65.60 seconds =       1.09 minutes
	system time =      77.62 seconds =       1.29 minutes
	total time  =         14 seconds =       0.23 minutes

    			-----------------------------------------

    			 OPTKING 3.0: for geometry optimizations

    			     By R.A. King, Bethel University

    			        with contributions from

    			    A.V. Copan, J. Cayton, A. Heide

    			-----------------------------------------

	                            ===> Fragment 1 <==

	 Z (Atomic Numbers)          Masses                          Geom
	       3.000000             7.016003          0.00000000  0.00000000  4.19657844
	      15.000000            30.973762          0.00000000  0.00000000 -0.95058549

	 - Coordinate -           - BOHR/RAD -       - ANG/DEG -
	 R(1,2)           =         5.147164           2.723762

	        --- Internal Coordinate Step in ANG or DEG, aJ/ANG or AJ/DEG ---
	-------------------------------------------------------------------------------
	           Coordinate      Previous         Force          Change          New
	           ----------      --------        ------          ------        ------
	               R(1,2)       2.72376        0.00020        0.00091       2.72467
	-------------------------------------------------------------------------------

	                                 ==> Convergence Check <==

	Measures of convergence in internal coordinates in au.

	Criteria marked as inactive (o), active & met (*), and active & unmet ( ).

	----------------------------------------------------------------------------------------------
	   Step    Total Energy     Delta E     Max Force     RMS Force      Max Disp      RMS Disp
	----------------------------------------------------------------------------------------------
	  Convergence Criteria     1.00e-06 *    3.00e-04 *             o    1.20e-03 *             o
	----------------------------------------------------------------------------------------------
	    14    -348.57756150   -1.45e-07 *    2.45e-05 *    2.45e-05 o    1.72e-03      1.72e-03 o  ~
	----------------------------------------------------------------------------------------------

Next Geometry in Ang
	Fragment 1 (Ang)

	   Li   0.0000000000   0.0000000000   2.2211897257
	    P   0.0000000000   0.0000000000  -0.5034842309

    Final optimized geometry and variables:
    Molecular point group: c2v
    Full point group: C_inf_v

    Geometry (in Angstrom), charge = 1, multiplicity = 4:

    LI           0.000000000000     0.000000000000     2.220733673539
    P            0.000000000000     0.000000000000    -0.503028178693

    Psi4 stopped on: Thursday, 17 July 2025 12:55PM
    Psi4 wall time for execution: 0:00:14.83

*** Psi4 exiting successfully. Buy a developer a beer!
