                               Psi4 1.9.1 release

  ==> Input File <==

--------------------------------------------------------------------------
molecule {
1 4
S   0.00000        0.60000        0.00000
S   0.00000       -0.60000        0.00000
}

set {
basis              cc-pvdz
reference          uks
maxiter            500
geom_maxiter       500
DAMPING_PERCENTAGE 1
guess              SAP
}

optimize('b3lyp')
--------------------------------------------------------------------------

    Molecular point group: d2h
  Charge       = 1
  Multiplicity = 4
  Basis Set: CC-PVDZ
    Blend: CC-PVDZ
  Basis Set: (CC-PVDZ AUX)
    Blend: CC-PVDZ-JKFIT
  @DF-UKS Final Energy:  -794.74640926376048
    Total Energy =                       -794.7464092637603699
 Dipole X            :          0.0000000            0.0000000            0.0000000
 Dipole Y            :          0.0000000            0.0000000            0.0000000
 Dipole Z            :          0.0000000            0.0000000            0.0000000
 Magnitude           :                                                    0.0000000
    Molecular point group: d2h
  Basis Set: CC-PVDZ
    Blend: CC-PVDZ
  Basis Set: (CC-PVDZ AUX)
    Blend: CC-PVDZ-JKFIT
  Basis Set: CC-PVDZ
    Blend: CC-PVDZ
  Basis Set: (CC-PVDZ AUX)
    Blend: CC-PVDZ-JKFIT
  @DF-UKS Final Energy:  -794.78820395186040
    Total Energy =                       -794.7882039518603960
  Basis Set: CC-PVDZ
    Blend: CC-PVDZ
  Basis Set: (CC-PVDZ AUX)
    Blend: CC-PVDZ-JKFIT
  Basis Set: CC-PVDZ
    Blend: CC-PVDZ
  @DF-UKS Final Energy:  -794.86554319004324
    Total Energy =                       -794.8655431900432404
  @DF-UKS Final Energy:  -795.11523588900207
    Total Energy =                       -795.1152358890019514
  @DF-UKS Final Energy:  -795.61520925438003
    Total Energy =                       -795.6152092543799199
  @DF-UKS Final Energy:  -795.77299426821367
    Total Energy =                       -795.7729942682137789
  @DF-UKS Final Energy:  -795.86524083698191
    Total Energy =                       -795.8652408369820250
  @DF-UKS Final Energy:  -795.89758590338056
    Total Energy =                       -795.8975859033805591
  @DF-UKS Final Energy:  -795.91260583640451
    Total Energy =                       -795.9126058364043956
  @DF-UKS Final Energy:  -795.91871728735566
    Total Energy =                       -795.9187172873556619
  @DF-UKS Final Energy:  -795.92014574659481
    Total Energy =                       -795.9201457465946987
  @DF-UKS Final Energy:  -795.92053171702105
    Total Energy =                       -795.9205317170210492
  @DF-UKS Final Energy:  -795.92066417594583
    Total Energy =                       -795.9206641759458307
  Basis Set: (CC-PVDZ AUX)
    Blend: CC-PVDZ-JKFIT
  Basis Set: CC-PVDZ
    Blend: CC-PVDZ
  Basis Set: (CC-PVDZ AUX)
    Blend: CC-PVDZ-JKFIT
  @DF-UKS Final Energy:  -795.92069156380558
    Total Energy =                       -795.9206915638054625
  Basis Set: CC-PVDZ
    Blend: CC-PVDZ
  Basis Set: (CC-PVDZ AUX)
    Blend: CC-PVDZ-JKFIT
  Charge       = 1
  Multiplicity = 4
  Basis Set: CC-PVDZ
    Blend: CC-PVDZ
  Basis Set: (CC-PVDZ AUX)
    Blend: CC-PVDZ-JKFIT

    Orbital Energies [Eh]
    ---------------------

    Alpha Occupied:

       1Ag   -89.273114     1B2u  -89.273114     2B2u   -8.329896
       2Ag    -8.329873     3Ag    -6.300581     3B2u   -6.300104
       1B3u   -6.288242     1B1u   -6.288242     1B1g   -6.288209
       1B3g   -6.288209     4Ag    -1.150191     4B2u   -0.964729
       5Ag    -0.732971     2B1u   -0.664507     2B3u   -0.664507
       2B3g   -0.550484     2B1g   -0.550484

    Alpha Virtual:

       5B2u   -0.331524     6Ag     0.015598     3B3u    0.087363
       3B1u    0.087363     6B2u    0.156163     7Ag     0.168474
       4B1u    0.195082     4B3u    0.195082     1B2g    0.210288
       8Ag     0.210289     3B3g    0.232520     3B1g    0.232520
       1Au     0.296895     7B2u    0.296896     8B2u    0.370186
       9Ag     0.480510     4B1g    0.506877     4B3g    0.506877
       9B2u    0.893867

    Beta Occupied:

       1Ag   -89.262992     1B2u  -89.262991     2B2u   -8.319497
       2Ag    -8.319462     3Ag    -6.286214     3B2u   -6.285750
       1B3u   -6.272839     1B1u   -6.272839     1B1g   -6.272804
       1B3g   -6.272804     4Ag    -1.091586     4B2u   -0.865702
       2B1u   -0.602841     2B3u   -0.602841

    Beta Virtual:

       5Ag    -0.592356     2B3g   -0.425376     2B1g   -0.425376
       5B2u   -0.273478     6Ag     0.055367     3B3u    0.151862
       3B1u    0.151862     6B2u    0.194118     7Ag     0.203867
       4B1u    0.224148     4B3u    0.224148     3B3g    0.262512
       3B1g    0.262512     1B2g    0.269281     8Ag     0.269282
       1Au     0.362180     7B2u    0.362181     8B2u    0.401607
       9Ag     0.521296     4B1g    0.566210     4B3g    0.566210
       9B2u    0.941139

    Final Occupation by Irrep:
             Ag   B1g   B2g   B3g    Au   B1u   B2u   B3u
    DOCC [     4,    1,    0,    1,    0,    2,    4,    2 ]
    SOCC [     1,    1,    0,    1,    0,    0,    0,    0 ]
    NA   [     5,    2,    0,    2,    0,    2,    4,    2 ]
    NB   [     4,    1,    0,    1,    0,    2,    4,    2 ]

  @DF-UKS Final Energy:  -795.92069426876492

   => Energetics <=

    Nuclear Repulsion Energy =             68.5599274777436847
    One-Electron Energy =               -1225.5119640760103721
    Two-Electron Energy =                 402.1195360982540024
    DFT Exchange-Correlation Energy =     -41.0881937687522552
    Empirical Dispersion Energy =           0.0000000000000000
    VV10 Nonlocal Energy =                  0.0000000000000000
    Total Energy =                       -795.9206942687649189

  UHF NO Occupations:
  HONO-2 :    2B3g 1.0000000
  HONO-1 :    5 Ag 1.0000000
  HONO-0 :    2B1g 1.0000000
  LUNO+0 :    3B1u 0.0016877
  LUNO+1 :    3B3u 0.0016877
  LUNO+2 :    5B2u 0.0012849
  LUNO+3 :    6 Ag 0.0000920

Computation Completed

Properties will be evaluated at   0.000000,   0.000000,   0.000000 [a0]

Properties computed using the SCF density matrix

 Multipole Moments:

 ------------------------------------------------------------------------------------
     Multipole            Electronic (a.u.)      Nuclear  (a.u.)        Total (a.u.)
 ------------------------------------------------------------------------------------

 L = 1.  Multiply by 2.5417464519 to convert [e a0] to [Debye]
 Dipole X            :          0.0000000            0.0000000            0.0000000
 Dipole Y            :          0.0000000            0.0000000            0.0000000
 Dipole Z            :          0.0000000            0.0000000            0.0000000
 Magnitude           :                                                    0.0000000

 ------------------------------------------------------------------------------------

*** tstop() called on Joses-MacBook-Pro-2.local at Thu Jul 17 15:50:06 2025
Module time:
	user time   =       6.64 seconds =       0.11 minutes
	system time =       2.34 seconds =       0.04 minutes
	total time  =          1 seconds =       0.02 minutes
Total time:
	user time   =     166.03 seconds =       2.77 minutes
	system time =      48.25 seconds =       0.80 minutes
	total time  =         20 seconds =       0.33 minutes

*** tstart() called on Joses-MacBook-Pro-2.local
*** at Thu Jul 17 15:50:06 2025

         ------------------------------------------------------------
                                   SCF GRAD
                          Rob Parrish, Justin Turney,
                       Andy Simmonett, and Alex Sokolov
         ------------------------------------------------------------

  ==> Geometry <==

    Molecular point group: d2h
    Full point group: D_inf_h

    Geometry (in Angstrom), charge = 1, multiplicity = 4:

       Center              X                  Y                   Z               Mass
    ------------   -----------------  -----------------  -----------------  -----------------
         S           -0.000000000000     0.987963165331     0.000000000000    31.972071174400
         S            0.000000000000    -0.987963165331     0.000000000000    31.972071174400

  Nuclear repulsion =   68.559927477743685

  ==> Basis Set <==

  Basis Set: CC-PVDZ
    Blend: CC-PVDZ
    Number of shells: 16
    Number of basis functions: 36
    Number of Cartesian functions: 38
    Spherical Harmonics?: true
    Max angular momentum: 2

  ==> DFJKGrad: Density-Fitted SCF Gradients <==

    Gradient:                    1
    J tasked:                  Yes
    K tasked:                  Yes
    wK tasked:                  No
    OpenMP threads:              1
    Integrals threads:           1
    Memory [MiB]:              375
    Schwarz Cutoff:          1E-12
    Fitting Condition:       1E-10

   => Auxiliary Basis Set <=

  Basis Set: (CC-PVDZ AUX)
    Blend: CC-PVDZ-JKFIT
    Number of shells: 72
    Number of basis functions: 224
    Number of Cartesian functions: 260
    Spherical Harmonics?: true
    Max angular momentum: 3

  ==> DFT Potential <==

   => LibXC <=

    Version 6.2.2
    S. Lehtola, C. Steigemann, M. J.T. Oliveira, and M. A.L. Marques.,  SoftwareX 7, 1â€“5 (2018) (10.1016/j.softx.2017.11.002)

   => Composite Functional: B3LYP <=

    B3LYP Hyb-GGA Exchange-Correlation Functional

    P. J. Stephens, F. J. Devlin, C. F. Chabalowski, and M. J. Frisch.,  J. Phys. Chem. 98, 11623 (1994) (10.1021/j100096a001)

    Deriv               =              1
    GGA                 =           TRUE
    Meta                =          FALSE

    Exchange Hybrid     =           TRUE
    MP2 Hybrid          =          FALSE

   => Exchange Functionals <=

    0.0800   Slater exchange
    0.7200         Becke 88

   => Exact (HF) Exchange <=

    0.2000               HF

   => Correlation Functionals <=

    0.1900   Vosko, Wilk & Nusair (VWN5_RPA)
    0.8100   Lee, Yang & Parr

   => LibXC Density Thresholds  <==

    XC_HYB_GGA_XC_B3LYP:  1.00E-15

   => Molecular Quadrature <=

    Radial Scheme          =       TREUTLER
    Pruning Scheme         =           NONE
    Nuclear Scheme         =       TREUTLER

    Blocking Scheme        =         OCTREE
    BS radius alpha        =              1
    Pruning alpha          =              1
    Radial Points          =             75
    Spherical Points       =            302
    Total Points           =          40222
    Total Blocks           =            368
    Max Points             =            256
    Max Functions          =             36
    Weights Tolerance      =       1.00E-15

  -Total Gradient:
     Atom            X                  Y                   Z
    ------   -----------------  -----------------  -----------------
       1        0.000000000000    -0.000189991799     0.000000000000
       2       -0.000000000000     0.000189991799     0.000000000000

*** tstop() called on Joses-MacBook-Pro-2.local at Thu Jul 17 15:50:06 2025
Module time:
	user time   =       2.84 seconds =       0.05 minutes
	system time =       0.94 seconds =       0.02 minutes
	total time  =          0 seconds =       0.00 minutes
Total time:
	user time   =     168.87 seconds =       2.81 minutes
	system time =      49.19 seconds =       0.82 minutes
	total time  =         20 seconds =       0.33 minutes

    			-----------------------------------------

    			 OPTKING 3.0: for geometry optimizations

    			     By R.A. King, Bethel University

    			        with contributions from

    			    A.V. Copan, J. Cayton, A. Heide

    			-----------------------------------------

	                            ===> Fragment 1 <==

	 Z (Atomic Numbers)          Masses                          Geom
	      16.000000            31.972071         -0.00000000  1.86697980  0.00000000
	      16.000000            31.972071          0.00000000 -1.86697980  0.00000000

	 - Coordinate -           - BOHR/RAD -       - ANG/DEG -
	 R(1,2)           =         3.733960           1.975926

	        --- Internal Coordinate Step in ANG or DEG, aJ/ANG or AJ/DEG ---
	-------------------------------------------------------------------------------
	           Coordinate      Previous         Force          Change          New
	           ----------      --------        ------          ------        ------
	               R(1,2)       1.97593        0.00157        0.00043       1.97636
	-------------------------------------------------------------------------------

	                                 ==> Convergence Check <==

	Measures of convergence in internal coordinates in au.

	Criteria marked as inactive (o), active & met (*), and active & unmet ( ).

	----------------------------------------------------------------------------------------------
	   Step    Total Energy     Delta E     Max Force     RMS Force      Max Disp      RMS Disp
	----------------------------------------------------------------------------------------------
	  Convergence Criteria     1.00e-06 *    3.00e-04 *             o    1.20e-03 *             o
	----------------------------------------------------------------------------------------------
	    15    -795.92069427   -2.70e-06      1.90e-04 *    1.90e-04 o    8.19e-04 *    8.19e-04 o  ~
	----------------------------------------------------------------------------------------------

Next Geometry in Ang
	Fragment 1 (Ang)

	    S  -0.0000000000   0.9881799674   0.0000000000
	    S   0.0000000000  -0.9881799674   0.0000000000

    Final optimized geometry and variables:
    Molecular point group: d2h
    Full point group: D_inf_h

    Geometry (in Angstrom), charge = 1, multiplicity = 4:

    S           -0.000000000000     0.987963165331     0.000000000000
    S            0.000000000000    -0.987963165331     0.000000000000

    Psi4 stopped on: Thursday, 17 July 2025 03:50PM
    Psi4 wall time for execution: 0:00:21.25

*** Psi4 exiting successfully. Buy a developer a beer!
