                               Psi4 1.9.1 release

  ==> Input File <==

--------------------------------------------------------------------------
molecule {
1 4
Si   0.00000        0.60000        0.00000
Si   0.00000       -0.60000        0.00000
}

set {
basis              cc-pvdz
reference          uks
maxiter            500
geom_maxiter       500
DAMPING_PERCENTAGE 1
guess              SAP
}

optimize('b3lyp')
--------------------------------------------------------------------------

    Molecular point group: d2h
  Charge       = 1
  Multiplicity = 4
  Basis Set: CC-PVDZ
    Blend: CC-PVDZ
  Basis Set: (CC-PVDZ AUX)
    Blend: CC-PVDZ-JKFIT
  @DF-UKS Final Energy:  -577.31822363621757
    Total Energy =                       -577.3182236362174535
 Dipole X            :          0.0000000            0.0000000            0.0000000
 Dipole Y            :          0.0000000            0.0000000            0.0000000
 Dipole Z            :          0.0000000            0.0000000            0.0000000
 Magnitude           :                                                    0.0000000
    Molecular point group: d2h
  Basis Set: CC-PVDZ
    Blend: CC-PVDZ
  Basis Set: (CC-PVDZ AUX)
    Blend: CC-PVDZ-JKFIT
  Basis Set: CC-PVDZ
    Blend: CC-PVDZ
  Basis Set: (CC-PVDZ AUX)
    Blend: CC-PVDZ-JKFIT
  @DF-UKS Final Energy:  -577.34156540919309
    Total Energy =                       -577.3415654091930946
  Basis Set: CC-PVDZ
    Blend: CC-PVDZ
  Basis Set: (CC-PVDZ AUX)
    Blend: CC-PVDZ-JKFIT
  Basis Set: CC-PVDZ
    Blend: CC-PVDZ
  @DF-UKS Final Energy:  -577.38634270451132
    Total Energy =                       -577.3863427045112076
  @DF-UKS Final Energy:  -577.54555930689594
    Total Energy =                       -577.5455593068960525
  @DF-UKS Final Energy:  -578.13786854382147
    Total Energy =                       -578.1378685438214688
  @DF-UKS Final Energy:  -578.34086042009983
    Total Energy =                       -578.3408604200998298
  @DF-UKS Final Energy:  -578.50891923860729
    Total Energy =                       -578.5089192386072909
  @DF-UKS Final Energy:  -578.58729542809954
    Total Energy =                       -578.5872954280995373
  @DF-UKS Final Energy:  -578.59780538436701
    Total Energy =                       -578.5978053843670068
  @DF-UKS Final Energy:  -578.60213252852645
    Total Energy =                       -578.6021325285264538
  @DF-UKS Final Energy:  -578.60270026846763
    Total Energy =                       -578.6027002684676290
  @DF-UKS Final Energy:  -578.60278447671419
    Total Energy =                       -578.6027844767141914
  @DF-UKS Final Energy:  -578.60279785713806
    Total Energy =                       -578.6027978571379435
  Basis Set: (CC-PVDZ AUX)
    Blend: CC-PVDZ-JKFIT
  Basis Set: CC-PVDZ
    Blend: CC-PVDZ
  Basis Set: (CC-PVDZ AUX)
    Blend: CC-PVDZ-JKFIT
  @DF-UKS Final Energy:  -578.60280027990279
    Total Energy =                       -578.6028002799027945
  Basis Set: CC-PVDZ
    Blend: CC-PVDZ
  Basis Set: (CC-PVDZ AUX)
    Blend: CC-PVDZ-JKFIT
  Charge       = 1
  Multiplicity = 4
  Basis Set: CC-PVDZ
    Blend: CC-PVDZ
  Basis Set: (CC-PVDZ AUX)
    Blend: CC-PVDZ-JKFIT

    Orbital Energies [Eh]
    ---------------------

    Alpha Occupied:

       1Ag   -66.435080     1B2u  -66.435080     2Ag    -5.575099
       2B2u   -5.575095     1B1u   -3.934484     1B3u   -3.934484
       1B3g   -3.934432     1B1g   -3.934432     3Ag    -3.933544
       3B2u   -3.932860     4Ag    -0.792604     4B2u   -0.636183
       5Ag    -0.479616     2B3u   -0.461102     2B1u   -0.461102

    Alpha Virtual:

       2B1g   -0.318830     2B3g   -0.318830     5B2u   -0.192774
       6Ag    -0.049448     3B3u    0.010576     3B1u    0.010576
       7Ag     0.051372     1B2g    0.065752     8Ag     0.065753
       6B2u    0.072393     4B3u    0.091411     4B1u    0.091411
       3B1g    0.123584     3B3g    0.123584     1Au     0.155701
       7B2u    0.155701     8B2u    0.209395     9Ag     0.304089
       4B1g    0.324485     4B3g    0.324485     9B2u    0.583388

    Beta Occupied:

       1B2u  -66.429818     1Ag   -66.429818     2B2u   -5.569086
       2Ag    -5.569040     1B1u   -3.926320     1B3u   -3.926320
       1B3g   -3.926276     1B1g   -3.926276     3Ag    -3.924254
       3B2u   -3.923622     4Ag    -0.723455     4B2u   -0.574940

    Beta Virtual:

       5Ag    -0.375828     2B3u   -0.363793     2B1u   -0.363793
       2B1g   -0.268855     2B3g   -0.268855     5B2u   -0.150814
       6Ag    -0.012106     3B3u    0.061142     3B1u    0.061142
       7Ag     0.072882     6B2u    0.100231     8Ag     0.116723
       1B2g    0.116724     4B3u    0.119514     4B1u    0.119514
       3B1g    0.143853     3B3g    0.143853     7B2u    0.201165
       1Au     0.201166     8B2u    0.228079     9Ag     0.344618
       4B1g    0.369636     4B3g    0.369636     9B2u    0.618527

    Final Occupation by Irrep:
             Ag   B1g   B2g   B3g    Au   B1u   B2u   B3u
    DOCC [     4,    1,    0,    1,    0,    1,    4,    1 ]
    SOCC [     1,    0,    0,    0,    0,    1,    0,    1 ]
    NA   [     5,    1,    0,    1,    0,    2,    4,    2 ]
    NB   [     4,    1,    0,    1,    0,    1,    4,    1 ]

  @DF-UKS Final Energy:  -578.60280047932577

   => Energetics <=

    Nuclear Repulsion Energy =             44.8888489518376659
    One-Electron Energy =                -883.8874154719107992
    Two-Electron Energy =                 293.7830950010146580
    DFT Exchange-Correlation Energy =     -33.3873289602672827
    Empirical Dispersion Energy =           0.0000000000000000
    VV10 Nonlocal Energy =                  0.0000000000000000
    Total Energy =                       -578.6028004793257651

  UHF NO Occupations:
  HONO-2 :    2B3u 1.0000000
  HONO-1 :    5 Ag 1.0000000
  HONO-0 :    2B1u 1.0000000
  LUNO+0 :    5B2u 0.0003922
  LUNO+1 :    6 Ag 0.0000303
  LUNO+2 :    2B3g 0.0000001
  LUNO+3 :    2B1g 0.0000001

Computation Completed

Properties will be evaluated at   0.000000,   0.000000,   0.000000 [a0]

Properties computed using the SCF density matrix

 Multipole Moments:

 ------------------------------------------------------------------------------------
     Multipole            Electronic (a.u.)      Nuclear  (a.u.)        Total (a.u.)
 ------------------------------------------------------------------------------------

 L = 1.  Multiply by 2.5417464519 to convert [e a0] to [Debye]
 Dipole X            :          0.0000000            0.0000000            0.0000000
 Dipole Y            :          0.0000000            0.0000000            0.0000000
 Dipole Z            :          0.0000000            0.0000000            0.0000000
 Magnitude           :                                                    0.0000000

 ------------------------------------------------------------------------------------

*** tstop() called on Joses-MacBook-Pro-2.local at Thu Jul 17 15:39:12 2025
Module time:
	user time   =       5.55 seconds =       0.09 minutes
	system time =       1.73 seconds =       0.03 minutes
	total time  =          1 seconds =       0.02 minutes
Total time:
	user time   =     411.68 seconds =       6.86 minutes
	system time =      64.48 seconds =       1.07 minutes
	total time  =         49 seconds =       0.82 minutes

*** tstart() called on Joses-MacBook-Pro-2.local
*** at Thu Jul 17 15:39:12 2025

         ------------------------------------------------------------
                                   SCF GRAD
                          Rob Parrish, Justin Turney,
                       Andy Simmonett, and Alex Sokolov
         ------------------------------------------------------------

  ==> Geometry <==

    Molecular point group: d2h
    Full point group: D_inf_h

    Geometry (in Angstrom), charge = 1, multiplicity = 4:

       Center              X                  Y                   Z               Mass
    ------------   -----------------  -----------------  -----------------  -----------------
         SI          -0.000000000000     1.155283948165     0.000000000000    27.976926534650
         SI           0.000000000000    -1.155283948165     0.000000000000    27.976926534650

  Nuclear repulsion =   44.888848951837666

  ==> Basis Set <==

  Basis Set: CC-PVDZ
    Blend: CC-PVDZ
    Number of shells: 16
    Number of basis functions: 36
    Number of Cartesian functions: 38
    Spherical Harmonics?: true
    Max angular momentum: 2

  ==> DFJKGrad: Density-Fitted SCF Gradients <==

    Gradient:                    1
    J tasked:                  Yes
    K tasked:                  Yes
    wK tasked:                  No
    OpenMP threads:              1
    Integrals threads:           1
    Memory [MiB]:              375
    Schwarz Cutoff:          1E-12
    Fitting Condition:       1E-10

   => Auxiliary Basis Set <=

  Basis Set: (CC-PVDZ AUX)
    Blend: CC-PVDZ-JKFIT
    Number of shells: 72
    Number of basis functions: 224
    Number of Cartesian functions: 260
    Spherical Harmonics?: true
    Max angular momentum: 3

  ==> DFT Potential <==

   => LibXC <=

    Version 6.2.2
    S. Lehtola, C. Steigemann, M. J.T. Oliveira, and M. A.L. Marques.,  SoftwareX 7, 1â€“5 (2018) (10.1016/j.softx.2017.11.002)

   => Composite Functional: B3LYP <=

    B3LYP Hyb-GGA Exchange-Correlation Functional

    P. J. Stephens, F. J. Devlin, C. F. Chabalowski, and M. J. Frisch.,  J. Phys. Chem. 98, 11623 (1994) (10.1021/j100096a001)

    Deriv               =              1
    GGA                 =           TRUE
    Meta                =          FALSE

    Exchange Hybrid     =           TRUE
    MP2 Hybrid          =          FALSE

   => Exchange Functionals <=

    0.0800   Slater exchange
    0.7200         Becke 88

   => Exact (HF) Exchange <=

    0.2000               HF

   => Correlation Functionals <=

    0.1900   Vosko, Wilk & Nusair (VWN5_RPA)
    0.8100   Lee, Yang & Parr

   => LibXC Density Thresholds  <==

    XC_HYB_GGA_XC_B3LYP:  1.00E-15

   => Molecular Quadrature <=

    Radial Scheme          =       TREUTLER
    Pruning Scheme         =           NONE
    Nuclear Scheme         =       TREUTLER

    Blocking Scheme        =         OCTREE
    BS radius alpha        =              1
    Pruning alpha          =              1
    Radial Points          =             75
    Spherical Points       =            302
    Total Points           =          41324
    Total Blocks           =            380
    Max Points             =            252
    Max Functions          =             36
    Weights Tolerance      =       1.00E-15

  -Total Gradient:
     Atom            X                  Y                   Z
    ------   -----------------  -----------------  -----------------
       1        0.000000000000    -0.000023009966     0.000000000000
       2       -0.000000000000     0.000023009966     0.000000000000

*** tstop() called on Joses-MacBook-Pro-2.local at Thu Jul 17 15:39:12 2025
Module time:
	user time   =       2.68 seconds =       0.04 minutes
	system time =       0.76 seconds =       0.01 minutes
	total time  =          0 seconds =       0.00 minutes
Total time:
	user time   =     414.37 seconds =       6.91 minutes
	system time =      65.24 seconds =       1.09 minutes
	total time  =         49 seconds =       0.82 minutes

    			-----------------------------------------

    			 OPTKING 3.0: for geometry optimizations

    			     By R.A. King, Bethel University

    			        with contributions from

    			    A.V. Copan, J. Cayton, A. Heide

    			-----------------------------------------

	                            ===> Fragment 1 <==

	 Z (Atomic Numbers)          Masses                          Geom
	      14.000000            27.976927         -0.00000000  2.18317026  0.00000000
	      14.000000            27.976927          0.00000000 -2.18317026  0.00000000

	 - Coordinate -           - BOHR/RAD -       - ANG/DEG -
	 R(1,2)           =         4.366341           2.310568

	        --- Internal Coordinate Step in ANG or DEG, aJ/ANG or AJ/DEG ---
	-------------------------------------------------------------------------------
	           Coordinate      Previous         Force          Change          New
	           ----------      --------        ------          ------        ------
	               R(1,2)       2.31057        0.00019        0.00011       2.31068
	-------------------------------------------------------------------------------

	                                 ==> Convergence Check <==

	Measures of convergence in internal coordinates in au.

	Criteria marked as inactive (o), active & met (*), and active & unmet ( ).

	----------------------------------------------------------------------------------------------
	   Step    Total Energy     Delta E     Max Force     RMS Force      Max Disp      RMS Disp
	----------------------------------------------------------------------------------------------
	  Convergence Criteria     1.00e-06 *    3.00e-04 *             o    1.20e-03 *             o
	----------------------------------------------------------------------------------------------
	    15    -578.60280048   -1.99e-07 *    2.30e-05 *    2.30e-05 o    2.12e-04 *    2.12e-04 o  ~
	----------------------------------------------------------------------------------------------

Next Geometry in Ang
	Fragment 1 (Ang)

	   Si  -0.0000000000   1.1553401001   0.0000000000
	   Si   0.0000000000  -1.1553401001   0.0000000000

    Final optimized geometry and variables:
    Molecular point group: d2h
    Full point group: D_inf_h

    Geometry (in Angstrom), charge = 1, multiplicity = 4:

    SI          -0.000000000000     1.155283948165     0.000000000000
    SI           0.000000000000    -1.155283948165     0.000000000000

    Psi4 stopped on: Thursday, 17 July 2025 03:39PM
    Psi4 wall time for execution: 0:00:50.05

*** Psi4 exiting successfully. Buy a developer a beer!
