                               Psi4 1.9.1 release

  ==> Input File <==

--------------------------------------------------------------------------
molecule {
1 4
H   0.00000        0.60000        0.00000
Cl   0.00000       -0.60000        0.00000
}

set {
basis              cc-pvdz
reference          uks
maxiter            500
geom_maxiter       500
DAMPING_PERCENTAGE 1
guess              SAP
}

optimize('b3lyp')
--------------------------------------------------------------------------

    Molecular point group: c2v
  Charge       = 1
  Multiplicity = 4
  Basis Set: CC-PVDZ
    Blend: CC-PVDZ
  Basis Set: (CC-PVDZ AUX)
    Blend: CC-PVDZ-JKFIT
  @DF-UKS Final Energy:  -459.98209258406945
    Total Energy =                       -459.9820925840693917
 Dipole X            :          0.0000000            0.0000000            0.0000000
 Dipole Y            :          0.0000000            0.0000000            0.0000000
 Dipole Z            :         -1.5622052            1.1242226           -0.4379826
 Magnitude           :                                                    0.4379826
    Molecular point group: c2v
  Basis Set: CC-PVDZ
    Blend: CC-PVDZ
  Basis Set: (CC-PVDZ AUX)
    Blend: CC-PVDZ-JKFIT
  Basis Set: CC-PVDZ
    Blend: CC-PVDZ
  Basis Set: (CC-PVDZ AUX)
    Blend: CC-PVDZ-JKFIT
  @DF-UKS Final Energy:  -460.08654481264034
    Total Energy =                       -460.0865448126402271
  Basis Set: CC-PVDZ
    Blend: CC-PVDZ
  Basis Set: (CC-PVDZ AUX)
    Blend: CC-PVDZ-JKFIT
  Basis Set: CC-PVDZ
    Blend: CC-PVDZ
  @DF-UKS Final Energy:  -460.12304751267476
    Total Energy =                       -460.1230475126748161
  @DF-UKS Final Energy:  -460.14982540967708
    Total Energy =                       -460.1498254096770779
  @DF-UKS Final Energy:  -460.16467207733820
    Total Energy =                       -460.1646720773381958
  @DF-UKS Final Energy:  -460.17303345064562
    Total Energy =                       -460.1730334506456757
  @DF-UKS Final Energy:  -460.17733083338351
    Total Energy =                       -460.1773308333835644
  @DF-UKS Final Energy:  -460.17933294396965
    Total Energy =                       -460.1793329439696549
  @DF-UKS Final Energy:  -460.18023828069244
    Total Energy =                       -460.1802382806924356
  @DF-UKS Final Energy:  -460.18064131603626
    Total Energy =                       -460.1806413160362581
  @DF-UKS Final Energy:  -460.18081161169670
    Total Energy =                       -460.1808116116966971
  @DF-UKS Final Energy:  -460.18087704211700
    Total Energy =                       -460.1808770421170038
  @DF-UKS Final Energy:  -460.18089880847856
    Total Energy =                       -460.1808988084785597
  @DF-UKS Final Energy:  -460.18090336632417
    Total Energy =                       -460.1809033663241166
  Basis Set: (CC-PVDZ AUX)
    Blend: CC-PVDZ-JKFIT
  Basis Set: CC-PVDZ
    Blend: CC-PVDZ
  Basis Set: (CC-PVDZ AUX)
    Blend: CC-PVDZ-JKFIT
  @DF-UKS Final Energy:  -460.18090455644619
    Total Energy =                       -460.1809045564461940
  Basis Set: CC-PVDZ
    Blend: CC-PVDZ
  Basis Set: (CC-PVDZ AUX)
    Blend: CC-PVDZ-JKFIT
  Charge       = 1
  Multiplicity = 4
  Basis Set: CC-PVDZ
    Blend: CC-PVDZ
  Basis Set: (CC-PVDZ AUX)
    Blend: CC-PVDZ-JKFIT

    Orbital Energies [Eh]
    ---------------------

    Alpha Occupied:

       1A1  -102.079682     2A1    -9.985550     1B1    -7.754961
       1B2    -7.754961     3A1    -7.728514     4A1    -1.292607
       2B1    -0.814979     2B2    -0.814979     5A1    -0.755919
       6A1    -0.463735

    Alpha Virtual:

       3B1     0.161534     3B2     0.161534     7A1     0.164220
       8A1     0.203249     9A1     0.212905     1A2     0.212905
       4B2     0.258260     4B1     0.258260    10A1     0.270787
      11A1     0.335964    12A1     1.065935     5B1     1.066599
       5B2     1.066599

    Beta Occupied:

       1A1  -102.064459     2A1    -9.970626     1B1    -7.725832
       1B2    -7.725832     3A1    -7.719541     4A1    -1.179827
       5A1    -0.721445

    Beta Virtual:

       2B1    -0.623199     2B2    -0.623199     6A1    -0.190077
       7A1     0.202960     3B1     0.208744     3B2     0.208744
       8A1     0.244397     4B2     0.326880     4B1     0.326880
       9A1     0.328789    10A1     0.340940     1A2     0.340940
      11A1     0.509175    12A1     1.283037     5B2     1.285576
       5B1     1.285576

    Final Occupation by Irrep:
             A1    A2    B1    B2
    DOCC [     5,    0,    1,    1 ]
    SOCC [     1,    0,    1,    1 ]
    NA   [     6,    0,    2,    2 ]
    NB   [     5,    0,    1,    1 ]

  @DF-UKS Final Energy:  -460.18090498966956

   => Energetics <=

    Nuclear Repulsion Energy =              2.5277746740013303
    One-Electron Energy =                -632.7363695537483181
    Two-Electron Energy =                 192.7128688870223243
    DFT Exchange-Correlation Energy =     -22.6851789969448383
    Empirical Dispersion Energy =           0.0000000000000000
    VV10 Nonlocal Energy =                  0.0000000000000000
    Total Energy =                       -460.1809049896695569

  UHF NO Occupations:
  HONO-2 :    2 B1 1.0000000
  HONO-1 :    2 B2 1.0000000
  HONO-0 :    6 A1 1.0000000
  LUNO+0 :    7 A1 0.0009945
  LUNO+1 :    8 A1 0.0001201
  LUNO+2 :    9 A1 0.0000000
  LUNO+3 :    3 B1 0.0000000

Computation Completed

Properties will be evaluated at   0.000000,   0.000000,   0.000000 [a0]

Properties computed using the SCF density matrix

 Multipole Moments:

 ------------------------------------------------------------------------------------
     Multipole            Electronic (a.u.)      Nuclear  (a.u.)        Total (a.u.)
 ------------------------------------------------------------------------------------

 L = 1.  Multiply by 2.5417464519 to convert [e a0] to [Debye]
 Dipole X            :          0.0000000            0.0000000            0.0000000
 Dipole Y            :          0.0000000            0.0000000            0.0000000
 Dipole Z            :         -3.5023122            3.3341318           -0.1681804
 Magnitude           :                                                    0.1681804

 ------------------------------------------------------------------------------------

*** tstop() called on Joses-MacBook-Pro-2.local at Thu Jul 17 12:24:04 2025
Module time:
	user time   =       1.90 seconds =       0.03 minutes
	system time =       2.45 seconds =       0.04 minutes
	total time  =          1 seconds =       0.02 minutes
Total time:
	user time   =      54.91 seconds =       0.92 minutes
	system time =      63.59 seconds =       1.06 minutes
	total time  =         11 seconds =       0.18 minutes

*** tstart() called on Joses-MacBook-Pro-2.local
*** at Thu Jul 17 12:24:04 2025

         ------------------------------------------------------------
                                   SCF GRAD
                          Rob Parrish, Justin Turney,
                       Andy Simmonett, and Alex Sokolov
         ------------------------------------------------------------

  ==> Geometry <==

    Molecular point group: c2v
    Full point group: C_inf_v

    Geometry (in Angstrom), charge = 1, multiplicity = 4:

       Center              X                  Y                   Z               Mass
    ------------   -----------------  -----------------  -----------------  -----------------
         H            0.000000000000     0.000000000000     3.459170938176     1.007825032230
         CL           0.000000000000     0.000000000000    -0.099695551752    34.968852682000

  Nuclear repulsion =    2.527774674001330

  ==> Basis Set <==

  Basis Set: CC-PVDZ
    Blend: CC-PVDZ
    Number of shells: 11
    Number of basis functions: 23
    Number of Cartesian functions: 24
    Spherical Harmonics?: true
    Max angular momentum: 2

  ==> DFJKGrad: Density-Fitted SCF Gradients <==

    Gradient:                    1
    J tasked:                  Yes
    K tasked:                  Yes
    wK tasked:                  No
    OpenMP threads:              1
    Integrals threads:           1
    Memory [MiB]:              375
    Schwarz Cutoff:          1E-12
    Fitting Condition:       1E-10

   => Auxiliary Basis Set <=

  Basis Set: (CC-PVDZ AUX)
    Blend: CC-PVDZ-JKFIT
    Number of shells: 45
    Number of basis functions: 135
    Number of Cartesian functions: 155
    Spherical Harmonics?: true
    Max angular momentum: 3

  ==> DFT Potential <==

   => LibXC <=

    Version 6.2.2
    S. Lehtola, C. Steigemann, M. J.T. Oliveira, and M. A.L. Marques.,  SoftwareX 7, 1â€“5 (2018) (10.1016/j.softx.2017.11.002)

   => Composite Functional: B3LYP <=

    B3LYP Hyb-GGA Exchange-Correlation Functional

    P. J. Stephens, F. J. Devlin, C. F. Chabalowski, and M. J. Frisch.,  J. Phys. Chem. 98, 11623 (1994) (10.1021/j100096a001)

    Deriv               =              1
    GGA                 =           TRUE
    Meta                =          FALSE

    Exchange Hybrid     =           TRUE
    MP2 Hybrid          =          FALSE

   => Exchange Functionals <=

    0.0800   Slater exchange
    0.7200         Becke 88

   => Exact (HF) Exchange <=

    0.2000               HF

   => Correlation Functionals <=

    0.1900   Vosko, Wilk & Nusair (VWN5_RPA)
    0.8100   Lee, Yang & Parr

   => LibXC Density Thresholds  <==

    XC_HYB_GGA_XC_B3LYP:  1.00E-15

   => Molecular Quadrature <=

    Radial Scheme          =       TREUTLER
    Pruning Scheme         =           NONE
    Nuclear Scheme         =       TREUTLER

    Blocking Scheme        =         OCTREE
    BS radius alpha        =              1
    Pruning alpha          =              1
    Radial Points          =             75
    Spherical Points       =            302
    Total Points           =          42572
    Total Blocks           =            388
    Max Points             =            255
    Max Functions          =             23
    Weights Tolerance      =       1.00E-15

  -Total Gradient:
     Atom            X                  Y                   Z
    ------   -----------------  -----------------  -----------------
       1       -0.000000000000     0.000000000000    -0.000005807973
       2       -0.000000000000     0.000000000000     0.000008632265

*** tstop() called on Joses-MacBook-Pro-2.local at Thu Jul 17 12:24:04 2025
Module time:
	user time   =       0.86 seconds =       0.01 minutes
	system time =       1.08 seconds =       0.02 minutes
	total time  =          0 seconds =       0.00 minutes
Total time:
	user time   =      55.77 seconds =       0.93 minutes
	system time =      64.67 seconds =       1.08 minutes
	total time  =         11 seconds =       0.18 minutes

    			-----------------------------------------

    			 OPTKING 3.0: for geometry optimizations

    			     By R.A. King, Bethel University

    			        with contributions from

    			    A.V. Copan, J. Cayton, A. Heide

    			-----------------------------------------

	                            ===> Fragment 1 <==

	 Z (Atomic Numbers)          Masses                          Geom
	       1.000000             1.007825          0.00000000  0.00000000  6.53688569
	      17.000000            34.968853          0.00000000  0.00000000 -0.18839729

	 - Coordinate -           - BOHR/RAD -       - ANG/DEG -
	 R(1,2)           =         6.725283           3.558866

	        --- Internal Coordinate Step in ANG or DEG, aJ/ANG or AJ/DEG ---
	-------------------------------------------------------------------------------
	           Coordinate      Previous         Force          Change          New
	           ----------      --------        ------          ------        ------
	               R(1,2)       3.55887        0.00006        0.00753       3.56639
	-------------------------------------------------------------------------------

	                                 ==> Convergence Check <==

	Measures of convergence in internal coordinates in au.

	Criteria marked as inactive (o), active & met (*), and active & unmet ( ).

	----------------------------------------------------------------------------------------------
	   Step    Total Energy     Delta E     Max Force     RMS Force      Max Disp      RMS Disp
	----------------------------------------------------------------------------------------------
	  Convergence Criteria     1.00e-06 *    3.00e-04 *             o    1.20e-03 *             o
	----------------------------------------------------------------------------------------------
	    16    -460.18090499   -4.33e-07 *    7.22e-06 *    7.22e-06 o    1.42e-02      1.42e-02 o  ~
	----------------------------------------------------------------------------------------------

Next Geometry in Ang
	Fragment 1 (Ang)

	    H   0.0000000000   0.0000000000   3.4629347353
	   Cl   0.0000000000   0.0000000000  -0.1034593488

    Final optimized geometry and variables:
    Molecular point group: c2v
    Full point group: C_inf_v

    Geometry (in Angstrom), charge = 1, multiplicity = 4:

    H            0.000000000000     0.000000000000     3.459170938176
    CL           0.000000000000     0.000000000000    -0.099695551752

    Psi4 stopped on: Thursday, 17 July 2025 12:24PM
    Psi4 wall time for execution: 0:00:11.92

*** Psi4 exiting successfully. Buy a developer a beer!
