                               Psi4 1.9.1 release

  ==> Input File <==

--------------------------------------------------------------------------
molecule {
1 4
N   0.00000        0.60000        0.00000
P   0.00000       -0.60000        0.00000
}

set {
basis              cc-pvdz
reference          uks
maxiter            500
geom_maxiter       500
DAMPING_PERCENTAGE 1
guess              SAP
}

optimize('b3lyp')
--------------------------------------------------------------------------

    Molecular point group: c2v
  Charge       = 1
  Multiplicity = 4
  Basis Set: CC-PVDZ
    Blend: CC-PVDZ
  Basis Set: (CC-PVDZ AUX)
    Blend: CC-PVDZ-JKFIT
  @DF-UKS Final Energy:  -395.19166851623288
    Total Energy =                       -395.1916685162328804
 Dipole X            :          0.0000000            0.0000000            0.0000000
 Dipole Y            :          0.0000000            0.0000000            0.0000000
 Dipole Z            :         -0.5049775            0.3413456           -0.1636319
 Magnitude           :                                                    0.1636319
    Molecular point group: c2v
  Basis Set: CC-PVDZ
    Blend: CC-PVDZ
  Basis Set: (CC-PVDZ AUX)
    Blend: CC-PVDZ-JKFIT
  Basis Set: CC-PVDZ
    Blend: CC-PVDZ
  Basis Set: (CC-PVDZ AUX)
    Blend: CC-PVDZ-JKFIT
  @DF-UKS Final Energy:  -395.40495590990389
    Total Energy =                       -395.4049559099038902
  Basis Set: CC-PVDZ
    Blend: CC-PVDZ
  Basis Set: (CC-PVDZ AUX)
    Blend: CC-PVDZ-JKFIT
  Basis Set: CC-PVDZ
    Blend: CC-PVDZ
  @DF-UKS Final Energy:  -395.49128124543159
    Total Energy =                       -395.4912812454316509
  @DF-UKS Final Energy:  -395.51929590219891
    Total Energy =                       -395.5192959021989054
  @DF-UKS Final Energy:  -395.53405885409842
    Total Energy =                       -395.5340588540984186
  @DF-UKS Final Energy:  -395.53853990225787
    Total Energy =                       -395.5385399022578667
  @DF-UKS Final Energy:  -395.54057387346506
    Total Energy =                       -395.5405738734650640
  @DF-UKS Final Energy:  -395.54107315983146
    Total Energy =                       -395.5410731598315124
  @DF-UKS Final Energy:  -395.54123271859839
    Total Energy =                       -395.5412327185983941
  Basis Set: (CC-PVDZ AUX)
    Blend: CC-PVDZ-JKFIT
  Basis Set: CC-PVDZ
    Blend: CC-PVDZ
  Basis Set: (CC-PVDZ AUX)
    Blend: CC-PVDZ-JKFIT
  @DF-UKS Final Energy:  -395.54126686114171
    Total Energy =                       -395.5412668611417644
  Basis Set: CC-PVDZ
    Blend: CC-PVDZ
  Basis Set: (CC-PVDZ AUX)
    Blend: CC-PVDZ-JKFIT
  Charge       = 1
  Multiplicity = 4
  Basis Set: CC-PVDZ
    Blend: CC-PVDZ
  Basis Set: (CC-PVDZ AUX)
    Blend: CC-PVDZ-JKFIT

    Orbital Energies [Eh]
    ---------------------

    Alpha Occupied:

       1A1   -77.513726     2A1   -14.771254     3A1    -6.972722
       4A1    -5.137585     1B2    -5.135598     1B1    -5.131532
       5A1    -1.197344     6A1    -0.884868     7A1    -0.707923
       2B2    -0.706334     2B1    -0.656259     3B2    -0.529640

    Alpha Virtual:

       3B1    -0.430695     8A1    -0.271947     9A1     0.056067
       4B2     0.106635    10A1     0.124120     4B1     0.126033
       1A2     0.127317    11A1     0.131302     5B2     0.154730
       5B1     0.179135    12A1     0.324025     6B2     0.451766
       6B1     0.475590    13A1     0.534565    14A1     0.883020
       2A2     1.385303    15A1     1.385699     7B2     1.492413
       7B1     1.520454    16A1     1.935608

    Beta Occupied:

       1A1   -77.507942     2A1   -14.730499     3A1    -6.966613
       1B1    -5.131309     4A1    -5.128959     1B2    -5.117426
       5A1    -1.093744     6A1    -0.785266     2B1    -0.608126

    Beta Virtual:

       7A1    -0.529838     2B2    -0.495794     3B1    -0.401201
       3B2    -0.343581     8A1    -0.216401     9A1     0.080001
       4B1     0.125769     4B2     0.153157    10A1     0.155655
       1A2     0.172395    11A1     0.174205     5B1     0.201484
       5B2     0.237198    12A1     0.378057     6B1     0.510741
       6B2     0.537507    13A1     0.602249    14A1     0.943436
       2A2     1.481856    15A1     1.486314     7B1     1.592712
       7B2     1.621003    16A1     2.027384

    Final Occupation by Irrep:
             A1    A2    B1    B2
    DOCC [     6,    0,    2,    1 ]
    SOCC [     1,    0,    0,    2 ]
    NA   [     7,    0,    2,    3 ]
    NB   [     6,    0,    2,    1 ]

  @DF-UKS Final Energy:  -395.54127043150248

   => Energetics <=

    Nuclear Repulsion Energy =             32.4665804841085830
    One-Electron Energy =                -602.5179961152491614
    Two-Electron Energy =                 198.4451946827658730
    DFT Exchange-Correlation Energy =     -23.9350494831278056
    Empirical Dispersion Energy =           0.0000000000000000
    VV10 Nonlocal Energy =                  0.0000000000000000
    Total Energy =                       -395.5412704315024826

  UHF NO Occupations:
  HONO-2 :    7 A1 1.0000000
  HONO-1 :    2 B2 1.0000000
  HONO-0 :    3 B2 1.0000000
  LUNO+0 :    3 B1 0.0282981
  LUNO+1 :    8 A1 0.0024517
  LUNO+2 :    9 A1 0.0005761
  LUNO+3 :   10 A1 0.0000001

Computation Completed

Properties will be evaluated at   0.000000,   0.000000,   0.000000 [a0]

Properties computed using the SCF density matrix

 Multipole Moments:

 ------------------------------------------------------------------------------------
     Multipole            Electronic (a.u.)      Nuclear  (a.u.)        Total (a.u.)
 ------------------------------------------------------------------------------------

 L = 1.  Multiply by 2.5417464519 to convert [e a0] to [Debye]
 Dipole X            :          0.0000000            0.0000000            0.0000000
 Dipole Y            :          0.0000000            0.0000000            0.0000000
 Dipole Z            :         -0.9695960            0.4868183           -0.4827777
 Magnitude           :                                                    0.4827777

 ------------------------------------------------------------------------------------

*** tstop() called on Joses-MacBook-Pro-2.local at Thu Jul 17 13:56:32 2025
Module time:
	user time   =       2.23 seconds =       0.04 minutes
	system time =       5.36 seconds =       0.09 minutes
	total time  =          1 seconds =       0.02 minutes
Total time:
	user time   =      39.49 seconds =       0.66 minutes
	system time =      90.83 seconds =       1.51 minutes
	total time  =         14 seconds =       0.23 minutes

*** tstart() called on Joses-MacBook-Pro-2.local
*** at Thu Jul 17 13:56:32 2025

         ------------------------------------------------------------
                                   SCF GRAD
                          Rob Parrish, Justin Turney,
                       Andy Simmonett, and Alex Sokolov
         ------------------------------------------------------------

  ==> Geometry <==

    Molecular point group: c2v
    Full point group: C_inf_v

    Geometry (in Angstrom), charge = 1, multiplicity = 4:

       Center              X                  Y                   Z               Mass
    ------------   -----------------  -----------------  -----------------  -----------------
         N            0.000000000000     0.000000000000     1.178579651705    14.003074004430
         P            0.000000000000     0.000000000000    -0.532829627986    30.973761998420

  Nuclear repulsion =   32.466580484108583

  ==> Basis Set <==

  Basis Set: CC-PVDZ
    Blend: CC-PVDZ
    Number of shells: 14
    Number of basis functions: 32
    Number of Cartesian functions: 34
    Spherical Harmonics?: true
    Max angular momentum: 2

  ==> DFJKGrad: Density-Fitted SCF Gradients <==

    Gradient:                    1
    J tasked:                  Yes
    K tasked:                  Yes
    wK tasked:                  No
    OpenMP threads:              1
    Integrals threads:           1
    Memory [MiB]:              375
    Schwarz Cutoff:          1E-12
    Fitting Condition:       1E-10

   => Auxiliary Basis Set <=

  Basis Set: (CC-PVDZ AUX)
    Blend: CC-PVDZ-JKFIT
    Number of shells: 60
    Number of basis functions: 182
    Number of Cartesian functions: 211
    Spherical Harmonics?: true
    Max angular momentum: 3

  ==> DFT Potential <==

   => LibXC <=

    Version 6.2.2
    S. Lehtola, C. Steigemann, M. J.T. Oliveira, and M. A.L. Marques.,  SoftwareX 7, 1â€“5 (2018) (10.1016/j.softx.2017.11.002)

   => Composite Functional: B3LYP <=

    B3LYP Hyb-GGA Exchange-Correlation Functional

    P. J. Stephens, F. J. Devlin, C. F. Chabalowski, and M. J. Frisch.,  J. Phys. Chem. 98, 11623 (1994) (10.1021/j100096a001)

    Deriv               =              1
    GGA                 =           TRUE
    Meta                =          FALSE

    Exchange Hybrid     =           TRUE
    MP2 Hybrid          =          FALSE

   => Exchange Functionals <=

    0.0800   Slater exchange
    0.7200         Becke 88

   => Exact (HF) Exchange <=

    0.2000               HF

   => Correlation Functionals <=

    0.1900   Vosko, Wilk & Nusair (VWN5_RPA)
    0.8100   Lee, Yang & Parr

   => LibXC Density Thresholds  <==

    XC_HYB_GGA_XC_B3LYP:  1.00E-15

   => Molecular Quadrature <=

    Radial Scheme          =       TREUTLER
    Pruning Scheme         =           NONE
    Nuclear Scheme         =       TREUTLER

    Blocking Scheme        =         OCTREE
    BS radius alpha        =              1
    Pruning alpha          =              1
    Radial Points          =             75
    Spherical Points       =            302
    Total Points           =          42155
    Total Blocks           =            380
    Max Points             =            256
    Max Functions          =             32
    Weights Tolerance      =       1.00E-15

  -Total Gradient:
     Atom            X                  Y                   Z
    ------   -----------------  -----------------  -----------------
       1       -0.000000000000    -0.000000000000    -0.000309980815
       2        0.000000000000    -0.000000000000     0.000288251831

*** tstop() called on Joses-MacBook-Pro-2.local at Thu Jul 17 13:56:32 2025
Module time:
	user time   =       0.80 seconds =       0.01 minutes
	system time =       1.72 seconds =       0.03 minutes
	total time  =          0 seconds =       0.00 minutes
Total time:
	user time   =      40.29 seconds =       0.67 minutes
	system time =      92.56 seconds =       1.54 minutes
	total time  =         14 seconds =       0.23 minutes

    			-----------------------------------------

    			 OPTKING 3.0: for geometry optimizations

    			     By R.A. King, Bethel University

    			        with contributions from

    			    A.V. Copan, J. Cayton, A. Heide

    			-----------------------------------------

	                            ===> Fragment 1 <==

	 Z (Atomic Numbers)          Masses                          Geom
	       7.000000            14.003074          0.00000000  0.00000000  2.22719276
	      15.000000            30.973762          0.00000000  0.00000000 -1.00690207

	 - Coordinate -           - BOHR/RAD -       - ANG/DEG -
	 R(1,2)           =         3.234095           1.711409

	        --- Internal Coordinate Step in ANG or DEG, aJ/ANG or AJ/DEG ---
	-------------------------------------------------------------------------------
	           Coordinate      Previous         Force          Change          New
	           ----------      --------        ------          ------        ------
	               R(1,2)       1.71141        0.00246        0.00059       1.71200
	-------------------------------------------------------------------------------

	                                 ==> Convergence Check <==

	Measures of convergence in internal coordinates in au.

	Criteria marked as inactive (o), active & met (*), and active & unmet ( ).

	----------------------------------------------------------------------------------------------
	   Step    Total Energy     Delta E     Max Force     RMS Force      Max Disp      RMS Disp
	----------------------------------------------------------------------------------------------
	  Convergence Criteria     1.00e-06 *    3.00e-04 *             o    1.20e-03 *             o
	----------------------------------------------------------------------------------------------
	    11    -395.54127043   -3.57e-06      2.99e-04 *    2.99e-04 o    1.11e-03 *    1.11e-03 o  ~
	----------------------------------------------------------------------------------------------

Next Geometry in Ang
	Fragment 1 (Ang)

	    N   0.0000000000   0.0000000000   1.1788742532
	    P   0.0000000000   0.0000000000  -0.5331242294

    Final optimized geometry and variables:
    Molecular point group: c2v
    Full point group: C_inf_v

    Geometry (in Angstrom), charge = 1, multiplicity = 4:

    N            0.000000000000     0.000000000000     1.178579651705
    P            0.000000000000     0.000000000000    -0.532829627986

    Psi4 stopped on: Thursday, 17 July 2025 01:56PM
    Psi4 wall time for execution: 0:00:14.52

*** Psi4 exiting successfully. Buy a developer a beer!
