                               Psi4 1.9.1 release

  ==> Input File <==

--------------------------------------------------------------------------
molecule {
1 4
Ne   0.00000        0.60000        0.00000
Mg   0.00000       -0.60000        0.00000
}

set {
basis              cc-pvdz
reference          uks
maxiter            500
geom_maxiter       500
DAMPING_PERCENTAGE 1
guess              SAP
}

optimize('b3lyp')
--------------------------------------------------------------------------

    Molecular point group: c2v
  Charge       = 1
  Multiplicity = 4
  Basis Set: CC-PVDZ
    Blend: CC-PVDZ
  Basis Set: (CC-PVDZ AUX)
    Blend: CC-PVDZ-JKFIT + DEF2-UNIVERSAL-JKFIT
  @DF-UKS Final Energy:  -327.47194673022074
    Total Energy =                       -327.4719467302206795
 Dipole X            :          0.0000000            0.0000000            0.0000000
 Dipole Y            :          0.0000000            0.0000000            0.0000000
 Dipole Z            :          0.8624772           -0.0030353            0.8594419
 Magnitude           :                                                    0.8594419
    Molecular point group: c2v
  Basis Set: CC-PVDZ
    Blend: CC-PVDZ
  Basis Set: (CC-PVDZ AUX)
    Blend: CC-PVDZ-JKFIT + DEF2-UNIVERSAL-JKFIT
  Basis Set: CC-PVDZ
    Blend: CC-PVDZ
  Basis Set: (CC-PVDZ AUX)
    Blend: CC-PVDZ-JKFIT + DEF2-UNIVERSAL-JKFIT
  @DF-UKS Final Energy:  -327.67801505881090
    Total Energy =                       -327.6780150588108995
  Basis Set: CC-PVDZ
    Blend: CC-PVDZ
  Basis Set: (CC-PVDZ AUX)
    Blend: CC-PVDZ-JKFIT + DEF2-UNIVERSAL-JKFIT
  Basis Set: CC-PVDZ
    Blend: CC-PVDZ
  @DF-UKS Final Energy:  -327.81775359929298
    Total Energy =                       -327.8177535992929847
  @DF-UKS Final Energy:  -327.91452615098444
    Total Energy =                       -327.9145261509844431
  @DF-UKS Final Energy:  -327.99293494463217
    Total Energy =                       -327.9929349446321680
  @DF-UKS Final Energy:  -328.04777558659083
    Total Energy =                       -328.0477755865908307
  @DF-UKS Final Energy:  -328.08055449878111
    Total Energy =                       -328.0805544987811118
  @DF-UKS Final Energy:  -328.08485827495372
    Total Energy =                       -328.0848582749537172
  @DF-UKS Final Energy:  -328.10045480031755
    Total Energy =                       -328.1004548003175501
  @DF-UKS Final Energy:  -328.10146368616483
    Total Energy =                       -328.1014636861648910
  @DF-UKS Final Energy:  -328.10783507677769
    Total Energy =                       -328.1078350767776328
  @DF-UKS Final Energy:  -328.11021152273293
    Total Energy =                       -328.1102115227329250
  @DF-UKS Final Energy:  -328.11147872692402
    Total Energy =                       -328.1114787269239628
  @DF-UKS Final Energy:  -328.11210040705510
    Total Energy =                       -328.1121004070550953
  @DF-UKS Final Energy:  -328.11240882022406
    Total Energy =                       -328.1124088202241182
  @DF-UKS Final Energy:  -328.11256346979508
    Total Energy =                       -328.1125634697950204
  @DF-UKS Final Energy:  -328.11265042533370
    Total Energy =                       -328.1126504253336975
  Basis Set: (CC-PVDZ AUX)
    Blend: CC-PVDZ-JKFIT + DEF2-UNIVERSAL-JKFIT
  Basis Set: CC-PVDZ
    Blend: CC-PVDZ
  Basis Set: (CC-PVDZ AUX)
    Blend: CC-PVDZ-JKFIT + DEF2-UNIVERSAL-JKFIT
  @DF-UKS Final Energy:  -328.11270932143481
    Total Energy =                       -328.1127093214348065
  Basis Set: CC-PVDZ
    Blend: CC-PVDZ
  Basis Set: (CC-PVDZ AUX)
    Blend: CC-PVDZ-JKFIT + DEF2-UNIVERSAL-JKFIT
  Charge       = 1
  Multiplicity = 4
  Basis Set: CC-PVDZ
    Blend: CC-PVDZ
  Basis Set: (CC-PVDZ AUX)
    Blend: CC-PVDZ-JKFIT + DEF2-UNIVERSAL-JKFIT

    Orbital Energies [Eh]
    ---------------------

    Alpha Occupied:

       1A1   -46.995758     2A1   -31.851377     3A1    -3.274884
       4A1    -2.217158     5A1    -2.019345     1B1    -2.019162
       1B2    -2.016095     6A1    -1.389952     2B1    -1.279603
       2B2    -1.279529     7A1    -0.359394     3B2    -0.214441

    Alpha Virtual:

       8A1    -0.181489     3B1    -0.163984     9A1    -0.041521
       4B2     0.026735    10A1     0.026981     4B1     0.036486
       5B2     0.156893    11A1     0.161438     1A2     0.161905
       5B1     0.169123    12A1     0.170505    13A1     0.714889
       6B1     0.761982     6B2     0.762192    14A1     1.180694
      15A1     3.881021     7B1     3.907355     7B2     3.907402
       2A2     3.990556    16A1     3.990622

    Beta Occupied:

       1A1   -46.991537     2A1   -31.811425     3A1    -3.267847
       4A1    -2.109230     5A1    -2.015063     1B1    -2.014991
       1B2    -2.007135     2B1    -1.240088     2B2    -1.240008

    Beta Virtual:

       6A1    -1.027800     7A1    -0.252483     8A1    -0.142055
       3B1    -0.122596     3B2    -0.102259     9A1    -0.008365
      10A1     0.048278     4B1     0.058044     4B2     0.074549
      11A1     0.202703     5B1     0.203586     5B2     0.224856
       1A2     0.228654    12A1     0.234382     6B1     0.780175
       6B2     0.780395    13A1     0.827834    14A1     1.232214
       2A2     4.009386    15A1     4.009446     7B1     4.021428
       7B2     4.021476    16A1     4.045028

    Final Occupation by Irrep:
             A1    A2    B1    B2
    DOCC [     5,    0,    2,    2 ]
    SOCC [     2,    0,    0,    1 ]
    NA   [     7,    0,    2,    3 ]
    NB   [     5,    0,    2,    2 ]

  @DF-UKS Final Energy:  -328.11278874220829

   => Energetics <=

    Nuclear Repulsion Energy =             13.4919111693409715
    One-Electron Energy =                -479.2118843501525589
    Two-Electron Energy =                 160.5176869064863183
    DFT Exchange-Correlation Energy =     -22.9105024678830134
    Empirical Dispersion Energy =           0.0000000000000000
    VV10 Nonlocal Energy =                  0.0000000000000000
    Total Energy =                       -328.1127887422082949

  UHF NO Occupations:
  HONO-2 :    6 A1 1.0000000
  HONO-1 :    7 A1 1.0000000
  HONO-0 :    3 B2 1.0000000
  LUNO+0 :    8 A1 0.0002596
  LUNO+1 :    4 B2 0.0000417
  LUNO+2 :    3 B1 0.0000417
  LUNO+3 :    9 A1 0.0000009

Computation Completed

Properties will be evaluated at   0.000000,   0.000000,   0.000000 [a0]

Properties computed using the SCF density matrix

 Multipole Moments:

 ------------------------------------------------------------------------------------
     Multipole            Electronic (a.u.)      Nuclear  (a.u.)        Total (a.u.)
 ------------------------------------------------------------------------------------

 L = 1.  Multiply by 2.5417464519 to convert [e a0] to [Debye]
 Dipole X            :          0.0000000            0.0000000            0.0000000
 Dipole Y            :          0.0000000            0.0000000            0.0000000
 Dipole Z            :          4.2643690           -0.0119052            4.2524639
 Magnitude           :                                                    4.2524639

 ------------------------------------------------------------------------------------

*** tstop() called on Joses-MacBook-Pro-2.local at Thu Jul 17 14:38:46 2025
Module time:
	user time   =       2.87 seconds =       0.05 minutes
	system time =       3.14 seconds =       0.05 minutes
	total time  =          1 seconds =       0.02 minutes
Total time:
	user time   =     107.18 seconds =       1.79 minutes
	system time =      83.92 seconds =       1.40 minutes
	total time  =         21 seconds =       0.35 minutes

*** tstart() called on Joses-MacBook-Pro-2.local
*** at Thu Jul 17 14:38:46 2025

         ------------------------------------------------------------
                                   SCF GRAD
                          Rob Parrish, Justin Turney,
                       Andy Simmonett, and Alex Sokolov
         ------------------------------------------------------------

  ==> Geometry <==

    Molecular point group: c2v
    Full point group: C_inf_v

    Geometry (in Angstrom), charge = 1, multiplicity = 4:

       Center              X                  Y                   Z               Mass
    ------------   -----------------  -----------------  -----------------  -----------------
         NE           0.000000000000     0.000000000000     2.566959550473    19.992440176200
         MG           0.000000000000     0.000000000000    -2.139657954148    23.985041697000

  Nuclear repulsion =   13.491911169340971

  ==> Basis Set <==

  Basis Set: CC-PVDZ
    Blend: CC-PVDZ
    Number of shells: 14
    Number of basis functions: 32
    Number of Cartesian functions: 34
    Spherical Harmonics?: true
    Max angular momentum: 2

  ==> DFJKGrad: Density-Fitted SCF Gradients <==

    Gradient:                    1
    J tasked:                  Yes
    K tasked:                  Yes
    wK tasked:                  No
    OpenMP threads:              1
    Integrals threads:           1
    Memory [MiB]:              375
    Schwarz Cutoff:          1E-12
    Fitting Condition:       1E-10

   => Auxiliary Basis Set <=

  Basis Set: (CC-PVDZ AUX)
    Blend: CC-PVDZ-JKFIT + DEF2-UNIVERSAL-JKFIT
    Number of shells: 58
    Number of basis functions: 182
    Number of Cartesian functions: 218
    Spherical Harmonics?: true
    Max angular momentum: 4

  ==> DFT Potential <==

   => LibXC <=

    Version 6.2.2
    S. Lehtola, C. Steigemann, M. J.T. Oliveira, and M. A.L. Marques.,  SoftwareX 7, 1â€“5 (2018) (10.1016/j.softx.2017.11.002)

   => Composite Functional: B3LYP <=

    B3LYP Hyb-GGA Exchange-Correlation Functional

    P. J. Stephens, F. J. Devlin, C. F. Chabalowski, and M. J. Frisch.,  J. Phys. Chem. 98, 11623 (1994) (10.1021/j100096a001)

    Deriv               =              1
    GGA                 =           TRUE
    Meta                =          FALSE

    Exchange Hybrid     =           TRUE
    MP2 Hybrid          =          FALSE

   => Exchange Functionals <=

    0.0800   Slater exchange
    0.7200         Becke 88

   => Exact (HF) Exchange <=

    0.2000               HF

   => Correlation Functionals <=

    0.1900   Vosko, Wilk & Nusair (VWN5_RPA)
    0.8100   Lee, Yang & Parr

   => LibXC Density Thresholds  <==

    XC_HYB_GGA_XC_B3LYP:  1.00E-15

   => Molecular Quadrature <=

    Radial Scheme          =       TREUTLER
    Pruning Scheme         =           NONE
    Nuclear Scheme         =       TREUTLER

    Blocking Scheme        =         OCTREE
    BS radius alpha        =              1
    Pruning alpha          =              1
    Radial Points          =             75
    Spherical Points       =            302
    Total Points           =          43600
    Total Blocks           =            436
    Max Points             =            253
    Max Functions          =             32
    Weights Tolerance      =       1.00E-15

  -Total Gradient:
     Atom            X                  Y                   Z
    ------   -----------------  -----------------  -----------------
       1        0.000000000000     0.000000000000    -0.000211948393
       2        0.000000000000    -0.000000000000     0.000137417346

*** tstop() called on Joses-MacBook-Pro-2.local at Thu Jul 17 14:38:46 2025
Module time:
	user time   =       1.08 seconds =       0.02 minutes
	system time =       1.70 seconds =       0.03 minutes
	total time  =          0 seconds =       0.00 minutes
Total time:
	user time   =     108.26 seconds =       1.80 minutes
	system time =      85.63 seconds =       1.43 minutes
	total time  =         21 seconds =       0.35 minutes

    			-----------------------------------------

    			 OPTKING 3.0: for geometry optimizations

    			     By R.A. King, Bethel University

    			        with contributions from

    			    A.V. Copan, J. Cayton, A. Heide

    			-----------------------------------------

	                            ===> Fragment 1 <==

	 Z (Atomic Numbers)          Masses                          Geom
	      10.000000            19.992440          0.00000000  0.00000000  4.85085053
	      12.000000            23.985042          0.00000000  0.00000000 -4.04336754

	 - Coordinate -           - BOHR/RAD -       - ANG/DEG -
	 R(1,2)           =         8.894218           4.706618

	        --- Internal Coordinate Step in ANG or DEG, aJ/ANG or AJ/DEG ---
	-------------------------------------------------------------------------------
	           Coordinate      Previous         Force          Change          New
	           ----------      --------        ------          ------        ------
	               R(1,2)       4.70662        0.00144        0.00056       4.70718
	-------------------------------------------------------------------------------

	                                 ==> Convergence Check <==

	Measures of convergence in internal coordinates in au.

	Criteria marked as inactive (o), active & met (*), and active & unmet ( ).

	----------------------------------------------------------------------------------------------
	   Step    Total Energy     Delta E     Max Force     RMS Force      Max Disp      RMS Disp
	----------------------------------------------------------------------------------------------
	  Convergence Criteria     1.00e-06 *    3.00e-04 *             o    1.20e-03 *             o
	----------------------------------------------------------------------------------------------
	    19    -328.11278874   -7.94e-05      1.75e-04 *    1.75e-04 o    1.06e-03 *    1.06e-03 o  ~
	----------------------------------------------------------------------------------------------

Next Geometry in Ang
	Fragment 1 (Ang)

	   Ne   0.0000000000   0.0000000000   2.5672407536
	   Mg   0.0000000000   0.0000000000  -2.1399391573

    Final optimized geometry and variables:
    Molecular point group: c2v
    Full point group: C_inf_v

    Geometry (in Angstrom), charge = 1, multiplicity = 4:

    NE           0.000000000000     0.000000000000     2.566959550473
    MG           0.000000000000     0.000000000000    -2.139657954148

    Psi4 stopped on: Thursday, 17 July 2025 02:38PM
    Psi4 wall time for execution: 0:00:21.84

*** Psi4 exiting successfully. Buy a developer a beer!
