                               Psi4 1.9.1 release

  ==> Input File <==

--------------------------------------------------------------------------
molecule {
1 4
F   0.00000        0.60000        0.00000
Al   0.00000       -0.60000        0.00000
}

set {
basis              cc-pvdz
reference          uks
maxiter            500
geom_maxiter       500
DAMPING_PERCENTAGE 1
guess              SAP
}

optimize('b3lyp')
--------------------------------------------------------------------------

    Molecular point group: c2v
  Charge       = 1
  Multiplicity = 4
  Basis Set: CC-PVDZ
    Blend: CC-PVDZ
  Basis Set: (CC-PVDZ AUX)
    Blend: CC-PVDZ-JKFIT
  @DF-UKS Final Energy:  -341.23173183956840
    Total Energy =                       -341.2317318395684538
 Dipole X            :          0.0000000            0.0000000            0.0000000
 Dipole Y            :          0.0000000            0.0000000            0.0000000
 Dipole Z            :          0.5020341           -0.2044455            0.2975886
 Magnitude           :                                                    0.2975886
    Molecular point group: c2v
  Basis Set: CC-PVDZ
    Blend: CC-PVDZ
  Basis Set: (CC-PVDZ AUX)
    Blend: CC-PVDZ-JKFIT
  Basis Set: CC-PVDZ
    Blend: CC-PVDZ
  Basis Set: (CC-PVDZ AUX)
    Blend: CC-PVDZ-JKFIT
  @DF-UKS Final Energy:  -341.43488474294895
    Total Energy =                       -341.4348847429489524
  Basis Set: CC-PVDZ
    Blend: CC-PVDZ
  Basis Set: (CC-PVDZ AUX)
    Blend: CC-PVDZ-JKFIT
  Basis Set: CC-PVDZ
    Blend: CC-PVDZ
  @DF-UKS Final Energy:  -341.55462554100478
    Total Energy =                       -341.5546255410047252
  @DF-UKS Final Energy:  -341.62497964898938
    Total Energy =                       -341.6249796489894379
  @DF-UKS Final Energy:  -341.66595919045255
    Total Energy =                       -341.6659591904526110
  @DF-UKS Final Energy:  -341.68892945551670
    Total Energy =                       -341.6889294555166998
  @DF-UKS Final Energy:  -341.70165420412332
    Total Energy =                       -341.7016542041233151
  @DF-UKS Final Energy:  -341.70837394876128
    Total Energy =                       -341.7083739487612206
  @DF-UKS Final Energy:  -341.71174384392612
    Total Energy =                       -341.7117438439261150
  @DF-UKS Final Energy:  -341.71336108244458
    Total Energy =                       -341.7133610824445782
  @DF-UKS Final Energy:  -341.71409955794769
    Total Energy =                       -341.7140995579476908
  @DF-UKS Final Energy:  -341.71442394305086
    Total Energy =                       -341.7144239430508605
  @DF-UKS Final Energy:  -341.71455253080865
    Total Energy =                       -341.7145525308087031
  @DF-UKS Final Energy:  -341.71458884679419
    Total Energy =                       -341.7145888467941859
  @DF-UKS Final Energy:  -341.71460686858677
    Total Energy =                       -341.7146068685867704
  @DF-UKS Final Energy:  -341.71461197839091
    Total Energy =                       -341.7146119783909626
  Basis Set: (CC-PVDZ AUX)
    Blend: CC-PVDZ-JKFIT
  Basis Set: CC-PVDZ
    Blend: CC-PVDZ
  Basis Set: (CC-PVDZ AUX)
    Blend: CC-PVDZ-JKFIT
  @DF-UKS Final Energy:  -341.71461411622624
    Total Energy =                       -341.7146141162262438
  Basis Set: CC-PVDZ
    Blend: CC-PVDZ
  Basis Set: (CC-PVDZ AUX)
    Blend: CC-PVDZ-JKFIT
  Charge       = 1
  Multiplicity = 4
  Basis Set: CC-PVDZ
    Blend: CC-PVDZ
  Basis Set: (CC-PVDZ AUX)
    Blend: CC-PVDZ-JKFIT

    Orbital Energies [Eh]
    ---------------------

    Alpha Occupied:

       1A1   -56.452243     2A1   -24.959673     3A1    -4.523058
       4A1    -3.077197     1B1    -3.077125     1B2    -3.072465
       5A1    -1.388439     6A1    -0.719728     7A1    -0.630087
       2B1    -0.624916     2B2    -0.624686     3B2    -0.411578

    Alpha Virtual:

       3B1    -0.344079     8A1    -0.342302     9A1    -0.058892
       4B2    -0.022493     1A2    -0.021768    10A1    -0.018092
       5B2    -0.016921    11A1    -0.010711     4B1    -0.008809
       5B1    -0.006666    12A1     0.005576    13A1     0.916278
       6B1     0.926496     6B2     0.927156    14A1     1.340700
      15A1     3.262275     7B1     3.283515     7B2     3.283724
       2A2     3.354868    16A1     3.355156

    Beta Occupied:

       1A1   -56.444089     2A1   -24.929222     3A1    -4.510679
       4A1    -3.069629     1B1    -3.069572     1B2    -3.055109
       5A1    -1.298281     2B1    -0.593723     2B2    -0.593309

    Beta Virtual:

       6A1    -0.491659     7A1    -0.428784     3B1    -0.287982
       8A1    -0.279636     3B2    -0.254895     9A1    -0.028357
       4B1     0.010449    10A1     0.018324     4B2     0.029512
       5B1     0.041249    11A1     0.041369     1A2     0.066894
       5B2     0.068642    12A1     0.075023     6B1     0.944132
       6B2     0.944957    13A1     1.023956    14A1     1.387547
       2A2     3.370104    15A1     3.370368     7B1     3.377818
       7B2     3.378088    16A1     3.397484

    Final Occupation by Irrep:
             A1    A2    B1    B2
    DOCC [     5,    0,    2,    2 ]
    SOCC [     2,    0,    0,    1 ]
    NA   [     7,    0,    2,    3 ]
    NB   [     5,    0,    2,    2 ]

  @DF-UKS Final Energy:  -341.71461461798083

   => Energetics <=

    Nuclear Repulsion Energy =             19.0180881103848947
    One-Electron Energy =                -507.7682452258004560
    Two-Electron Energy =                 170.2190791417588400
    DFT Exchange-Correlation Energy =     -23.1835366443241213
    Empirical Dispersion Energy =           0.0000000000000000
    VV10 Nonlocal Energy =                  0.0000000000000000
    Total Energy =                       -341.7146146179808284

  UHF NO Occupations:
  HONO-2 :    6 A1 1.0000000
  HONO-1 :    3 B2 1.0000000
  HONO-0 :    7 A1 1.0000000
  LUNO+0 :    8 A1 0.0003085
  LUNO+1 :    4 B2 0.0000604
  LUNO+2 :    3 B1 0.0000594
  LUNO+3 :    9 A1 0.0000011

Computation Completed

Properties will be evaluated at   0.000000,   0.000000,   0.000000 [a0]

Properties computed using the SCF density matrix

 Multipole Moments:

 ------------------------------------------------------------------------------------
     Multipole            Electronic (a.u.)      Nuclear  (a.u.)        Total (a.u.)
 ------------------------------------------------------------------------------------

 L = 1.  Multiply by 2.5417464519 to convert [e a0] to [Debye]
 Dipole X            :          0.0000000            0.0000000            0.0000000
 Dipole Y            :          0.0000000            0.0000000            0.0000000
 Dipole Z            :         -1.8911827           -0.5546467           -2.4458294
 Magnitude           :                                                    2.4458294

 ------------------------------------------------------------------------------------

*** tstop() called on Joses-MacBook-Pro-2.local at Thu Jul 17 14:27:36 2025
Module time:
	user time   =       3.05 seconds =       0.05 minutes
	system time =       2.65 seconds =       0.04 minutes
	total time  =          1 seconds =       0.02 minutes
Total time:
	user time   =      83.11 seconds =       1.39 minutes
	system time =      85.28 seconds =       1.42 minutes
	total time  =         17 seconds =       0.28 minutes

*** tstart() called on Joses-MacBook-Pro-2.local
*** at Thu Jul 17 14:27:36 2025

         ------------------------------------------------------------
                                   SCF GRAD
                          Rob Parrish, Justin Turney,
                       Andy Simmonett, and Alex Sokolov
         ------------------------------------------------------------

  ==> Geometry <==

    Molecular point group: c2v
    Full point group: C_inf_v

    Geometry (in Angstrom), charge = 1, multiplicity = 4:

       Center              X                  Y                   Z               Mass
    ------------   -----------------  -----------------  -----------------  -----------------
         F            0.000000000000     0.000000000000     1.910374152124    18.998403162730
         AL           0.000000000000     0.000000000000    -1.345144135994    26.981538530000

  Nuclear repulsion =   19.018088110384895

  ==> Basis Set <==

  Basis Set: CC-PVDZ
    Blend: CC-PVDZ
    Number of shells: 14
    Number of basis functions: 32
    Number of Cartesian functions: 34
    Spherical Harmonics?: true
    Max angular momentum: 2

  ==> DFJKGrad: Density-Fitted SCF Gradients <==

    Gradient:                    1
    J tasked:                  Yes
    K tasked:                  Yes
    wK tasked:                  No
    OpenMP threads:              1
    Integrals threads:           1
    Memory [MiB]:              375
    Schwarz Cutoff:          1E-12
    Fitting Condition:       1E-10

   => Auxiliary Basis Set <=

  Basis Set: (CC-PVDZ AUX)
    Blend: CC-PVDZ-JKFIT
    Number of shells: 60
    Number of basis functions: 182
    Number of Cartesian functions: 211
    Spherical Harmonics?: true
    Max angular momentum: 3

  ==> DFT Potential <==

   => LibXC <=

    Version 6.2.2
    S. Lehtola, C. Steigemann, M. J.T. Oliveira, and M. A.L. Marques.,  SoftwareX 7, 1â€“5 (2018) (10.1016/j.softx.2017.11.002)

   => Composite Functional: B3LYP <=

    B3LYP Hyb-GGA Exchange-Correlation Functional

    P. J. Stephens, F. J. Devlin, C. F. Chabalowski, and M. J. Frisch.,  J. Phys. Chem. 98, 11623 (1994) (10.1021/j100096a001)

    Deriv               =              1
    GGA                 =           TRUE
    Meta                =          FALSE

    Exchange Hybrid     =           TRUE
    MP2 Hybrid          =          FALSE

   => Exchange Functionals <=

    0.0800   Slater exchange
    0.7200         Becke 88

   => Exact (HF) Exchange <=

    0.2000               HF

   => Correlation Functionals <=

    0.1900   Vosko, Wilk & Nusair (VWN5_RPA)
    0.8100   Lee, Yang & Parr

   => LibXC Density Thresholds  <==

    XC_HYB_GGA_XC_B3LYP:  1.00E-15

   => Molecular Quadrature <=

    Radial Scheme          =       TREUTLER
    Pruning Scheme         =           NONE
    Nuclear Scheme         =       TREUTLER

    Blocking Scheme        =         OCTREE
    BS radius alpha        =              1
    Pruning alpha          =              1
    Radial Points          =             75
    Spherical Points       =            302
    Total Points           =          43544
    Total Blocks           =            399
    Max Points             =            255
    Max Functions          =             32
    Weights Tolerance      =       1.00E-15

  -Total Gradient:
     Atom            X                  Y                   Z
    ------   -----------------  -----------------  -----------------
       1        0.000000000000     0.000000000000    -0.000009494527
       2        0.000000000000     0.000000000000     0.000012649583

*** tstop() called on Joses-MacBook-Pro-2.local at Thu Jul 17 14:27:36 2025
Module time:
	user time   =       0.75 seconds =       0.01 minutes
	system time =       1.60 seconds =       0.03 minutes
	total time  =          0 seconds =       0.00 minutes
Total time:
	user time   =      83.87 seconds =       1.40 minutes
	system time =      86.88 seconds =       1.45 minutes
	total time  =         17 seconds =       0.28 minutes

    			-----------------------------------------

    			 OPTKING 3.0: for geometry optimizations

    			     By R.A. King, Bethel University

    			        with contributions from

    			    A.V. Copan, J. Cayton, A. Heide

    			-----------------------------------------

	                            ===> Fragment 1 <==

	 Z (Atomic Numbers)          Masses                          Geom
	       9.000000            18.998403          0.00000000  0.00000000  3.61008394
	      13.000000            26.981539          0.00000000  0.00000000 -2.54195402

	 - Coordinate -           - BOHR/RAD -       - ANG/DEG -
	 R(1,2)           =         6.152038           3.255518

	        --- Internal Coordinate Step in ANG or DEG, aJ/ANG or AJ/DEG ---
	-------------------------------------------------------------------------------
	           Coordinate      Previous         Force          Change          New
	           ----------      --------        ------          ------        ------
	               R(1,2)       3.25552        0.00009        0.00734       3.26286
	-------------------------------------------------------------------------------

	                                 ==> Convergence Check <==

	Measures of convergence in internal coordinates in au.

	Criteria marked as inactive (o), active & met (*), and active & unmet ( ).

	----------------------------------------------------------------------------------------------
	   Step    Total Energy     Delta E     Max Force     RMS Force      Max Disp      RMS Disp
	----------------------------------------------------------------------------------------------
	  Convergence Criteria     1.00e-06 *    3.00e-04 *             o    1.20e-03 *             o
	----------------------------------------------------------------------------------------------
	    18    -341.71461462   -5.02e-07 *    1.11e-05 *    1.11e-05 o    1.39e-02      1.39e-02 o  ~
	----------------------------------------------------------------------------------------------

Next Geometry in Ang
	Fragment 1 (Ang)

	    F   0.0000000000   0.0000000000   1.9140438207
	   Al   0.0000000000   0.0000000000  -1.3488138046

    Final optimized geometry and variables:
    Molecular point group: c2v
    Full point group: C_inf_v

    Geometry (in Angstrom), charge = 1, multiplicity = 4:

    F            0.000000000000     0.000000000000     1.910374152124
    AL           0.000000000000     0.000000000000    -1.345144135994

    Psi4 stopped on: Thursday, 17 July 2025 02:27PM
    Psi4 wall time for execution: 0:00:17.49

*** Psi4 exiting successfully. Buy a developer a beer!
