                               Psi4 1.9.1 release

  ==> Input File <==

--------------------------------------------------------------------------
molecule {
1 4
Na   0.00000        0.60000        0.00000
Cl   0.00000       -0.60000        0.00000
}

set {
basis              cc-pvdz
reference          uks
maxiter            500
geom_maxiter       500
DAMPING_PERCENTAGE 1
guess              SAP
}

optimize('b3lyp')
--------------------------------------------------------------------------

    Molecular point group: c2v
  Charge       = 1
  Multiplicity = 4
  Basis Set: CC-PVDZ
    Blend: CC-PVDZ
  Basis Set: (CC-PVDZ AUX)
    Blend: CC-PVDZ-JKFIT + DEF2-UNIVERSAL-JKFIT
  @DF-UKS Final Energy:  -620.84801322983992
    Total Energy =                       -620.8480132298399212
 Dipole X            :          0.0000000            0.0000000            0.0000000
 Dipole Y            :          0.0000000            0.0000000            0.0000000
 Dipole Z            :         -0.3763192           -0.2413546           -0.6176738
 Magnitude           :                                                    0.6176738
    Molecular point group: c2v
  Basis Set: CC-PVDZ
    Blend: CC-PVDZ
  Basis Set: (CC-PVDZ AUX)
    Blend: CC-PVDZ-JKFIT + DEF2-UNIVERSAL-JKFIT
  Basis Set: CC-PVDZ
    Blend: CC-PVDZ
  Basis Set: (CC-PVDZ AUX)
    Blend: CC-PVDZ-JKFIT + DEF2-UNIVERSAL-JKFIT
  @DF-UKS Final Energy:  -620.86517657164927
    Total Energy =                       -620.8651765716492719
  Basis Set: CC-PVDZ
    Blend: CC-PVDZ
  Basis Set: (CC-PVDZ AUX)
    Blend: CC-PVDZ-JKFIT + DEF2-UNIVERSAL-JKFIT
  Basis Set: CC-PVDZ
    Blend: CC-PVDZ
  @DF-UKS Final Energy:  -620.89811657189045
    Total Energy =                       -620.8981165718904549
  @DF-UKS Final Energy:  -621.01559795569096
    Total Energy =                       -621.0155979556909642
  @DF-UKS Final Energy:  -621.47954223536158
    Total Energy =                       -621.4795422353615777
  @DF-UKS Final Energy:  -621.65968582090954
    Total Energy =                       -621.6596858209096581
  @DF-UKS Final Energy:  -621.77350973924490
    Total Energy =                       -621.7735097392450143
  @DF-UKS Final Energy:  -621.84202993886379
    Total Energy =                       -621.8420299388639023
  @DF-UKS Final Energy:  -621.88643329291983
    Total Energy =                       -621.8864332929199463
  @DF-UKS Final Energy:  -621.91986692600267
    Total Energy =                       -621.9198669260026691
  @DF-UKS Final Energy:  -621.94666937622355
    Total Energy =                       -621.9466693762235536
  @DF-UKS Final Energy:  -621.94871177493360
    Total Energy =                       -621.9487117749335994
  @DF-UKS Final Energy:  -621.96765385431468
    Total Energy =                       -621.9676538543146762
  @DF-UKS Final Energy:  -621.96841437666865
    Total Energy =                       -621.9684143766686475
  @DF-UKS Final Energy:  -621.97743851465691
    Total Energy =                       -621.9774385146569102
  @DF-UKS Final Energy:  -621.97765104550717
    Total Energy =                       -621.9776510455072867
  @DF-UKS Final Energy:  -621.98119946684835
    Total Energy =                       -621.9811994668483521
  @DF-UKS Final Energy:  -621.98124015769770
    Total Energy =                       -621.9812401576976981
  @DF-UKS Final Energy:  -621.98223819506006
    Total Energy =                       -621.9822381950600629
  @DF-UKS Final Energy:  -621.98236609063702
    Total Energy =                       -621.9823660906371288
  Basis Set: (CC-PVDZ AUX)
    Blend: CC-PVDZ-JKFIT + DEF2-UNIVERSAL-JKFIT
  Basis Set: CC-PVDZ
    Blend: CC-PVDZ
  Basis Set: (CC-PVDZ AUX)
    Blend: CC-PVDZ-JKFIT + DEF2-UNIVERSAL-JKFIT
  @DF-UKS Final Energy:  -621.98237648038207
    Total Energy =                       -621.9823764803819586
  Basis Set: CC-PVDZ
    Blend: CC-PVDZ
  Basis Set: (CC-PVDZ AUX)
    Blend: CC-PVDZ-JKFIT + DEF2-UNIVERSAL-JKFIT
  Charge       = 1
  Multiplicity = 4
  Basis Set: CC-PVDZ
    Blend: CC-PVDZ
  Basis Set: (CC-PVDZ AUX)
    Blend: CC-PVDZ-JKFIT + DEF2-UNIVERSAL-JKFIT

    Orbital Energies [Eh]
    ---------------------

    Alpha Occupied:

       1A1  -102.046638     2A1   -38.614984     3A1    -9.952575
       1B1    -7.721903     4A1    -7.721855     1B2    -7.695572
       5A1    -2.359639     2B1    -1.290535     2B2    -1.290526
       6A1    -1.290431     7A1    -1.260701     3B1    -0.783766
       8A1    -0.782766     3B2    -0.724754     9A1    -0.264218

    Alpha Virtual:

      10A1    -0.145469     4B1    -0.131591     4B2    -0.130477
      11A1    -0.082949     5B1    -0.027055    12A1    -0.026414
       5B2    -0.026265    13A1     0.023223     6B1     0.029823
       6B2     0.031502     1A2     0.047147    14A1     0.047149
       7B1     0.203596    15A1     0.218663     7B2     0.233353
       8B1     0.248412    16A1     0.258049     2A2     0.289615
       8B2     0.293097    17A1     0.306746    18A1     0.368786

    Beta Occupied:

       1A1  -102.031254     2A1   -38.613618     3A1    -9.937446
       1B1    -7.692707     4A1    -7.692429     1B2    -7.686496
       5A1    -2.356964     2B1    -1.288859     2B2    -1.288851
       6A1    -1.288288     7A1    -1.147558     3B2    -0.690141

    Beta Virtual:

       3B1    -0.592361     8A1    -0.591130     9A1    -0.193640
      10A1    -0.129575     4B1    -0.107668     4B2    -0.107349
      11A1    -0.055403    12A1    -0.018376     5B1    -0.014768
       5B2    -0.014392    13A1     0.046761     6B2     0.056319
       6B1     0.056346    14A1     0.066994     1A2     0.066998
       7B2     0.246081     7B1     0.250045    15A1     0.268889
       2A2     0.358366     8B2     0.361452    16A1     0.363360
      17A1     0.371666     8B1     0.375403    18A1     0.416267

    Final Occupation by Irrep:
             A1    A2    B1    B2
    DOCC [     7,    0,    2,    3 ]
    SOCC [     2,    0,    1,    0 ]
    NA   [     9,    0,    3,    3 ]
    NB   [     7,    0,    2,    3 ]

  @DF-UKS Final Energy:  -621.98237658735854

   => Energetics <=

    Nuclear Repulsion Energy =             23.6805491119746456
    One-Electron Energy =                -901.5401118757702079
    Two-Electron Energy =                 289.9593239372717335
    DFT Exchange-Correlation Energy =     -34.0821377608345628
    Empirical Dispersion Energy =           0.0000000000000000
    VV10 Nonlocal Energy =                  0.0000000000000000
    Total Energy =                       -621.9823765873584307

  UHF NO Occupations:
  HONO-2 :    8 A1 1.0000000
  HONO-1 :    3 B1 1.0000000
  HONO-0 :    9 A1 1.0000000
  LUNO+0 :   10 A1 0.0010069
  LUNO+1 :    4 B2 0.0001186
  LUNO+2 :   11 A1 0.0000013
  LUNO+3 :    4 B1 0.0000007

Computation Completed

Properties will be evaluated at   0.000000,   0.000000,   0.000000 [a0]

Properties computed using the SCF density matrix

 Multipole Moments:

 ------------------------------------------------------------------------------------
     Multipole            Electronic (a.u.)      Nuclear  (a.u.)        Total (a.u.)
 ------------------------------------------------------------------------------------

 L = 1.  Multiply by 2.5417464519 to convert [e a0] to [Debye]
 Dipole X            :          0.0000000            0.0000000            0.0000000
 Dipole Y            :          0.0000000            0.0000000            0.0000000
 Dipole Z            :         -0.4182637           -0.8404760           -1.2587397
 Magnitude           :                                                    1.2587397

 ------------------------------------------------------------------------------------

*** tstop() called on Joses-MacBook-Pro-2.local at Thu Jul 17 15:00:51 2025
Module time:
	user time   =       5.71 seconds =       0.10 minutes
	system time =       1.96 seconds =       0.03 minutes
	total time  =          1 seconds =       0.02 minutes
Total time:
	user time   =     252.07 seconds =       4.20 minutes
	system time =      73.18 seconds =       1.22 minutes
	total time  =         31 seconds =       0.52 minutes

*** tstart() called on Joses-MacBook-Pro-2.local
*** at Thu Jul 17 15:00:51 2025

         ------------------------------------------------------------
                                   SCF GRAD
                          Rob Parrish, Justin Turney,
                       Andy Simmonett, and Alex Sokolov
         ------------------------------------------------------------

  ==> Geometry <==

    Molecular point group: c2v
    Full point group: C_inf_v

    Geometry (in Angstrom), charge = 1, multiplicity = 4:

       Center              X                  Y                   Z               Mass
    ------------   -----------------  -----------------  -----------------  -----------------
         NA           0.000000000000     0.000000000000     2.521240663663    22.989769282000
         CL           0.000000000000     0.000000000000    -1.657553414438    34.968852682000

  Nuclear repulsion =   23.680549111974646

  ==> Basis Set <==

  Basis Set: CC-PVDZ
    Blend: CC-PVDZ
    Number of shells: 16
    Number of basis functions: 36
    Number of Cartesian functions: 38
    Spherical Harmonics?: true
    Max angular momentum: 2

  ==> DFJKGrad: Density-Fitted SCF Gradients <==

    Gradient:                    1
    J tasked:                  Yes
    K tasked:                  Yes
    wK tasked:                  No
    OpenMP threads:              1
    Integrals threads:           1
    Memory [MiB]:              375
    Schwarz Cutoff:          1E-12
    Fitting Condition:       1E-10

   => Auxiliary Basis Set <=

  Basis Set: (CC-PVDZ AUX)
    Blend: CC-PVDZ-JKFIT + DEF2-UNIVERSAL-JKFIT
    Number of shells: 70
    Number of basis functions: 224
    Number of Cartesian functions: 267
    Spherical Harmonics?: true
    Max angular momentum: 4

  ==> DFT Potential <==

   => LibXC <=

    Version 6.2.2
    S. Lehtola, C. Steigemann, M. J.T. Oliveira, and M. A.L. Marques.,  SoftwareX 7, 1â€“5 (2018) (10.1016/j.softx.2017.11.002)

   => Composite Functional: B3LYP <=

    B3LYP Hyb-GGA Exchange-Correlation Functional

    P. J. Stephens, F. J. Devlin, C. F. Chabalowski, and M. J. Frisch.,  J. Phys. Chem. 98, 11623 (1994) (10.1021/j100096a001)

    Deriv               =              1
    GGA                 =           TRUE
    Meta                =          FALSE

    Exchange Hybrid     =           TRUE
    MP2 Hybrid          =          FALSE

   => Exchange Functionals <=

    0.0800   Slater exchange
    0.7200         Becke 88

   => Exact (HF) Exchange <=

    0.2000               HF

   => Correlation Functionals <=

    0.1900   Vosko, Wilk & Nusair (VWN5_RPA)
    0.8100   Lee, Yang & Parr

   => LibXC Density Thresholds  <==

    XC_HYB_GGA_XC_B3LYP:  1.00E-15

   => Molecular Quadrature <=

    Radial Scheme          =       TREUTLER
    Pruning Scheme         =           NONE
    Nuclear Scheme         =       TREUTLER

    Blocking Scheme        =         OCTREE
    BS radius alpha        =              1
    Pruning alpha          =              1
    Radial Points          =             75
    Spherical Points       =            302
    Total Points           =          43905
    Total Blocks           =            457
    Max Points             =            255
    Max Functions          =             36
    Weights Tolerance      =       1.00E-15

  -Total Gradient:
     Atom            X                  Y                   Z
    ------   -----------------  -----------------  -----------------
       1        0.000000000000    -0.000000000000    -0.000004670183
       2        0.000000000000    -0.000000000000     0.000006079140

*** tstop() called on Joses-MacBook-Pro-2.local at Thu Jul 17 15:00:51 2025
Module time:
	user time   =       2.14 seconds =       0.04 minutes
	system time =       1.39 seconds =       0.02 minutes
	total time  =          0 seconds =       0.00 minutes
Total time:
	user time   =     254.21 seconds =       4.24 minutes
	system time =      74.57 seconds =       1.24 minutes
	total time  =         31 seconds =       0.52 minutes

    			-----------------------------------------

    			 OPTKING 3.0: for geometry optimizations

    			     By R.A. King, Bethel University

    			        with contributions from

    			    A.V. Copan, J. Cayton, A. Heide

    			-----------------------------------------

	                            ===> Fragment 1 <==

	 Z (Atomic Numbers)          Masses                          Geom
	      11.000000            22.989769          0.00000000  0.00000000  4.76445435
	      17.000000            34.968853          0.00000000  0.00000000 -3.13232199

	 - Coordinate -           - BOHR/RAD -       - ANG/DEG -
	 R(1,2)           =         7.896776           4.178794

	        --- Internal Coordinate Step in ANG or DEG, aJ/ANG or AJ/DEG ---
	-------------------------------------------------------------------------------
	           Coordinate      Previous         Force          Change          New
	           ----------      --------        ------          ------        ------
	               R(1,2)       4.17879        0.00004        0.00058       4.17937
	-------------------------------------------------------------------------------

	                                 ==> Convergence Check <==

	Measures of convergence in internal coordinates in au.

	Criteria marked as inactive (o), active & met (*), and active & unmet ( ).

	----------------------------------------------------------------------------------------------
	   Step    Total Energy     Delta E     Max Force     RMS Force      Max Disp      RMS Disp
	----------------------------------------------------------------------------------------------
	  Convergence Criteria     1.00e-06 *    3.00e-04 *             o    1.20e-03 *             o
	----------------------------------------------------------------------------------------------
	    22    -621.98237659   -1.07e-07 *    5.37e-06 *    5.37e-06 o    1.09e-03 *    1.09e-03 o  ~
	----------------------------------------------------------------------------------------------

Next Geometry in Ang
	Fragment 1 (Ang)

	   Na   0.0000000000   0.0000000000   2.5215285830
	   Cl   0.0000000000   0.0000000000  -1.6578413338

    Final optimized geometry and variables:
    Molecular point group: c2v
    Full point group: C_inf_v

    Geometry (in Angstrom), charge = 1, multiplicity = 4:

    NA           0.000000000000     0.000000000000     2.521240663663
    CL           0.000000000000     0.000000000000    -1.657553414438

    Psi4 stopped on: Thursday, 17 July 2025 03:00PM
    Psi4 wall time for execution: 0:00:32.22

*** Psi4 exiting successfully. Buy a developer a beer!
