                               Psi4 1.9.1 release

  ==> Input File <==

--------------------------------------------------------------------------
molecule {
1 4
Ne   0.00000        0.60000        0.00000
Si   0.00000       -0.60000        0.00000
}

set {
basis              cc-pvdz
reference          uks
maxiter            500
geom_maxiter       500
DAMPING_PERCENTAGE 1
guess              SAP
}

optimize('b3lyp')
--------------------------------------------------------------------------

    Molecular point group: c2v
  Charge       = 1
  Multiplicity = 4
  Basis Set: CC-PVDZ
    Blend: CC-PVDZ
  Basis Set: (CC-PVDZ AUX)
    Blend: CC-PVDZ-JKFIT
  @DF-UKS Final Energy:  -417.38652756869004
    Total Energy =                       -417.3865275686900418
 Dipole X            :          0.0000000            0.0000000            0.0000000
 Dipole Y            :          0.0000000            0.0000000            0.0000000
 Dipole Z            :          0.1312520           -0.0059043            0.1253477
 Magnitude           :                                                    0.1253477
    Molecular point group: c2v
  Basis Set: CC-PVDZ
    Blend: CC-PVDZ
  Basis Set: (CC-PVDZ AUX)
    Blend: CC-PVDZ-JKFIT
  Basis Set: CC-PVDZ
    Blend: CC-PVDZ
  Basis Set: (CC-PVDZ AUX)
    Blend: CC-PVDZ-JKFIT
  @DF-UKS Final Energy:  -417.60238783880231
    Total Energy =                       -417.6023878388022581
  Basis Set: CC-PVDZ
    Blend: CC-PVDZ
  Basis Set: (CC-PVDZ AUX)
    Blend: CC-PVDZ-JKFIT
  Basis Set: CC-PVDZ
    Blend: CC-PVDZ
  @DF-UKS Final Energy:  -417.71951114061761
    Total Energy =                       -417.7195111406175556
  @DF-UKS Final Energy:  -417.77715177220921
    Total Energy =                       -417.7771517722091517
  @DF-UKS Final Energy:  -417.80422492080726
    Total Energy =                       -417.8042249208072576
  @DF-UKS Final Energy:  -417.81587562686519
    Total Energy =                       -417.8158756268651359
  @DF-UKS Final Energy:  -417.81938394301216
    Total Energy =                       -417.8193839430121557
  @DF-UKS Final Energy:  -417.82106670695970
    Total Energy =                       -417.8210667069596980
  @DF-UKS Final Energy:  -417.82153949828410
    Total Energy =                       -417.8215394982840962
  @DF-UKS Final Energy:  -417.82173111936618
    Total Energy =                       -417.8217311193661772
  @DF-UKS Final Energy:  -417.82176859434526
    Total Energy =                       -417.8217685943452580
  @DF-UKS Final Energy:  -417.82177768093970
    Total Energy =                       -417.8217776809397037
  Basis Set: (CC-PVDZ AUX)
    Blend: CC-PVDZ-JKFIT
  Basis Set: CC-PVDZ
    Blend: CC-PVDZ
  Basis Set: (CC-PVDZ AUX)
    Blend: CC-PVDZ-JKFIT
  @DF-UKS Final Energy:  -417.82177899680812
    Total Energy =                       -417.8217789968081206
  Basis Set: CC-PVDZ
    Blend: CC-PVDZ
  Basis Set: (CC-PVDZ AUX)
    Blend: CC-PVDZ-JKFIT
  Charge       = 1
  Multiplicity = 4
  Basis Set: CC-PVDZ
    Blend: CC-PVDZ
  Basis Set: (CC-PVDZ AUX)
    Blend: CC-PVDZ-JKFIT

    Orbital Energies [Eh]
    ---------------------

    Alpha Occupied:

       1A1   -66.554472     2A1   -31.339274     3A1    -5.690417
       4A1    -4.053294     1B1    -4.048345     1B2    -4.048345
       5A1    -1.795790     6A1    -0.936780     2B1    -0.892360
       2B2    -0.892360     7A1    -0.763492     3B1    -0.495522
       3B2    -0.495522

    Alpha Virtual:

       8A1    -0.384167     9A1    -0.015807    10A1     0.028663
       1A2     0.028665     4B2     0.033545     4B1     0.033545
      11A1     0.040289     5B2     0.045319     5B1     0.045319
      12A1     0.121947     6B1     1.102136     6B2     1.102136
      13A1     1.184932    14A1     1.901384     7B1     4.366810
       7B2     4.366810    15A1     4.373752     2A2     4.374048
      16A1     4.386453

    Beta Occupied:

       1A1   -66.539838     2A1   -31.336151     3A1    -5.670902
       4A1    -4.041517     1B1    -4.024216     1B2    -4.024216
       5A1    -1.789410     6A1    -0.917442     2B2    -0.888039
       2B1    -0.888039

    Beta Virtual:

       7A1    -0.568449     8A1    -0.315567     3B1    -0.311509
       3B2    -0.311509     9A1     0.024952    10A1     0.071850
       4B2     0.102031     4B1     0.102031     5B2     0.128343
       5B1     0.128343     1A2     0.166601    11A1     0.166603
      12A1     0.189723     6B1     1.106927     6B2     1.106927
      13A1     1.192097    14A1     1.911691     7B1     4.373258
       7B2     4.373258    15A1     4.376520     2A2     4.376817
      16A1     4.394271

    Final Occupation by Irrep:
             A1    A2    B1    B2
    DOCC [     6,    0,    2,    2 ]
    SOCC [     1,    0,    1,    1 ]
    NA   [     7,    0,    3,    3 ]
    NB   [     6,    0,    2,    2 ]

  @DF-UKS Final Energy:  -417.82177909702688

   => Energetics <=

    Nuclear Repulsion Energy =             35.6506250483413254
    One-Electron Energy =                -645.7854608224288313
    Two-Electron Energy =                 218.9824241377071417
    DFT Exchange-Correlation Energy =     -26.6693674606465905
    Empirical Dispersion Energy =           0.0000000000000000
    VV10 Nonlocal Energy =                  0.0000000000000000
    Total Energy =                       -417.8217790970269334

  UHF NO Occupations:
  HONO-2 :    7 A1 1.0000000
  HONO-1 :    3 B1 1.0000000
  HONO-0 :    3 B2 1.0000000
  LUNO+0 :    8 A1 0.0001057
  LUNO+1 :    4 B2 0.0000077
  LUNO+2 :    4 B1 0.0000077
  LUNO+3 :    9 A1 0.0000020

Computation Completed

Properties will be evaluated at   0.000000,   0.000000,   0.000000 [a0]

Properties computed using the SCF density matrix

 Multipole Moments:

 ------------------------------------------------------------------------------------
     Multipole            Electronic (a.u.)      Nuclear  (a.u.)        Total (a.u.)
 ------------------------------------------------------------------------------------

 L = 1.  Multiply by 2.5417464519 to convert [e a0] to [Debye]
 Dipole X            :          0.0000000            0.0000000            0.0000000
 Dipole Y            :          0.0000000            0.0000000            0.0000000
 Dipole Z            :         -1.0454876           -0.0102247           -1.0557123
 Magnitude           :                                                    1.0557123

 ------------------------------------------------------------------------------------

*** tstop() called on Joses-MacBook-Pro-2.local at Thu Jul 17 14:40:48 2025
Module time:
	user time   =       2.78 seconds =       0.05 minutes
	system time =       2.63 seconds =       0.04 minutes
	total time  =          1 seconds =       0.02 minutes
Total time:
	user time   =      63.23 seconds =       1.05 minutes
	system time =      69.76 seconds =       1.16 minutes
	total time  =         13 seconds =       0.22 minutes

*** tstart() called on Joses-MacBook-Pro-2.local
*** at Thu Jul 17 14:40:48 2025

         ------------------------------------------------------------
                                   SCF GRAD
                          Rob Parrish, Justin Turney,
                       Andy Simmonett, and Alex Sokolov
         ------------------------------------------------------------

  ==> Geometry <==

    Molecular point group: c2v
    Full point group: C_inf_v

    Geometry (in Angstrom), charge = 1, multiplicity = 4:

       Center              X                  Y                   Z               Mass
    ------------   -----------------  -----------------  -----------------  -----------------
         NE           0.000000000000     0.000000000000     1.211987211538    19.992440176200
         SI           0.000000000000     0.000000000000    -0.866091627005    27.976926534650

  Nuclear repulsion =   35.650625048341333

  ==> Basis Set <==

  Basis Set: CC-PVDZ
    Blend: CC-PVDZ
    Number of shells: 14
    Number of basis functions: 32
    Number of Cartesian functions: 34
    Spherical Harmonics?: true
    Max angular momentum: 2

  ==> DFJKGrad: Density-Fitted SCF Gradients <==

    Gradient:                    1
    J tasked:                  Yes
    K tasked:                  Yes
    wK tasked:                  No
    OpenMP threads:              1
    Integrals threads:           1
    Memory [MiB]:              375
    Schwarz Cutoff:          1E-12
    Fitting Condition:       1E-10

   => Auxiliary Basis Set <=

  Basis Set: (CC-PVDZ AUX)
    Blend: CC-PVDZ-JKFIT
    Number of shells: 60
    Number of basis functions: 182
    Number of Cartesian functions: 211
    Spherical Harmonics?: true
    Max angular momentum: 3

  ==> DFT Potential <==

   => LibXC <=

    Version 6.2.2
    S. Lehtola, C. Steigemann, M. J.T. Oliveira, and M. A.L. Marques.,  SoftwareX 7, 1â€“5 (2018) (10.1016/j.softx.2017.11.002)

   => Composite Functional: B3LYP <=

    B3LYP Hyb-GGA Exchange-Correlation Functional

    P. J. Stephens, F. J. Devlin, C. F. Chabalowski, and M. J. Frisch.,  J. Phys. Chem. 98, 11623 (1994) (10.1021/j100096a001)

    Deriv               =              1
    GGA                 =           TRUE
    Meta                =          FALSE

    Exchange Hybrid     =           TRUE
    MP2 Hybrid          =          FALSE

   => Exchange Functionals <=

    0.0800   Slater exchange
    0.7200         Becke 88

   => Exact (HF) Exchange <=

    0.2000               HF

   => Correlation Functionals <=

    0.1900   Vosko, Wilk & Nusair (VWN5_RPA)
    0.8100   Lee, Yang & Parr

   => LibXC Density Thresholds  <==

    XC_HYB_GGA_XC_B3LYP:  1.00E-15

   => Molecular Quadrature <=

    Radial Scheme          =       TREUTLER
    Pruning Scheme         =           NONE
    Nuclear Scheme         =       TREUTLER

    Blocking Scheme        =         OCTREE
    BS radius alpha        =              1
    Pruning alpha          =              1
    Radial Points          =             75
    Spherical Points       =            302
    Total Points           =          42972
    Total Blocks           =            392
    Max Points             =            256
    Max Functions          =             32
    Weights Tolerance      =       1.00E-15

  -Total Gradient:
     Atom            X                  Y                   Z
    ------   -----------------  -----------------  -----------------
       1        0.000000000000     0.000000000000     0.000050650277
       2        0.000000000000    -0.000000000000     0.000070771306

*** tstop() called on Joses-MacBook-Pro-2.local at Thu Jul 17 14:40:48 2025
Module time:
	user time   =       2.21 seconds =       0.04 minutes
	system time =       0.84 seconds =       0.01 minutes
	total time  =          0 seconds =       0.00 minutes
Total time:
	user time   =      65.45 seconds =       1.09 minutes
	system time =      70.60 seconds =       1.18 minutes
	total time  =         13 seconds =       0.22 minutes

    			-----------------------------------------

    			 OPTKING 3.0: for geometry optimizations

    			     By R.A. King, Bethel University

    			        with contributions from

    			    A.V. Copan, J. Cayton, A. Heide

    			-----------------------------------------

	                            ===> Fragment 1 <==

	 Z (Atomic Numbers)          Masses                          Geom
	      10.000000            19.992440          0.00000000  0.00000000  2.29032390
	      14.000000            27.976927          0.00000000  0.00000000 -1.63667597

	 - Coordinate -           - BOHR/RAD -       - ANG/DEG -
	 R(1,2)           =         3.927000           2.078079

	        --- Internal Coordinate Step in ANG or DEG, aJ/ANG or AJ/DEG ---
	-------------------------------------------------------------------------------
	           Coordinate      Previous         Force          Change          New
	           ----------      --------        ------          ------        ------
	               R(1,2)       2.07808        0.00008        0.00010       2.07818
	-------------------------------------------------------------------------------

	                                 ==> Convergence Check <==

	Measures of convergence in internal coordinates in au.

	Criteria marked as inactive (o), active & met (*), and active & unmet ( ).

	----------------------------------------------------------------------------------------------
	   Step    Total Energy     Delta E     Max Force     RMS Force      Max Disp      RMS Disp
	----------------------------------------------------------------------------------------------
	  Convergence Criteria     1.00e-06 *    3.00e-04 *             o    1.20e-03 *             o
	----------------------------------------------------------------------------------------------
	    14    -417.82177910   -1.00e-07 *    1.01e-05 *    1.01e-05 o    1.98e-04 *    1.98e-04 o  ~
	----------------------------------------------------------------------------------------------

Next Geometry in Ang
	Fragment 1 (Ang)

	   Ne   0.0000000000   0.0000000000   1.2120394913
	   Si   0.0000000000   0.0000000000  -0.8661439068

    Final optimized geometry and variables:
    Molecular point group: c2v
    Full point group: C_inf_v

    Geometry (in Angstrom), charge = 1, multiplicity = 4:

    NE           0.000000000000     0.000000000000     1.211987211538
    SI           0.000000000000     0.000000000000    -0.866091627005

    Psi4 stopped on: Thursday, 17 July 2025 02:40PM
    Psi4 wall time for execution: 0:00:14.57

*** Psi4 exiting successfully. Buy a developer a beer!
