                               Psi4 1.9.1 release

  ==> Input File <==

--------------------------------------------------------------------------
molecule {
1 4
Mg   0.00000        0.60000        0.00000
Ar   0.00000       -0.60000        0.00000
}

set {
basis              cc-pvdz
reference          uks
maxiter            500
geom_maxiter       500
DAMPING_PERCENTAGE 1
guess              SAP
}

optimize('b3lyp')
--------------------------------------------------------------------------

    Molecular point group: c2v
  Charge       = 1
  Multiplicity = 4
  Basis Set: CC-PVDZ
    Blend: CC-PVDZ
  Basis Set: (CC-PVDZ AUX)
    Blend: CC-PVDZ-JKFIT + DEF2-UNIVERSAL-JKFIT
  @DF-UKS Final Energy:  -725.61046676958358
    Total Energy =                       -725.6104667695835815
 Dipole X            :          0.0000000            0.0000000            0.0000000
 Dipole Y            :          0.0000000            0.0000000            0.0000000
 Dipole Z            :         -3.0413495            1.6956924           -1.3456571
 Magnitude           :                                                    1.3456571
    Molecular point group: c2v
  Basis Set: CC-PVDZ
    Blend: CC-PVDZ
  Basis Set: (CC-PVDZ AUX)
    Blend: CC-PVDZ-JKFIT + DEF2-UNIVERSAL-JKFIT
  Basis Set: CC-PVDZ
    Blend: CC-PVDZ
  Basis Set: (CC-PVDZ AUX)
    Blend: CC-PVDZ-JKFIT + DEF2-UNIVERSAL-JKFIT
  @DF-UKS Final Energy:  -725.63544224761426
    Total Energy =                       -725.6354422476143782
  Basis Set: CC-PVDZ
    Blend: CC-PVDZ
  Basis Set: (CC-PVDZ AUX)
    Blend: CC-PVDZ-JKFIT + DEF2-UNIVERSAL-JKFIT
  Basis Set: CC-PVDZ
    Blend: CC-PVDZ
  @DF-UKS Final Energy:  -725.68286787495379
    Total Energy =                       -725.6828678749537858
  @DF-UKS Final Energy:  -725.84708164724680
    Total Energy =                       -725.8470816472467959
  @DF-UKS Final Energy:  -726.36324218754157
    Total Energy =                       -726.3632421875415730
  @DF-UKS Final Energy:  -726.55637384492093
    Total Energy =                       -726.5563738449209268
  @DF-UKS Final Energy:  -726.68800479335982
    Total Energy =                       -726.6880047933598235
  @DF-UKS Final Energy:  -726.78279852632863
    Total Energy =                       -726.7827985263286337
  @DF-UKS Final Energy:  -726.84696374827774
    Total Energy =                       -726.8469637482777443
  @DF-UKS Final Energy:  -726.89084677841640
    Total Energy =                       -726.8908467784162895
  @DF-UKS Final Energy:  -726.89532878121111
    Total Energy =                       -726.8953287812111057
  @DF-UKS Final Energy:  -726.92264978675428
    Total Energy =                       -726.9226497867542776
  @DF-UKS Final Energy:  -726.92401318391751
    Total Energy =                       -726.9240131839175092
  @DF-UKS Final Energy:  -726.93686896506370
    Total Energy =                       -726.9368689650636952
  @DF-UKS Final Energy:  -726.93724609694868
    Total Energy =                       -726.9372460969487975
  @DF-UKS Final Energy:  -726.94314507040758
    Total Energy =                       -726.9431450704074678
  @DF-UKS Final Energy:  -726.94324410412889
    Total Energy =                       -726.9432441041288939
  @DF-UKS Final Energy:  -726.94599413832873
    Total Energy =                       -726.9459941383287287
  @DF-UKS Final Energy:  -726.94601970245958
    Total Energy =                       -726.9460197024595800
  @DF-UKS Final Energy:  -726.94733734418139
    Total Energy =                       -726.9473373441813919
  @DF-UKS Final Energy:  -726.94866577449545
    Total Energy =                       -726.9486657744954528
  @DF-UKS Final Energy:  -726.94866608884593
    Total Energy =                       -726.9486660888459255
  @DF-UKS Final Energy:  -726.94866640297141
    Total Energy =                       -726.9486664029714120
  @DF-UKS Final Energy:  -726.94866671684463
    Total Energy =                       -726.9486667168447411
  @DF-UKS Final Energy:  -726.94866703045830
    Total Energy =                       -726.9486670304582958
  @DF-UKS Final Energy:  -726.94866734378786
    Total Energy =                       -726.9486673437877471
  @DF-UKS Final Energy:  -726.94866765685572
    Total Energy =                       -726.9486676568556049
  @DF-UKS Final Energy:  -726.94866796965277
    Total Energy =                       -726.9486679696527744
  @DF-UKS Final Energy:  -726.94866828216072
    Total Energy =                       -726.9486682821607246
  @DF-UKS Final Energy:  -726.94866859441299
    Total Energy =                       -726.9486685944129931
  @DF-UKS Final Energy:  -726.94866890637047
    Total Energy =                       -726.9486689063704716
  @DF-UKS Final Energy:  -726.94866921809944
    Total Energy =                       -726.9486692180994396
  @DF-UKS Final Energy:  -726.94866952957045
    Total Energy =                       -726.9486695295703385
  @DF-UKS Final Energy:  -726.94866984072041
    Total Energy =                       -726.9486698407204130
  @DF-UKS Final Energy:  -726.94867015169882
    Total Energy =                       -726.9486701516988205
  @DF-UKS Final Energy:  -726.94867046229604
    Total Energy =                       -726.9486704622960360
  @DF-UKS Final Energy:  -726.94867077263075
    Total Energy =                       -726.9486707726307486
  @DF-UKS Final Energy:  -726.94867108279232
    Total Energy =                       -726.9486710827923162
  Basis Set: (CC-PVDZ AUX)
    Blend: CC-PVDZ-JKFIT + DEF2-UNIVERSAL-JKFIT
  Basis Set: CC-PVDZ
    Blend: CC-PVDZ
  Basis Set: (CC-PVDZ AUX)
    Blend: CC-PVDZ-JKFIT + DEF2-UNIVERSAL-JKFIT
  @DF-UKS Final Energy:  -726.94867139270536
    Total Energy =                       -726.9486713927053643
  Basis Set: CC-PVDZ
    Blend: CC-PVDZ
  Basis Set: (CC-PVDZ AUX)
    Blend: CC-PVDZ-JKFIT + DEF2-UNIVERSAL-JKFIT
  Charge       = 1
  Multiplicity = 4
  Basis Set: CC-PVDZ
    Blend: CC-PVDZ
  Basis Set: (CC-PVDZ AUX)
    Blend: CC-PVDZ-JKFIT + DEF2-UNIVERSAL-JKFIT

    Orbital Energies [Eh]
    ---------------------

    Alpha Occupied:

       1A1  -115.631129     2A1   -46.980671     3A1   -11.657321
       4A1    -9.230217     1B2    -9.199931     1B1    -9.199922
       5A1    -3.259751     6A1    -2.004151     2B2    -2.004017
       2B1    -2.000965     7A1    -1.452803     8A1    -0.930904
       3B2    -0.864604     3B1    -0.864499     9A1    -0.343532
       4B1    -0.201148

    Alpha Virtual:

      10A1    -0.163410     4B2    -0.151083    11A1    -0.026644
      12A1     0.036523     5B1     0.038413     5B2     0.048127
       6B1     0.172091     1A2     0.175525    13A1     0.176524
       6B2     0.184015    14A1     0.184407    15A1     0.207987
       7B2     0.221897     7B1     0.222148    16A1     0.320553
       8B2     0.339816     8B1     0.339882    17A1     0.341117
       2A2     0.390966    18A1     0.391025

    Beta Occupied:

       1A1  -115.622227     2A1   -46.976438     3A1   -11.648826
       4A1    -9.201940     1B2    -9.194823     1B1    -9.194812
       5A1    -3.252674     6A1    -1.999875     2B2    -1.999807
       2B1    -1.992048     7A1    -1.389947     3B2    -0.844894
       3B1    -0.844785

    Beta Virtual:

       8A1    -0.738855     9A1    -0.236764    10A1    -0.123127
       4B2    -0.109458     4B1    -0.089443    11A1     0.005295
      12A1     0.059271     5B2     0.070295     5B1     0.086757
      13A1     0.218271     6B2     0.218878     7B2     0.228778
       6B1     0.229084     7B1     0.240030     1A2     0.242638
      14A1     0.247567    15A1     0.250998    16A1     0.359409
       2A2     0.401146    17A1     0.401200     8B2     0.406888
       8B1     0.406959    18A1     0.417979

    Final Occupation by Irrep:
             A1    A2    B1    B2
    DOCC [     7,    0,    3,    3 ]
    SOCC [     2,    0,    1,    0 ]
    NA   [     9,    0,    4,    3 ]
    NB   [     7,    0,    3,    3 ]

  @DF-UKS Final Energy:  -726.94889535415587

   => Energetics <=

    Nuclear Repulsion Energy =             20.9410564970560955
    One-Electron Energy =               -1038.8791553498060694
    Two-Electron Energy =                 328.8157413130882674
    DFT Exchange-Correlation Energy =     -37.8265378144941096
    Empirical Dispersion Energy =           0.0000000000000000
    VV10 Nonlocal Energy =                  0.0000000000000000
    Total Energy =                       -726.9488953541557521

  UHF NO Occupations:
  HONO-2 :    8 A1 1.0000000
  HONO-1 :    4 B1 1.0000000
  HONO-0 :    9 A1 1.0000000
  LUNO+0 :   10 A1 0.0008191
  LUNO+1 :    5 B1 0.0000233
  LUNO+2 :    4 B2 0.0000232
  LUNO+3 :   11 A1 0.0000009

Computation Completed

Properties will be evaluated at   0.000000,   0.000000,   0.000000 [a0]

Properties computed using the SCF density matrix

 Multipole Moments:

 ------------------------------------------------------------------------------------
     Multipole            Electronic (a.u.)      Nuclear  (a.u.)        Total (a.u.)
 ------------------------------------------------------------------------------------

 L = 1.  Multiply by 2.5417464519 to convert [e a0] to [Debye]
 Dipole X            :          0.0000000            0.0000000            0.0000000
 Dipole Y            :          0.0000000            0.0000000            0.0000000
 Dipole Z            :        -11.1340139            7.7129785           -3.4210354
 Magnitude           :                                                    3.4210354

 ------------------------------------------------------------------------------------

*** tstop() called on Joses-MacBook-Pro-2.local at Thu Jul 17 15:14:14 2025
Module time:
	user time   =       6.17 seconds =       0.10 minutes
	system time =       2.83 seconds =       0.05 minutes
	total time  =          1 seconds =       0.02 minutes
Total time:
	user time   =     526.91 seconds =       8.78 minutes
	system time =     278.05 seconds =       4.63 minutes
	total time  =         76 seconds =       1.27 minutes

*** tstart() called on Joses-MacBook-Pro-2.local
*** at Thu Jul 17 15:14:14 2025

         ------------------------------------------------------------
                                   SCF GRAD
                          Rob Parrish, Justin Turney,
                       Andy Simmonett, and Alex Sokolov
         ------------------------------------------------------------

  ==> Geometry <==

    Molecular point group: c2v
    Full point group: C_inf_v

    Geometry (in Angstrom), charge = 1, multiplicity = 4:

       Center              X                  Y                   Z               Mass
    ------------   -----------------  -----------------  -----------------  -----------------
         MG           0.000000000000     0.000000000000     3.411022738790    23.985041697000
         AR           0.000000000000     0.000000000000    -2.047263356794    39.962383123700

  Nuclear repulsion =   20.941056497056096

  ==> Basis Set <==

  Basis Set: CC-PVDZ
    Blend: CC-PVDZ
    Number of shells: 16
    Number of basis functions: 36
    Number of Cartesian functions: 38
    Spherical Harmonics?: true
    Max angular momentum: 2

  ==> DFJKGrad: Density-Fitted SCF Gradients <==

    Gradient:                    1
    J tasked:                  Yes
    K tasked:                  Yes
    wK tasked:                  No
    OpenMP threads:              1
    Integrals threads:           1
    Memory [MiB]:              375
    Schwarz Cutoff:          1E-12
    Fitting Condition:       1E-10

   => Auxiliary Basis Set <=

  Basis Set: (CC-PVDZ AUX)
    Blend: CC-PVDZ-JKFIT + DEF2-UNIVERSAL-JKFIT
    Number of shells: 70
    Number of basis functions: 224
    Number of Cartesian functions: 267
    Spherical Harmonics?: true
    Max angular momentum: 4

  ==> DFT Potential <==

   => LibXC <=

    Version 6.2.2
    S. Lehtola, C. Steigemann, M. J.T. Oliveira, and M. A.L. Marques.,  SoftwareX 7, 1â€“5 (2018) (10.1016/j.softx.2017.11.002)

   => Composite Functional: B3LYP <=

    B3LYP Hyb-GGA Exchange-Correlation Functional

    P. J. Stephens, F. J. Devlin, C. F. Chabalowski, and M. J. Frisch.,  J. Phys. Chem. 98, 11623 (1994) (10.1021/j100096a001)

    Deriv               =              1
    GGA                 =           TRUE
    Meta                =          FALSE

    Exchange Hybrid     =           TRUE
    MP2 Hybrid          =          FALSE

   => Exchange Functionals <=

    0.0800   Slater exchange
    0.7200         Becke 88

   => Exact (HF) Exchange <=

    0.2000               HF

   => Correlation Functionals <=

    0.1900   Vosko, Wilk & Nusair (VWN5_RPA)
    0.8100   Lee, Yang & Parr

   => LibXC Density Thresholds  <==

    XC_HYB_GGA_XC_B3LYP:  1.00E-15

   => Molecular Quadrature <=

    Radial Scheme          =       TREUTLER
    Pruning Scheme         =           NONE
    Nuclear Scheme         =       TREUTLER

    Blocking Scheme        =         OCTREE
    BS radius alpha        =              1
    Pruning alpha          =              1
    Radial Points          =             75
    Spherical Points       =            302
    Total Points           =          43169
    Total Blocks           =            455
    Max Points             =            255
    Max Functions          =             36
    Weights Tolerance      =       1.00E-15

  -Total Gradient:
     Atom            X                  Y                   Z
    ------   -----------------  -----------------  -----------------
       1       -0.000000000000     0.000000000000    -0.000257102931
       2       -0.000000000000     0.000000000000     0.000229800929

*** tstop() called on Joses-MacBook-Pro-2.local at Thu Jul 17 15:14:14 2025
Module time:
	user time   =       2.24 seconds =       0.04 minutes
	system time =       1.19 seconds =       0.02 minutes
	total time  =          0 seconds =       0.00 minutes
Total time:
	user time   =     529.18 seconds =       8.82 minutes
	system time =     279.24 seconds =       4.65 minutes
	total time  =         76 seconds =       1.27 minutes

    			-----------------------------------------

    			 OPTKING 3.0: for geometry optimizations

    			     By R.A. King, Bethel University

    			        with contributions from

    			    A.V. Copan, J. Cayton, A. Heide

    			-----------------------------------------

	                            ===> Fragment 1 <==

	 Z (Atomic Numbers)          Masses                          Geom
	      12.000000            23.985042          0.00000000  0.00000000  6.44589878
	      18.000000            39.962383          0.00000000  0.00000000 -3.86876705

	 - Coordinate -           - BOHR/RAD -       - ANG/DEG -
	 R(1,2)           =        10.314666           5.458286

	        --- Internal Coordinate Step in ANG or DEG, aJ/ANG or AJ/DEG ---
	-------------------------------------------------------------------------------
	           Coordinate      Previous         Force          Change          New
	           ----------      --------        ------          ------        ------
	               R(1,2)       5.45829        0.00201        0.00044       5.45873
	-------------------------------------------------------------------------------

	                                 ==> Convergence Check <==

	Measures of convergence in internal coordinates in au.

	Criteria marked as inactive (o), active & met (*), and active & unmet ( ).

	----------------------------------------------------------------------------------------------
	   Step    Total Energy     Delta E     Max Force     RMS Force      Max Disp      RMS Disp
	----------------------------------------------------------------------------------------------
	  Convergence Criteria     1.00e-06 *    3.00e-04 *             o    1.20e-03 *             o
	----------------------------------------------------------------------------------------------
	    70    -726.94889535   -2.24e-04      2.43e-04 *    2.43e-04 o    8.36e-04 *    8.36e-04 o  ~
	----------------------------------------------------------------------------------------------

Next Geometry in Ang
	Fragment 1 (Ang)

	   Mg   0.0000000000   0.0000000000   3.4112438381
	   Ar   0.0000000000   0.0000000000  -2.0474844561

    Final optimized geometry and variables:
    Molecular point group: c2v
    Full point group: C_inf_v

    Geometry (in Angstrom), charge = 1, multiplicity = 4:

    MG           0.000000000000     0.000000000000     3.411022738790
    AR           0.000000000000     0.000000000000    -2.047263356794

    Psi4 stopped on: Thursday, 17 July 2025 03:14PM
    Psi4 wall time for execution: 0:01:16.60

*** Psi4 exiting successfully. Buy a developer a beer!
