                               Psi4 1.9.1 release

  ==> Input File <==

--------------------------------------------------------------------------
molecule {
1 4
Be   0.00000        0.60000        0.00000
Ar   0.00000       -0.60000        0.00000
}

set {
basis              cc-pvdz
reference          uks
maxiter            500
geom_maxiter       500
DAMPING_PERCENTAGE 1
guess              SAP
}

optimize('b3lyp')
--------------------------------------------------------------------------

    Molecular point group: c2v
  Charge       = 1
  Multiplicity = 4
  Basis Set: CC-PVDZ
    Blend: CC-PVDZ
  Basis Set: (CC-PVDZ AUX)
    Blend: CC-PVDZ-JKFIT + DEF2-UNIVERSAL-JKFIT
  @DF-UKS Final Energy:  -540.90548201256422
    Total Energy =                       -540.9054820125641072
 Dipole X            :          0.0000000            0.0000000            0.0000000
 Dipole Y            :          0.0000000            0.0000000            0.0000000
 Dipole Z            :         -1.1390966           -0.1097272           -1.2488238
 Magnitude           :                                                    1.2488238
    Molecular point group: c2v
  Basis Set: CC-PVDZ
    Blend: CC-PVDZ
  Basis Set: (CC-PVDZ AUX)
    Blend: CC-PVDZ-JKFIT + DEF2-UNIVERSAL-JKFIT
  Basis Set: CC-PVDZ
    Blend: CC-PVDZ
  Basis Set: (CC-PVDZ AUX)
    Blend: CC-PVDZ-JKFIT + DEF2-UNIVERSAL-JKFIT
  @DF-UKS Final Energy:  -541.09598096291393
    Total Energy =                       -541.0959809629139272
  Basis Set: CC-PVDZ
    Blend: CC-PVDZ
  Basis Set: (CC-PVDZ AUX)
    Blend: CC-PVDZ-JKFIT + DEF2-UNIVERSAL-JKFIT
  Basis Set: CC-PVDZ
    Blend: CC-PVDZ
  @DF-UKS Final Energy:  -541.23207600016008
    Total Energy =                       -541.2320760001600775
  @DF-UKS Final Energy:  -541.32500599336015
    Total Energy =                       -541.3250059933602643
  @DF-UKS Final Energy:  -541.40211116418152
    Total Energy =                       -541.4021111641815196
  @DF-UKS Final Energy:  -541.46564101235822
    Total Energy =                       -541.4656410123582191
  @DF-UKS Final Energy:  -541.47967276016334
    Total Energy =                       -541.4796727601632256
  @DF-UKS Final Energy:  -541.51324339145413
    Total Energy =                       -541.5132433914541252
  @DF-UKS Final Energy:  -541.51691907666032
    Total Energy =                       -541.5169190766603151
  @DF-UKS Final Energy:  -541.53036204777402
    Total Energy =                       -541.5303620477740196
  @DF-UKS Final Energy:  -541.53123821392273
    Total Energy =                       -541.5312382139227338
  @DF-UKS Final Energy:  -541.53697599069346
    Total Energy =                       -541.5369759906934632
  @DF-UKS Final Energy:  -541.53717750162548
    Total Energy =                       -541.5371775016254787
  @DF-UKS Final Energy:  -541.53962365308746
    Total Energy =                       -541.5396236530874603
  @DF-UKS Final Energy:  -541.54049663441060
    Total Energy =                       -541.5404966344106015
  @DF-UKS Final Energy:  -541.54094675375950
    Total Energy =                       -541.5409467537596129
  @DF-UKS Final Energy:  -541.54114867381941
    Total Energy =                       -541.5411486738194071
  @DF-UKS Final Energy:  -541.54123800602429
    Total Energy =                       -541.5412380060242867
  @DF-UKS Final Energy:  -541.54127552024613
    Total Energy =                       -541.5412755202461312
  @DF-UKS Final Energy:  -541.54129006704352
    Total Energy =                       -541.5412900670435192
  @DF-UKS Final Energy:  -541.54129478162622
    Total Energy =                       -541.5412947816262204
  Basis Set: (CC-PVDZ AUX)
    Blend: CC-PVDZ-JKFIT + DEF2-UNIVERSAL-JKFIT
  Basis Set: CC-PVDZ
    Blend: CC-PVDZ
  Basis Set: (CC-PVDZ AUX)
    Blend: CC-PVDZ-JKFIT + DEF2-UNIVERSAL-JKFIT
  @DF-UKS Final Energy:  -541.54129737329231
    Total Energy =                       -541.5412973732923092
  Basis Set: CC-PVDZ
    Blend: CC-PVDZ
  Basis Set: (CC-PVDZ AUX)
    Blend: CC-PVDZ-JKFIT + DEF2-UNIVERSAL-JKFIT
  Charge       = 1
  Multiplicity = 4
  Basis Set: CC-PVDZ
    Blend: CC-PVDZ
  Basis Set: (CC-PVDZ AUX)
    Blend: CC-PVDZ-JKFIT + DEF2-UNIVERSAL-JKFIT

    Orbital Energies [Eh]
    ---------------------

    Alpha Occupied:

       1A1  -115.629347     2A1   -11.655538     3A1    -9.228428
       1B1    -9.198153     1B2    -9.198141     4A1    -4.232387
       5A1    -1.451049     6A1    -0.929112     2B1    -0.862887
       2B2    -0.862751     7A1    -0.387875     3B2    -0.252740

    Alpha Virtual:

       8A1    -0.190164     3B1    -0.179259     9A1     0.020664
       4B2     0.054215     4B1     0.073630    10A1     0.084405
      11A1     0.221794     5B1     0.224645     5B2     0.224855
      12A1     0.321980     6B2     0.323369     1A2     0.328198
      13A1     0.331912     6B1     0.341706     7B2     0.341793
      14A1     0.342280     7B1     0.342338    15A1     0.360143
       2A2     0.392720    16A1     0.392736

    Beta Occupied:

       1A1  -115.620436     2A1   -11.647033     3A1    -9.200135
       1B1    -9.193036     1B2    -9.193021     4A1    -4.213930
       5A1    -1.388174     2B1    -0.843177     2B2    -0.843036

    Beta Virtual:

       6A1    -0.737151     7A1    -0.235383     8A1    -0.129202
       3B1    -0.115529     3B2    -0.086229     9A1     0.060820
       4B1     0.099225    10A1     0.121784     4B2     0.124301
       5B1     0.231571     5B2     0.232221    11A1     0.263809
      12A1     0.373521     1A2     0.402912    13A1     0.402927
       6B1     0.408780     6B2     0.408887     7B1     0.409030
      14A1     0.411137    15A1     0.422148     7B2     0.437806
       2A2     0.441481    16A1     0.447972

    Final Occupation by Irrep:
             A1    A2    B1    B2
    DOCC [     5,    0,    2,    2 ]
    SOCC [     2,    0,    0,    1 ]
    NA   [     7,    0,    2,    3 ]
    NB   [     5,    0,    2,    2 ]

  @DF-UKS Final Energy:  -541.54129822609389

   => Energetics <=

    Nuclear Repulsion Energy =              8.3290975574093462
    One-Electron Energy =                -754.6333526317941960
    Two-Electron Energy =                 231.5865845054521515
    DFT Exchange-Correlation Energy =     -26.8236276571611647
    Empirical Dispersion Energy =           0.0000000000000000
    VV10 Nonlocal Energy =                  0.0000000000000000
    Total Energy =                       -541.5412982260938861

  UHF NO Occupations:
  HONO-2 :    3 B2 1.0000000
  HONO-1 :    6 A1 1.0000000
  HONO-0 :    7 A1 1.0000000
  LUNO+0 :    8 A1 0.0008194
  LUNO+1 :    4 B2 0.0000238
  LUNO+2 :    3 B1 0.0000237
  LUNO+3 :    9 A1 0.0000007

Computation Completed

Properties will be evaluated at   0.000000,   0.000000,   0.000000 [a0]

Properties computed using the SCF density matrix

 Multipole Moments:

 ------------------------------------------------------------------------------------
     Multipole            Electronic (a.u.)      Nuclear  (a.u.)        Total (a.u.)
 ------------------------------------------------------------------------------------

 L = 1.  Multiply by 2.5417464519 to convert [e a0] to [Debye]
 Dipole X            :          0.0000000            0.0000000            0.0000000
 Dipole Y            :          0.0000000            0.0000000            0.0000000
 Dipole Z            :         -0.7551300           -0.4182816           -1.1734117
 Magnitude           :                                                    1.1734117

 ------------------------------------------------------------------------------------

*** tstop() called on Joses-MacBook-Pro-2.local at Thu Jul 17 13:29:16 2025
Module time:
	user time   =       1.77 seconds =       0.03 minutes
	system time =       4.11 seconds =       0.07 minutes
	total time  =          1 seconds =       0.02 minutes
Total time:
	user time   =      69.68 seconds =       1.16 minutes
	system time =     151.83 seconds =       2.53 minutes
	total time  =         22 seconds =       0.37 minutes

*** tstart() called on Joses-MacBook-Pro-2.local
*** at Thu Jul 17 13:29:16 2025

         ------------------------------------------------------------
                                   SCF GRAD
                          Rob Parrish, Justin Turney,
                       Andy Simmonett, and Alex Sokolov
         ------------------------------------------------------------

  ==> Geometry <==

    Molecular point group: c2v
    Full point group: C_inf_v

    Geometry (in Angstrom), charge = 1, multiplicity = 4:

       Center              X                  Y                   Z               Mass
    ------------   -----------------  -----------------  -----------------  -----------------
         BE           0.000000000000     0.000000000000     3.732643058516     9.012183065000
         AR           0.000000000000     0.000000000000    -0.841773185936    39.962383123700

  Nuclear repulsion =    8.329097557409346

  ==> Basis Set <==

  Basis Set: CC-PVDZ
    Blend: CC-PVDZ
    Number of shells: 14
    Number of basis functions: 32
    Number of Cartesian functions: 34
    Spherical Harmonics?: true
    Max angular momentum: 2

  ==> DFJKGrad: Density-Fitted SCF Gradients <==

    Gradient:                    1
    J tasked:                  Yes
    K tasked:                  Yes
    wK tasked:                  No
    OpenMP threads:              1
    Integrals threads:           1
    Memory [MiB]:              375
    Schwarz Cutoff:          1E-12
    Fitting Condition:       1E-10

   => Auxiliary Basis Set <=

  Basis Set: (CC-PVDZ AUX)
    Blend: CC-PVDZ-JKFIT + DEF2-UNIVERSAL-JKFIT
    Number of shells: 53
    Number of basis functions: 163
    Number of Cartesian functions: 190
    Spherical Harmonics?: true
    Max angular momentum: 3

  ==> DFT Potential <==

   => LibXC <=

    Version 6.2.2
    S. Lehtola, C. Steigemann, M. J.T. Oliveira, and M. A.L. Marques.,  SoftwareX 7, 1â€“5 (2018) (10.1016/j.softx.2017.11.002)

   => Composite Functional: B3LYP <=

    B3LYP Hyb-GGA Exchange-Correlation Functional

    P. J. Stephens, F. J. Devlin, C. F. Chabalowski, and M. J. Frisch.,  J. Phys. Chem. 98, 11623 (1994) (10.1021/j100096a001)

    Deriv               =              1
    GGA                 =           TRUE
    Meta                =          FALSE

    Exchange Hybrid     =           TRUE
    MP2 Hybrid          =          FALSE

   => Exchange Functionals <=

    0.0800   Slater exchange
    0.7200         Becke 88

   => Exact (HF) Exchange <=

    0.2000               HF

   => Correlation Functionals <=

    0.1900   Vosko, Wilk & Nusair (VWN5_RPA)
    0.8100   Lee, Yang & Parr

   => LibXC Density Thresholds  <==

    XC_HYB_GGA_XC_B3LYP:  1.00E-15

   => Molecular Quadrature <=

    Radial Scheme          =       TREUTLER
    Pruning Scheme         =           NONE
    Nuclear Scheme         =       TREUTLER

    Blocking Scheme        =         OCTREE
    BS radius alpha        =              1
    Pruning alpha          =              1
    Radial Points          =             75
    Spherical Points       =            302
    Total Points           =          42933
    Total Blocks           =            446
    Max Points             =            253
    Max Functions          =             32
    Weights Tolerance      =       1.00E-15

  -Total Gradient:
     Atom            X                  Y                   Z
    ------   -----------------  -----------------  -----------------
       1        0.000000000000     0.000000000000    -0.000009806310
       2        0.000000000000     0.000000000000     0.000005982403

*** tstop() called on Joses-MacBook-Pro-2.local at Thu Jul 17 13:29:16 2025
Module time:
	user time   =       0.51 seconds =       0.01 minutes
	system time =       1.68 seconds =       0.03 minutes
	total time  =          0 seconds =       0.00 minutes
Total time:
	user time   =      70.20 seconds =       1.17 minutes
	system time =     153.51 seconds =       2.56 minutes
	total time  =         22 seconds =       0.37 minutes

    			-----------------------------------------

    			 OPTKING 3.0: for geometry optimizations

    			     By R.A. King, Bethel University

    			        with contributions from

    			    A.V. Copan, J. Cayton, A. Heide

    			-----------------------------------------

	                            ===> Fragment 1 <==

	 Z (Atomic Numbers)          Masses                          Geom
	       4.000000             9.012183          0.00000000  0.00000000  7.05367310
	      18.000000            39.962383          0.00000000  0.00000000 -1.59072078

	 - Coordinate -           - BOHR/RAD -       - ANG/DEG -
	 R(1,2)           =         8.644394           4.574416

	        --- Internal Coordinate Step in ANG or DEG, aJ/ANG or AJ/DEG ---
	-------------------------------------------------------------------------------
	           Coordinate      Previous         Force          Change          New
	           ----------      --------        ------          ------        ------
	               R(1,2)       4.57442        0.00007        0.03487       4.60929
	-------------------------------------------------------------------------------

	                                 ==> Convergence Check <==

	Measures of convergence in internal coordinates in au.

	Criteria marked as inactive (o), active & met (*), and active & unmet ( ).

	----------------------------------------------------------------------------------------------
	   Step    Total Energy     Delta E     Max Force     RMS Force      Max Disp      RMS Disp
	----------------------------------------------------------------------------------------------
	  Convergence Criteria     1.00e-06 *    3.00e-04 *             o    1.20e-03 *             o
	----------------------------------------------------------------------------------------------
	    23    -541.54129823   -8.53e-07 *    7.89e-06 *    7.89e-06 o    6.59e-02      6.59e-02 o  ~
	----------------------------------------------------------------------------------------------

Next Geometry in Ang
	Fragment 1 (Ang)

	   Be   0.0000000000   0.0000000000   3.7500786925
	   Ar   0.0000000000   0.0000000000  -0.8592088199

    Final optimized geometry and variables:
    Molecular point group: c2v
    Full point group: C_inf_v

    Geometry (in Angstrom), charge = 1, multiplicity = 4:

    BE           0.000000000000     0.000000000000     3.732643058516
    AR           0.000000000000     0.000000000000    -0.841773185936

    Psi4 stopped on: Thursday, 17 July 2025 01:29PM
    Psi4 wall time for execution: 0:00:22.50

*** Psi4 exiting successfully. Buy a developer a beer!
