                               Psi4 1.9.1 release

  ==> Input File <==

--------------------------------------------------------------------------
molecule {
1 4
Li   0.00000        0.60000        0.00000
F   0.00000       -0.60000        0.00000
}

set {
basis              cc-pvdz
reference          uks
maxiter            500
geom_maxiter       500
DAMPING_PERCENTAGE 1
guess              SAP
}

optimize('b3lyp')
--------------------------------------------------------------------------

    Molecular point group: c2v
  Charge       = 1
  Multiplicity = 4
  Basis Set: CC-PVDZ
    Blend: CC-PVDZ
  Basis Set: (CC-PVDZ AUX)
    Blend: CC-PVDZ-JKFIT + DEF2-UNIVERSAL-JKFIT
  @DF-UKS Final Energy:  -106.27280065543110
    Total Energy =                       -106.2728006554310980
 Dipole X            :          0.0000000            0.0000000            0.0000000
 Dipole Y            :          0.0000000            0.0000000            0.0000000
 Dipole Z            :          0.1707405           -0.5359917           -0.3652512
 Magnitude           :                                                    0.3652512
    Molecular point group: c2v
  Basis Set: CC-PVDZ
    Blend: CC-PVDZ
  Basis Set: (CC-PVDZ AUX)
    Blend: CC-PVDZ-JKFIT + DEF2-UNIVERSAL-JKFIT
  Basis Set: CC-PVDZ
    Blend: CC-PVDZ
  Basis Set: (CC-PVDZ AUX)
    Blend: CC-PVDZ-JKFIT + DEF2-UNIVERSAL-JKFIT
  @DF-UKS Final Energy:  -106.39076674142673
    Total Energy =                       -106.3907667414267308
  Basis Set: CC-PVDZ
    Blend: CC-PVDZ
  Basis Set: (CC-PVDZ AUX)
    Blend: CC-PVDZ-JKFIT + DEF2-UNIVERSAL-JKFIT
  Basis Set: CC-PVDZ
    Blend: CC-PVDZ
  @DF-UKS Final Energy:  -106.44897176330068
    Total Energy =                       -106.4489717633006904
  @DF-UKS Final Energy:  -106.50070197863910
    Total Energy =                       -106.5007019786390998
  @DF-UKS Final Energy:  -106.54649695621745
    Total Energy =                       -106.5464969562174531
  @DF-UKS Final Energy:  -106.56111992872424
    Total Energy =                       -106.5611199287242385
  @DF-UKS Final Energy:  -106.58521604572822
    Total Energy =                       -106.5852160457282167
  @DF-UKS Final Energy:  -106.58897156460797
    Total Energy =                       -106.5889715646079736
  @DF-UKS Final Energy:  -106.59682860035056
    Total Energy =                       -106.5968286003505625
  @DF-UKS Final Energy:  -106.59745273166793
    Total Energy =                       -106.5974527316679286
  @DF-UKS Final Energy:  -106.59950044022672
    Total Energy =                       -106.5995004402267057
  @DF-UKS Final Energy:  -106.59978934240249
    Total Energy =                       -106.5997893424024880
  Basis Set: (CC-PVDZ AUX)
    Blend: CC-PVDZ-JKFIT + DEF2-UNIVERSAL-JKFIT
  Basis Set: CC-PVDZ
    Blend: CC-PVDZ
  Basis Set: (CC-PVDZ AUX)
    Blend: CC-PVDZ-JKFIT + DEF2-UNIVERSAL-JKFIT
  @DF-UKS Final Energy:  -106.59982277540449
    Total Energy =                       -106.5998227754044905
  Basis Set: CC-PVDZ
    Blend: CC-PVDZ
  Basis Set: (CC-PVDZ AUX)
    Blend: CC-PVDZ-JKFIT + DEF2-UNIVERSAL-JKFIT
  Charge       = 1
  Multiplicity = 4
  Basis Set: CC-PVDZ
    Blend: CC-PVDZ
  Basis Set: (CC-PVDZ AUX)
    Blend: CC-PVDZ-JKFIT + DEF2-UNIVERSAL-JKFIT

    Orbital Energies [Eh]
    ---------------------

    Alpha Occupied:

       1A1   -25.531602     2A1    -2.195935     3A1    -1.871658
       1B1    -1.165200     4A1    -1.164665     1B2    -1.067822
       5A1    -0.303297

    Alpha Virtual:

       6A1    -0.166213     2B1    -0.162945     2B2    -0.162097
       7A1    -0.098534     3B1    -0.046343     3B2    -0.045841
       8A1    -0.018888     9A1     0.064902     4B1     0.070548
       4B2     0.071801     1A2     0.089110    10A1     0.089111
       5B1     0.562813     5B2     0.612478    11A1     0.613805
      12A1     1.014073     6B1     2.784424    13A1     2.786273
       2A2     2.853951     6B2     2.855605    14A1     2.880545

    Beta Occupied:

       1A1   -25.462215     2A1    -2.190117     3A1    -1.677022
       1B2    -0.999599

    Beta Virtual:

       1B1    -0.806417     4A1    -0.805457     5A1    -0.210838
       6A1    -0.153208     2B2    -0.132900     2B1    -0.131852
       7A1    -0.063931     3B2    -0.037411     3B1    -0.036923
       8A1    -0.015419     9A1     0.098746     4B2     0.106248
       4B1     0.106945     1A2     0.118664    10A1     0.118768
       5B2     0.642474     5B1     0.676489    11A1     0.726802
      12A1     1.105076     2A2     2.966635     6B2     2.968471
      13A1     2.977183     6B1     2.998315    14A1     3.000268

    Final Occupation by Irrep:
             A1    A2    B1    B2
    DOCC [     3,    0,    0,    1 ]
    SOCC [     2,    0,    1,    0 ]
    NA   [     5,    0,    1,    1 ]
    NB   [     3,    0,    0,    1 ]

  @DF-UKS Final Energy:  -106.59982370091919

   => Energetics <=

    Nuclear Repulsion Energy =              4.2758203633165515
    One-Electron Energy =                -151.2956045468245634
    Two-Electron Energy =                  49.9176981565775080
    DFT Exchange-Correlation Energy =      -9.4977376739886754
    Empirical Dispersion Energy =           0.0000000000000000
    VV10 Nonlocal Energy =                  0.0000000000000000
    Total Energy =                       -106.5998237009192025

  UHF NO Occupations:
  HONO-2 :    4 A1 1.0000000
  HONO-1 :    5 A1 1.0000000
  HONO-0 :    1 B1 1.0000000
  LUNO+0 :    6 A1 0.0006357
  LUNO+1 :    2 B2 0.0002065
  LUNO+2 :    7 A1 0.0000008
  LUNO+3 :    8 A1 0.0000000

Computation Completed

Properties will be evaluated at   0.000000,   0.000000,   0.000000 [a0]

Properties computed using the SCF density matrix

 Multipole Moments:

 ------------------------------------------------------------------------------------
     Multipole            Electronic (a.u.)      Nuclear  (a.u.)        Total (a.u.)
 ------------------------------------------------------------------------------------

 L = 1.  Multiply by 2.5417464519 to convert [e a0] to [Debye]
 Dipole X            :          0.0000000            0.0000000            0.0000000
 Dipole Y            :          0.0000000            0.0000000            0.0000000
 Dipole Z            :          1.9185959           -1.4925273            0.4260686
 Magnitude           :                                                    0.4260686

 ------------------------------------------------------------------------------------

*** tstop() called on Joses-MacBook-Pro-2.local at Thu Jul 17 12:50:18 2025
Module time:
	user time   =       3.20 seconds =       0.05 minutes
	system time =       1.78 seconds =       0.03 minutes
	total time  =          0 seconds =       0.00 minutes
Total time:
	user time   =      50.21 seconds =       0.84 minutes
	system time =      60.92 seconds =       1.02 minutes
	total time  =         10 seconds =       0.17 minutes

*** tstart() called on Joses-MacBook-Pro-2.local
*** at Thu Jul 17 12:50:18 2025

         ------------------------------------------------------------
                                   SCF GRAD
                          Rob Parrish, Justin Turney,
                       Andy Simmonett, and Alex Sokolov
         ------------------------------------------------------------

  ==> Geometry <==

    Molecular point group: c2v
    Full point group: C_inf_v

    Geometry (in Angstrom), charge = 1, multiplicity = 4:

       Center              X                  Y                   Z               Mass
    ------------   -----------------  -----------------  -----------------  -----------------
         LI           0.000000000000     0.000000000000     2.440330350759     7.016003436600
         F            0.000000000000     0.000000000000    -0.901200273555    18.998403162730

  Nuclear repulsion =    4.275820363316551

  ==> Basis Set <==

  Basis Set: CC-PVDZ
    Blend: CC-PVDZ
    Number of shells: 12
    Number of basis functions: 28
    Number of Cartesian functions: 30
    Spherical Harmonics?: true
    Max angular momentum: 2

  ==> DFJKGrad: Density-Fitted SCF Gradients <==

    Gradient:                    1
    J tasked:                  Yes
    K tasked:                  Yes
    wK tasked:                  No
    OpenMP threads:              1
    Integrals threads:           1
    Memory [MiB]:              375
    Schwarz Cutoff:          1E-12
    Fitting Condition:       1E-10

   => Auxiliary Basis Set <=

  Basis Set: (CC-PVDZ AUX)
    Blend: CC-PVDZ-JKFIT + DEF2-UNIVERSAL-JKFIT
    Number of shells: 41
    Number of basis functions: 121
    Number of Cartesian functions: 141
    Spherical Harmonics?: true
    Max angular momentum: 3

  ==> DFT Potential <==

   => LibXC <=

    Version 6.2.2
    S. Lehtola, C. Steigemann, M. J.T. Oliveira, and M. A.L. Marques.,  SoftwareX 7, 1â€“5 (2018) (10.1016/j.softx.2017.11.002)

   => Composite Functional: B3LYP <=

    B3LYP Hyb-GGA Exchange-Correlation Functional

    P. J. Stephens, F. J. Devlin, C. F. Chabalowski, and M. J. Frisch.,  J. Phys. Chem. 98, 11623 (1994) (10.1021/j100096a001)

    Deriv               =              1
    GGA                 =           TRUE
    Meta                =          FALSE

    Exchange Hybrid     =           TRUE
    MP2 Hybrid          =          FALSE

   => Exchange Functionals <=

    0.0800   Slater exchange
    0.7200         Becke 88

   => Exact (HF) Exchange <=

    0.2000               HF

   => Correlation Functionals <=

    0.1900   Vosko, Wilk & Nusair (VWN5_RPA)
    0.8100   Lee, Yang & Parr

   => LibXC Density Thresholds  <==

    XC_HYB_GGA_XC_B3LYP:  1.00E-15

   => Molecular Quadrature <=

    Radial Scheme          =       TREUTLER
    Pruning Scheme         =           NONE
    Nuclear Scheme         =       TREUTLER

    Blocking Scheme        =         OCTREE
    BS radius alpha        =              1
    Pruning alpha          =              1
    Radial Points          =             75
    Spherical Points       =            302
    Total Points           =          44390
    Total Blocks           =            422
    Max Points             =            256
    Max Functions          =             28
    Weights Tolerance      =       1.00E-15

  -Total Gradient:
     Atom            X                  Y                   Z
    ------   -----------------  -----------------  -----------------
       1        0.000000000000     0.000000000000    -0.000022866085
       2        0.000000000000     0.000000000000     0.000008290957

*** tstop() called on Joses-MacBook-Pro-2.local at Thu Jul 17 12:50:19 2025
Module time:
	user time   =       0.50 seconds =       0.01 minutes
	system time =       1.53 seconds =       0.03 minutes
	total time  =          1 seconds =       0.02 minutes
Total time:
	user time   =      50.71 seconds =       0.85 minutes
	system time =      62.45 seconds =       1.04 minutes
	total time  =         11 seconds =       0.18 minutes

    			-----------------------------------------

    			 OPTKING 3.0: for geometry optimizations

    			     By R.A. King, Bethel University

    			        with contributions from

    			    A.V. Copan, J. Cayton, A. Heide

    			-----------------------------------------

	                            ===> Fragment 1 <==

	 Z (Atomic Numbers)          Masses                          Geom
	       3.000000             7.016003          0.00000000  0.00000000  4.61155602
	       9.000000            18.998403          0.00000000  0.00000000 -1.70302170

	 - Coordinate -           - BOHR/RAD -       - ANG/DEG -
	 R(1,2)           =         6.314578           3.341531

	        --- Internal Coordinate Step in ANG or DEG, aJ/ANG or AJ/DEG ---
	-------------------------------------------------------------------------------
	           Coordinate      Previous         Force          Change          New
	           ----------      --------        ------          ------        ------
	               R(1,2)       3.34153        0.00013        0.00081       3.34234
	-------------------------------------------------------------------------------

	                                 ==> Convergence Check <==

	Measures of convergence in internal coordinates in au.

	Criteria marked as inactive (o), active & met (*), and active & unmet ( ).

	----------------------------------------------------------------------------------------------
	   Step    Total Energy     Delta E     Max Force     RMS Force      Max Disp      RMS Disp
	----------------------------------------------------------------------------------------------
	  Convergence Criteria     1.00e-06 *    3.00e-04 *             o    1.20e-03 *             o
	----------------------------------------------------------------------------------------------
	    14    -106.59982370   -9.26e-07 *    1.56e-05 *    1.56e-05 o    1.54e-03      1.54e-03 o  ~
	----------------------------------------------------------------------------------------------

Next Geometry in Ang
	Fragment 1 (Ang)

	   Li   0.0000000000   0.0000000000   2.4407367121
	    F   0.0000000000   0.0000000000  -0.9016066349

    Final optimized geometry and variables:
    Molecular point group: c2v
    Full point group: C_inf_v

    Geometry (in Angstrom), charge = 1, multiplicity = 4:

    LI           0.000000000000     0.000000000000     2.440330350759
    F            0.000000000000     0.000000000000    -0.901200273555

    Psi4 stopped on: Thursday, 17 July 2025 12:50PM
    Psi4 wall time for execution: 0:00:11.34

*** Psi4 exiting successfully. Buy a developer a beer!
