                               Psi4 1.9.1 release

  ==> Input File <==

--------------------------------------------------------------------------
molecule {
1 4
O   0.00000        0.60000        0.00000
Si   0.00000       -0.60000        0.00000
}

set {
basis              cc-pvdz
reference          uks
maxiter            500
geom_maxiter       500
DAMPING_PERCENTAGE 1
guess              SAP
}

optimize('b3lyp')
--------------------------------------------------------------------------

    Molecular point group: c2v
  Charge       = 1
  Multiplicity = 4
  Basis Set: CC-PVDZ
    Blend: CC-PVDZ
  Basis Set: (CC-PVDZ AUX)
    Blend: CC-PVDZ-JKFIT
  @DF-UKS Final Energy:  -363.79890888103279
    Total Energy =                       -363.7989088810327871
 Dipole X            :          0.0000000            0.0000000            0.0000000
 Dipole Y            :          0.0000000            0.0000000            0.0000000
 Dipole Z            :         -0.4173962           -0.0058478           -0.4232440
 Magnitude           :                                                    0.4232440
    Molecular point group: c2v
  Basis Set: CC-PVDZ
    Blend: CC-PVDZ
  Basis Set: (CC-PVDZ AUX)
    Blend: CC-PVDZ-JKFIT
  Basis Set: CC-PVDZ
    Blend: CC-PVDZ
  Basis Set: (CC-PVDZ AUX)
    Blend: CC-PVDZ-JKFIT
  @DF-UKS Final Energy:  -363.95701053971555
    Total Energy =                       -363.9570105397155544
  Basis Set: CC-PVDZ
    Blend: CC-PVDZ
  Basis Set: (CC-PVDZ AUX)
    Blend: CC-PVDZ-JKFIT
  Basis Set: CC-PVDZ
    Blend: CC-PVDZ
  @DF-UKS Final Energy:  -364.02802009243663
    Total Energy =                       -364.0280200924366341
  @DF-UKS Final Energy:  -364.04847788550154
    Total Energy =                       -364.0484778855015406
  @DF-UKS Final Energy:  -364.05751758790660
    Total Energy =                       -364.0575175879066023
  @DF-UKS Final Energy:  -364.05973390240808
    Total Energy =                       -364.0597339024080838
  @DF-UKS Final Energy:  -364.16436494711064
    Total Energy =                       -364.1643649471106414
  @DF-UKS Final Energy:  -364.18053078140434
    Total Energy =                       -364.1805307814043431
  @DF-UKS Final Energy:  -364.18176481098214
    Total Energy =                       -364.1817648109820880
  Basis Set: (CC-PVDZ AUX)
    Blend: CC-PVDZ-JKFIT
  Basis Set: CC-PVDZ
    Blend: CC-PVDZ
  Basis Set: (CC-PVDZ AUX)
    Blend: CC-PVDZ-JKFIT
  @DF-UKS Final Energy:  -364.18188181165198
    Total Energy =                       -364.1818818116519765
  Basis Set: CC-PVDZ
    Blend: CC-PVDZ
  Basis Set: (CC-PVDZ AUX)
    Blend: CC-PVDZ-JKFIT
  Charge       = 1
  Multiplicity = 4
  Basis Set: CC-PVDZ
    Blend: CC-PVDZ
  Basis Set: (CC-PVDZ AUX)
    Blend: CC-PVDZ-JKFIT

    Orbital Energies [Eh]
    ---------------------

    Alpha Occupied:

       1A1   -66.547726     2A1   -19.572914     3A1    -5.681786
       1B2    -4.042191     4A1    -4.041512     1B1    -4.038798
       5A1    -1.326259     6A1    -0.817369     2B1    -0.748826
       7A1    -0.678049     2B2    -0.677359     3B1    -0.474039

    Alpha Virtual:

       3B2    -0.393301     8A1    -0.286435     9A1    -0.011313
       4B1     0.041873     1A2     0.042920    10A1     0.048713
       4B2     0.052061    11A1     0.059349     5B1     0.068115
       5B2     0.086536    12A1     0.235957     6B1     0.647928
      13A1     0.675757     6B2     0.688276    14A1     1.327666
      15A1     2.198369     2A2     2.200633     7B1     2.222311
       7B2     2.273776    16A1     2.471188

    Beta Occupied:

       1A1   -66.540885     2A1   -19.533466     3A1    -5.673134
       1B2    -4.037368     4A1    -4.033870     1B1    -4.021482
       5A1    -1.212466     6A1    -0.723926     2B2    -0.636948

    Beta Virtual:

       7A1    -0.521290     2B1    -0.491215     3B2    -0.359006
       3B1    -0.315221     8A1    -0.234007     9A1     0.010943
       4B2     0.057323     4B1     0.078564    10A1     0.083611
       1A2     0.106270    11A1     0.106833     5B2     0.116959
       5B1     0.148529    12A1     0.283053     6B2     0.712232
      13A1     0.735905     6B1     0.747307    14A1     1.387034
       2A2     2.290110    15A1     2.299342     7B2     2.326804
       7B1     2.350462    16A1     2.554361

    Final Occupation by Irrep:
             A1    A2    B1    B2
    DOCC [     6,    0,    1,    2 ]
    SOCC [     1,    0,    2,    0 ]
    NA   [     7,    0,    3,    2 ]
    NB   [     6,    0,    1,    2 ]

  @DF-UKS Final Energy:  -364.18188246824792

   => Energetics <=

    Nuclear Repulsion Energy =             32.6202269622893084
    One-Electron Energy =                -561.7957275259900598
    Two-Electron Energy =                 188.4361646786725828
    DFT Exchange-Correlation Energy =     -23.4425465832197055
    Empirical Dispersion Energy =           0.0000000000000000
    VV10 Nonlocal Energy =                  0.0000000000000000
    Total Energy =                       -364.1818824682479203

  UHF NO Occupations:
  HONO-2 :    2 B1 1.0000000
  HONO-1 :    3 B1 1.0000000
  HONO-0 :    7 A1 1.0000000
  LUNO+0 :    8 A1 0.0044462
  LUNO+1 :    3 B2 0.0009410
  LUNO+2 :    9 A1 0.0004706
  LUNO+3 :    4 B2 0.0000004

Computation Completed

Properties will be evaluated at   0.000000,   0.000000,   0.000000 [a0]

Properties computed using the SCF density matrix

 Multipole Moments:

 ------------------------------------------------------------------------------------
     Multipole            Electronic (a.u.)      Nuclear  (a.u.)        Total (a.u.)
 ------------------------------------------------------------------------------------

 L = 1.  Multiply by 2.5417464519 to convert [e a0] to [Debye]
 Dipole X            :          0.0000000            0.0000000            0.0000000
 Dipole Y            :          0.0000000            0.0000000            0.0000000
 Dipole Z            :         -1.1197753           -0.0088540           -1.1286294
 Magnitude           :                                                    1.1286294

 ------------------------------------------------------------------------------------

*** tstop() called on Joses-MacBook-Pro-2.local at Thu Jul 17 14:09:23 2025
Module time:
	user time   =       2.33 seconds =       0.04 minutes
	system time =       5.24 seconds =       0.09 minutes
	total time  =          1 seconds =       0.02 minutes
Total time:
	user time   =      45.64 seconds =       0.76 minutes
	system time =      89.41 seconds =       1.49 minutes
	total time  =         14 seconds =       0.23 minutes

*** tstart() called on Joses-MacBook-Pro-2.local
*** at Thu Jul 17 14:09:23 2025

         ------------------------------------------------------------
                                   SCF GRAD
                          Rob Parrish, Justin Turney,
                       Andy Simmonett, and Alex Sokolov
         ------------------------------------------------------------

  ==> Geometry <==

    Molecular point group: c2v
    Full point group: C_inf_v

    Geometry (in Angstrom), charge = 1, multiplicity = 4:

       Center              X                  Y                   Z               Mass
    ------------   -----------------  -----------------  -----------------  -----------------
         O            0.000000000000     0.000000000000     1.155999187967    15.994914619570
         SI           0.000000000000     0.000000000000    -0.660905631965    27.976926534650

  Nuclear repulsion =   32.620226962289308

  ==> Basis Set <==

  Basis Set: CC-PVDZ
    Blend: CC-PVDZ
    Number of shells: 14
    Number of basis functions: 32
    Number of Cartesian functions: 34
    Spherical Harmonics?: true
    Max angular momentum: 2

  ==> DFJKGrad: Density-Fitted SCF Gradients <==

    Gradient:                    1
    J tasked:                  Yes
    K tasked:                  Yes
    wK tasked:                  No
    OpenMP threads:              1
    Integrals threads:           1
    Memory [MiB]:              375
    Schwarz Cutoff:          1E-12
    Fitting Condition:       1E-10

   => Auxiliary Basis Set <=

  Basis Set: (CC-PVDZ AUX)
    Blend: CC-PVDZ-JKFIT
    Number of shells: 60
    Number of basis functions: 182
    Number of Cartesian functions: 211
    Spherical Harmonics?: true
    Max angular momentum: 3

  ==> DFT Potential <==

   => LibXC <=

    Version 6.2.2
    S. Lehtola, C. Steigemann, M. J.T. Oliveira, and M. A.L. Marques.,  SoftwareX 7, 1â€“5 (2018) (10.1016/j.softx.2017.11.002)

   => Composite Functional: B3LYP <=

    B3LYP Hyb-GGA Exchange-Correlation Functional

    P. J. Stephens, F. J. Devlin, C. F. Chabalowski, and M. J. Frisch.,  J. Phys. Chem. 98, 11623 (1994) (10.1021/j100096a001)

    Deriv               =              1
    GGA                 =           TRUE
    Meta                =          FALSE

    Exchange Hybrid     =           TRUE
    MP2 Hybrid          =          FALSE

   => Exchange Functionals <=

    0.0800   Slater exchange
    0.7200         Becke 88

   => Exact (HF) Exchange <=

    0.2000               HF

   => Correlation Functionals <=

    0.1900   Vosko, Wilk & Nusair (VWN5_RPA)
    0.8100   Lee, Yang & Parr

   => LibXC Density Thresholds  <==

    XC_HYB_GGA_XC_B3LYP:  1.00E-15

   => Molecular Quadrature <=

    Radial Scheme          =       TREUTLER
    Pruning Scheme         =           NONE
    Nuclear Scheme         =       TREUTLER

    Blocking Scheme        =         OCTREE
    BS radius alpha        =              1
    Pruning alpha          =              1
    Radial Points          =             75
    Spherical Points       =            302
    Total Points           =          42724
    Total Blocks           =            394
    Max Points             =            256
    Max Functions          =             32
    Weights Tolerance      =       1.00E-15

  -Total Gradient:
     Atom            X                  Y                   Z
    ------   -----------------  -----------------  -----------------
       1        0.000000000000     0.000000000000    -0.000293387354
       2        0.000000000000    -0.000000000000     0.000259683413

*** tstop() called on Joses-MacBook-Pro-2.local at Thu Jul 17 14:09:23 2025
Module time:
	user time   =       0.87 seconds =       0.01 minutes
	system time =       1.89 seconds =       0.03 minutes
	total time  =          0 seconds =       0.00 minutes
Total time:
	user time   =      46.51 seconds =       0.78 minutes
	system time =      91.31 seconds =       1.52 minutes
	total time  =         14 seconds =       0.23 minutes

    			-----------------------------------------

    			 OPTKING 3.0: for geometry optimizations

    			     By R.A. King, Bethel University

    			        with contributions from

    			    A.V. Copan, J. Cayton, A. Heide

    			-----------------------------------------

	                            ===> Fragment 1 <==

	 Z (Atomic Numbers)          Masses                          Geom
	       8.000000            15.994915          0.00000000  0.00000000  2.18452187
	      14.000000            27.976927          0.00000000  0.00000000 -1.24893064

	 - Coordinate -           - BOHR/RAD -       - ANG/DEG -
	 R(1,2)           =         3.433453           1.816905

	        --- Internal Coordinate Step in ANG or DEG, aJ/ANG or AJ/DEG ---
	-------------------------------------------------------------------------------
	           Coordinate      Previous         Force          Change          New
	           ----------      --------        ------          ------        ------
	               R(1,2)       1.81690        0.00228        0.00057       1.81748
	-------------------------------------------------------------------------------

	                                 ==> Convergence Check <==

	Measures of convergence in internal coordinates in au.

	Criteria marked as inactive (o), active & met (*), and active & unmet ( ).

	----------------------------------------------------------------------------------------------
	   Step    Total Energy     Delta E     Max Force     RMS Force      Max Disp      RMS Disp
	----------------------------------------------------------------------------------------------
	  Convergence Criteria     1.00e-06 *    3.00e-04 *             o    1.20e-03 *             o
	----------------------------------------------------------------------------------------------
	    11    -364.18188247   -6.57e-07 *    2.77e-04 *    2.77e-04 o    1.08e-03 *    1.08e-03 o  ~
	----------------------------------------------------------------------------------------------

Next Geometry in Ang
	Fragment 1 (Ang)

	    O   0.0000000000   0.0000000000   1.1562852658
	   Si   0.0000000000   0.0000000000  -0.6611917098

    Final optimized geometry and variables:
    Molecular point group: c2v
    Full point group: C_inf_v

    Geometry (in Angstrom), charge = 1, multiplicity = 4:

    O            0.000000000000     0.000000000000     1.155999187967
    SI           0.000000000000     0.000000000000    -0.660905631965

    Psi4 stopped on: Thursday, 17 July 2025 02:09PM
    Psi4 wall time for execution: 0:00:15.00

*** Psi4 exiting successfully. Buy a developer a beer!
