                               Psi4 1.9.1 release

  ==> Input File <==

--------------------------------------------------------------------------
molecule {
1 4
Ne   0.00000        0.60000        0.00000
Ar   0.00000       -0.60000        0.00000
}

set {
basis              cc-pvdz
reference          uks
maxiter            500
geom_maxiter       500
DAMPING_PERCENTAGE 1
guess              SAP
}

optimize('b3lyp')
--------------------------------------------------------------------------

    Molecular point group: c2v
  Charge       = 1
  Multiplicity = 4
  Basis Set: CC-PVDZ
    Blend: CC-PVDZ
  Basis Set: (CC-PVDZ AUX)
    Blend: CC-PVDZ-JKFIT
  @DF-UKS Final Energy:  -654.30902058421555
    Total Energy =                       -654.3090205842155456
 Dipole X            :          0.0000000            0.0000000            0.0000000
 Dipole Y            :          0.0000000            0.0000000            0.0000000
 Dipole Z            :         -0.5700964            1.5038390            0.9337426
 Magnitude           :                                                    0.9337426
    Molecular point group: c2v
  Basis Set: CC-PVDZ
    Blend: CC-PVDZ
  Basis Set: (CC-PVDZ AUX)
    Blend: CC-PVDZ-JKFIT
  Basis Set: CC-PVDZ
    Blend: CC-PVDZ
  Basis Set: (CC-PVDZ AUX)
    Blend: CC-PVDZ-JKFIT
  @DF-UKS Final Energy:  -654.67841559746080
    Total Energy =                       -654.6784155974607984
  Basis Set: CC-PVDZ
    Blend: CC-PVDZ
  Basis Set: (CC-PVDZ AUX)
    Blend: CC-PVDZ-JKFIT
  Basis Set: CC-PVDZ
    Blend: CC-PVDZ
  @DF-UKS Final Energy:  -654.87524916785685
    Total Energy =                       -654.8752491678568504
  @DF-UKS Final Energy:  -654.92607310982407
    Total Energy =                       -654.9260731098240740
  @DF-UKS Final Energy:  -654.94614132767970
    Total Energy =                       -654.9461413276796975
  @DF-UKS Final Energy:  -654.95004578860528
    Total Energy =                       -654.9500457886053937
  @DF-UKS Final Energy:  -654.95095315772062
    Total Energy =                       -654.9509531577205053
  @DF-UKS Final Energy:  -654.95123362846425
    Total Energy =                       -654.9512336284642515
  @DF-UKS Final Energy:  -654.95127431211677
    Total Energy =                       -654.9512743121167659
  Basis Set: (CC-PVDZ AUX)
    Blend: CC-PVDZ-JKFIT
  Basis Set: CC-PVDZ
    Blend: CC-PVDZ
  Basis Set: (CC-PVDZ AUX)
    Blend: CC-PVDZ-JKFIT
  @DF-UKS Final Energy:  -654.95128149755624
    Total Energy =                       -654.9512814975562378
  Basis Set: CC-PVDZ
    Blend: CC-PVDZ
  Basis Set: (CC-PVDZ AUX)
    Blend: CC-PVDZ-JKFIT
  Charge       = 1
  Multiplicity = 4
  Basis Set: CC-PVDZ
    Blend: CC-PVDZ
  Basis Set: (CC-PVDZ AUX)
    Blend: CC-PVDZ-JKFIT

    Orbital Energies [Eh]
    ---------------------

    Alpha Occupied:

       1A1  -115.674083     2A1   -31.404662     3A1   -11.686121
       1B2    -9.254645     4A1    -9.246459     1B1    -9.227052
       5A1    -1.868921     6A1    -1.490476     7A1    -1.047049
       2B2    -0.976392     2B1    -0.957833     3B2    -0.924254
       3B1    -0.874136     8A1    -0.842960     9A1     0.092131

    Alpha Virtual:

       4B2     0.184077     4B1     0.213067    10A1     0.286710
       5B2     0.303457     1A2     0.328780    11A1     0.329316
       5B1     0.341751    12A1     0.404312     6B2     1.045171
       6B1     1.050904    13A1     1.154391    14A1     1.865623
       7B2     4.292039     7B1     4.295666    15A1     4.313440
       2A2     4.314310    16A1     4.319374

    Beta Occupied:

       1A1  -115.653840     2A1   -31.391814     3A1   -11.666512
       1B2    -9.219916     1B1    -9.215417     4A1    -9.205039
       5A1    -1.839292     6A1    -1.361697     7A1    -0.958027
       2B1    -0.943857     2B2    -0.938249     3B1    -0.832207

    Beta Virtual:

       3B2    -0.719585     8A1    -0.637350     4B1     0.234524
       4B2     0.241857     9A1     0.272447    10A1     0.376863
       1A2     0.413923     5B1     0.414708    11A1     0.419233
       5B2     0.433416    12A1     0.479338     6B2     1.058575
       6B1     1.058858    13A1     1.185911    14A1     1.894072
       7B2     4.322533     7B1     4.322960    15A1     4.323476
       2A2     4.323591    16A1     4.353806

    Final Occupation by Irrep:
             A1    A2    B1    B2
    DOCC [     7,    0,    3,    2 ]
    SOCC [     2,    0,    0,    1 ]
    NA   [     9,    0,    3,    3 ]
    NB   [     7,    0,    3,    2 ]

  @DF-UKS Final Energy:  -654.95128194432777

   => Energetics <=

    Nuclear Repulsion Energy =             51.2894781416911130
    One-Electron Energy =                -999.2125344463735246
    Two-Electron Energy =                 327.6218324932408450
    DFT Exchange-Correlation Energy =     -34.6500581328862438
    Empirical Dispersion Energy =           0.0000000000000000
    VV10 Nonlocal Energy =                  0.0000000000000000
    Total Energy =                       -654.9512819443277749

  UHF NO Occupations:
  HONO-2 :    8 A1 1.0000000
  HONO-1 :    3 B2 1.0000000
  HONO-0 :    9 A1 1.0000000
  LUNO+0 :   10 A1 0.0009171
  LUNO+1 :   11 A1 0.0003085
  LUNO+2 :    4 B1 0.0001084
  LUNO+3 :    4 B2 0.0000548

Computation Completed

Properties will be evaluated at   0.000000,   0.000000,   0.000000 [a0]

Properties computed using the SCF density matrix

 Multipole Moments:

 ------------------------------------------------------------------------------------
     Multipole            Electronic (a.u.)      Nuclear  (a.u.)        Total (a.u.)
 ------------------------------------------------------------------------------------

 L = 1.  Multiply by 2.5417464519 to convert [e a0] to [Debye]
 Dipole X            :          0.0000000            0.0000000            0.0000000
 Dipole Y            :          0.0000000            0.0000000            0.0000000
 Dipole Z            :         -2.2102501            2.3273702            0.1171201
 Magnitude           :                                                    0.1171201

 ------------------------------------------------------------------------------------

*** tstop() called on Joses-MacBook-Pro-2.local at Thu Jul 17 14:43:49 2025
Module time:
	user time   =       2.94 seconds =       0.05 minutes
	system time =       3.16 seconds =       0.05 minutes
	total time  =          0 seconds =       0.00 minutes
Total time:
	user time   =      51.35 seconds =       0.86 minutes
	system time =      63.70 seconds =       1.06 minutes
	total time  =         11 seconds =       0.18 minutes

*** tstart() called on Joses-MacBook-Pro-2.local
*** at Thu Jul 17 14:43:49 2025

         ------------------------------------------------------------
                                   SCF GRAD
                          Rob Parrish, Justin Turney,
                       Andy Simmonett, and Alex Sokolov
         ------------------------------------------------------------

  ==> Geometry <==

    Molecular point group: c2v
    Full point group: C_inf_v

    Geometry (in Angstrom), charge = 1, multiplicity = 4:

       Center              X                  Y                   Z               Mass
    ------------   -----------------  -----------------  -----------------  -----------------
         NE           0.000000000000     0.000000000000     1.237863078148    19.992440176200
         AR           0.000000000000     0.000000000000    -0.619279972858    39.962383123700

  Nuclear repulsion =   51.289478141691113

  ==> Basis Set <==

  Basis Set: CC-PVDZ
    Blend: CC-PVDZ
    Number of shells: 14
    Number of basis functions: 32
    Number of Cartesian functions: 34
    Spherical Harmonics?: true
    Max angular momentum: 2

  ==> DFJKGrad: Density-Fitted SCF Gradients <==

    Gradient:                    1
    J tasked:                  Yes
    K tasked:                  Yes
    wK tasked:                  No
    OpenMP threads:              1
    Integrals threads:           1
    Memory [MiB]:              375
    Schwarz Cutoff:          1E-12
    Fitting Condition:       1E-10

   => Auxiliary Basis Set <=

  Basis Set: (CC-PVDZ AUX)
    Blend: CC-PVDZ-JKFIT
    Number of shells: 60
    Number of basis functions: 182
    Number of Cartesian functions: 211
    Spherical Harmonics?: true
    Max angular momentum: 3

  ==> DFT Potential <==

   => LibXC <=

    Version 6.2.2
    S. Lehtola, C. Steigemann, M. J.T. Oliveira, and M. A.L. Marques.,  SoftwareX 7, 1â€“5 (2018) (10.1016/j.softx.2017.11.002)

   => Composite Functional: B3LYP <=

    B3LYP Hyb-GGA Exchange-Correlation Functional

    P. J. Stephens, F. J. Devlin, C. F. Chabalowski, and M. J. Frisch.,  J. Phys. Chem. 98, 11623 (1994) (10.1021/j100096a001)

    Deriv               =              1
    GGA                 =           TRUE
    Meta                =          FALSE

    Exchange Hybrid     =           TRUE
    MP2 Hybrid          =          FALSE

   => Exchange Functionals <=

    0.0800   Slater exchange
    0.7200         Becke 88

   => Exact (HF) Exchange <=

    0.2000               HF

   => Correlation Functionals <=

    0.1900   Vosko, Wilk & Nusair (VWN5_RPA)
    0.8100   Lee, Yang & Parr

   => LibXC Density Thresholds  <==

    XC_HYB_GGA_XC_B3LYP:  1.00E-15

   => Molecular Quadrature <=

    Radial Scheme          =       TREUTLER
    Pruning Scheme         =           NONE
    Nuclear Scheme         =       TREUTLER

    Blocking Scheme        =         OCTREE
    BS radius alpha        =              1
    Pruning alpha          =              1
    Radial Points          =             75
    Spherical Points       =            302
    Total Points           =          41404
    Total Blocks           =            369
    Max Points             =            256
    Max Functions          =             32
    Weights Tolerance      =       1.00E-15

  -Total Gradient:
     Atom            X                  Y                   Z
    ------   -----------------  -----------------  -----------------
       1       -0.000000000000    -0.000000000000    -0.000031397912
       2        0.000000000000    -0.000000000000     0.000072013454

*** tstop() called on Joses-MacBook-Pro-2.local at Thu Jul 17 14:43:50 2025
Module time:
	user time   =       1.29 seconds =       0.02 minutes
	system time =       1.21 seconds =       0.02 minutes
	total time  =          1 seconds =       0.02 minutes
Total time:
	user time   =      52.65 seconds =       0.88 minutes
	system time =      64.92 seconds =       1.08 minutes
	total time  =         12 seconds =       0.20 minutes

    			-----------------------------------------

    			 OPTKING 3.0: for geometry optimizations

    			     By R.A. King, Bethel University

    			        with contributions from

    			    A.V. Copan, J. Cayton, A. Heide

    			-----------------------------------------

	                            ===> Fragment 1 <==

	 Z (Atomic Numbers)          Masses                          Geom
	      10.000000            19.992440          0.00000000  0.00000000  2.33922220
	      18.000000            39.962383          0.00000000  0.00000000 -1.17026954

	 - Coordinate -           - BOHR/RAD -       - ANG/DEG -
	 R(1,2)           =         3.509492           1.857143

	        --- Internal Coordinate Step in ANG or DEG, aJ/ANG or AJ/DEG ---
	-------------------------------------------------------------------------------
	           Coordinate      Previous         Force          Change          New
	           ----------      --------        ------          ------        ------
	               R(1,2)       1.85714        0.00043        0.00010       1.85724
	-------------------------------------------------------------------------------

	                                 ==> Convergence Check <==

	Measures of convergence in internal coordinates in au.

	Criteria marked as inactive (o), active & met (*), and active & unmet ( ).

	----------------------------------------------------------------------------------------------
	   Step    Total Energy     Delta E     Max Force     RMS Force      Max Disp      RMS Disp
	----------------------------------------------------------------------------------------------
	  Convergence Criteria     1.00e-06 *    3.00e-04 *             o    1.20e-03 *             o
	----------------------------------------------------------------------------------------------
	    11    -654.95128194   -4.47e-07 *    5.17e-05 *    5.17e-05 o    1.90e-04 *    1.90e-04 o  ~
	----------------------------------------------------------------------------------------------

Next Geometry in Ang
	Fragment 1 (Ang)

	   Ne   0.0000000000   0.0000000000   1.2379133005
	   Ar   0.0000000000   0.0000000000  -0.6193301952

    Final optimized geometry and variables:
    Molecular point group: c2v
    Full point group: C_inf_v

    Geometry (in Angstrom), charge = 1, multiplicity = 4:

    NE           0.000000000000     0.000000000000     1.237863078148
    AR           0.000000000000     0.000000000000    -0.619279972858

    Psi4 stopped on: Thursday, 17 July 2025 02:43PM
    Psi4 wall time for execution: 0:00:12.44

*** Psi4 exiting successfully. Buy a developer a beer!
