                               Psi4 1.9.1 release

  ==> Input File <==

--------------------------------------------------------------------------
molecule {
1 4
Mg   0.00000        0.60000        0.00000
Mg   0.00000       -0.60000        0.00000
}

set {
basis              cc-pvdz
reference          uks
maxiter            500
geom_maxiter       500
DAMPING_PERCENTAGE 1
guess              SAP
}

optimize('b3lyp')
--------------------------------------------------------------------------

    Molecular point group: d2h
  Charge       = 1
  Multiplicity = 4
  Basis Set: CC-PVDZ
    Blend: CC-PVDZ
  Basis Set: (CC-PVDZ AUX)
    Blend: DEF2-UNIVERSAL-JKFIT
  @DF-UKS Final Energy:  -399.03049786332400
    Total Energy =                       -399.0304978633240012
 Dipole X            :          0.0000000            0.0000000            0.0000000
 Dipole Y            :          0.0000000            0.0000000            0.0000000
 Dipole Z            :          0.0000000            0.0000000            0.0000000
 Magnitude           :                                                    0.0000000
    Molecular point group: d2h
  Basis Set: CC-PVDZ
    Blend: CC-PVDZ
  Basis Set: (CC-PVDZ AUX)
    Blend: DEF2-UNIVERSAL-JKFIT
  Basis Set: CC-PVDZ
    Blend: CC-PVDZ
  Basis Set: (CC-PVDZ AUX)
    Blend: DEF2-UNIVERSAL-JKFIT
  @DF-UKS Final Energy:  -399.03806339195626
    Total Energy =                       -399.0380633919562570
  Basis Set: CC-PVDZ
    Blend: CC-PVDZ
  Basis Set: (CC-PVDZ AUX)
    Blend: DEF2-UNIVERSAL-JKFIT
  Basis Set: CC-PVDZ
    Blend: CC-PVDZ
  @DF-UKS Final Energy:  -399.05269692952902
    Total Energy =                       -399.0526969295290769
  @DF-UKS Final Energy:  -399.10610650357506
    Total Energy =                       -399.1061065035750630
  @DF-UKS Final Energy:  -399.35643599441983
    Total Energy =                       -399.3564359944198259
  @DF-UKS Final Energy:  -399.50376489151654
    Total Energy =                       -399.5037648915165960
  @DF-UKS Final Energy:  -399.61363128860910
    Total Energy =                       -399.6136312886090991
  @DF-UKS Final Energy:  -399.68210575112880
    Total Energy =                       -399.6821057511288018
  @DF-UKS Final Energy:  -399.71581554075914
    Total Energy =                       -399.7158155407591380
  @DF-UKS Final Energy:  -399.77806777455095
    Total Energy =                       -399.7780677745509479
  @DF-UKS Final Energy:  -399.81133471335141
    Total Energy =                       -399.8113347133514708
  @DF-UKS Final Energy:  -399.81177698063533
    Total Energy =                       -399.8117769806353863
  @DF-UKS Final Energy:  -399.81540928186934
    Total Energy =                       -399.8154092818692789
  @DF-UKS Final Energy:  -399.81635801536902
    Total Energy =                       -399.8163580153690759
  @DF-UKS Final Energy:  -399.81670092800681
    Total Energy =                       -399.8167009280068669
  @DF-UKS Final Energy:  -399.81676024131752
    Total Energy =                       -399.8167602413175246
  @DF-UKS Final Energy:  -399.81677371171543
    Total Energy =                       -399.8167737117154275
  Basis Set: (CC-PVDZ AUX)
    Blend: DEF2-UNIVERSAL-JKFIT
  Basis Set: CC-PVDZ
    Blend: CC-PVDZ
  Basis Set: (CC-PVDZ AUX)
    Blend: DEF2-UNIVERSAL-JKFIT
  @DF-UKS Final Energy:  -399.81677505591557
    Total Energy =                       -399.8167750559155706
  Basis Set: CC-PVDZ
    Blend: CC-PVDZ
  Basis Set: (CC-PVDZ AUX)
    Blend: DEF2-UNIVERSAL-JKFIT
  Charge       = 1
  Multiplicity = 4
  Basis Set: CC-PVDZ
    Blend: CC-PVDZ
  Basis Set: (CC-PVDZ AUX)
    Blend: DEF2-UNIVERSAL-JKFIT

    Orbital Energies [Eh]
    ---------------------

    Alpha Occupied:

       1B2u  -47.085709     1Ag   -47.085708     2B2u   -3.361271
       2Ag    -3.361205     3Ag    -2.105052     3B2u   -2.104956
       1B3u   -2.104943     1B1g   -2.104939     1B1u   -2.103183
       1B3g   -2.103177     4Ag    -0.456737     4B2u   -0.390280
       2B1u   -0.280631

    Alpha Virtual:

       5Ag    -0.251591     2B3u   -0.235694     2B3g   -0.209101
       2B1g   -0.193933     5B2u   -0.145846     6Ag    -0.069579
       7Ag    -0.030497     6B2u   -0.019307     3B1u   -0.013853
       3B3u   -0.007612     3B3g    0.003458     3B1g    0.008873
       7B2u    0.030643     4B1u    0.046527     4B3u    0.055883
       1B2g    0.088569     8Ag     0.090979     1Au     0.109408
       8B2u    0.111931     9Ag     0.117901     4B3g    0.169391
       4B1g    0.176066     9B2u    0.296044

    Beta Occupied:

       1B2u  -47.081789     1Ag   -47.081789     2B2u   -3.354487
       2Ag    -3.354413     1B3u   -2.100746     1B1g   -2.100742
       3Ag    -2.100551     3B2u   -2.100480     1B1u   -2.096268
       1B3g   -2.096264

    Beta Virtual:

       4Ag    -0.345043     4B2u   -0.295324     5Ag    -0.197770
       2B3u   -0.193612     2B1u   -0.180700     2B1g   -0.153509
       2B3g   -0.141067     5B2u   -0.106254     6Ag    -0.038996
       7Ag    -0.003736     6B2u    0.006101     3B3u    0.010407
       3B1u    0.018275     3B1g    0.028443     3B3g    0.036182
       7B2u    0.058048     4B3u    0.094834     4B1u    0.106542
       8Ag     0.141272     1B2g    0.143975     9Ag     0.160080
       8B2u    0.163253     1Au     0.163485     4B1g    0.210838
       4B3g    0.223084     9B2u    0.332986

    Final Occupation by Irrep:
             Ag   B1g   B2g   B3g    Au   B1u   B2u   B3u
    DOCC [     3,    1,    0,    1,    0,    1,    3,    1 ]
    SOCC [     1,    0,    0,    0,    0,    1,    1,    0 ]
    NA   [     4,    1,    0,    1,    0,    2,    4,    1 ]
    NB   [     3,    1,    0,    1,    0,    1,    3,    1 ]

  @DF-UKS Final Energy:  -399.81677518605233

   => Energetics <=

    Nuclear Repulsion Energy =             21.8096604168599875
    One-Electron Energy =                -596.3085244552352151
    Two-Electron Energy =                 201.0549279940194367
    DFT Exchange-Correlation Energy =     -26.3728391416965522
    Empirical Dispersion Energy =           0.0000000000000000
    VV10 Nonlocal Energy =                  0.0000000000000000
    Total Energy =                       -399.8167751860523822

  UHF NO Occupations:
  HONO-2 :    4B2u 1.0000000
  HONO-1 :    2B1u 1.0000000
  HONO-0 :    4 Ag 1.0000000
  LUNO+0 :    2B3g 0.0000015
  LUNO+1 :    5 Ag 0.0000014
  LUNO+2 :    2B3u 0.0000010
  LUNO+3 :    2B1g 0.0000009

Computation Completed

Properties will be evaluated at   0.000000,   0.000000,   0.000000 [a0]

Properties computed using the SCF density matrix

 Multipole Moments:

 ------------------------------------------------------------------------------------
     Multipole            Electronic (a.u.)      Nuclear  (a.u.)        Total (a.u.)
 ------------------------------------------------------------------------------------

 L = 1.  Multiply by 2.5417464519 to convert [e a0] to [Debye]
 Dipole X            :          0.0000000            0.0000000            0.0000000
 Dipole Y            :          0.0000000            0.0000000            0.0000000
 Dipole Z            :          0.0000000            0.0000000            0.0000000
 Magnitude           :                                                    0.0000000

 ------------------------------------------------------------------------------------

*** tstop() called on Joses-MacBook-Pro-2.local at Thu Jul 17 15:03:52 2025
Module time:
	user time   =       6.40 seconds =       0.11 minutes
	system time =       2.77 seconds =       0.05 minutes
	total time  =          1 seconds =       0.02 minutes
Total time:
	user time   =     186.04 seconds =       3.10 minutes
	system time =      79.05 seconds =       1.32 minutes
	total time  =         25 seconds =       0.42 minutes

*** tstart() called on Joses-MacBook-Pro-2.local
*** at Thu Jul 17 15:03:52 2025

         ------------------------------------------------------------
                                   SCF GRAD
                          Rob Parrish, Justin Turney,
                       Andy Simmonett, and Alex Sokolov
         ------------------------------------------------------------

  ==> Geometry <==

    Molecular point group: d2h
    Full point group: D_inf_h

    Geometry (in Angstrom), charge = 1, multiplicity = 4:

       Center              X                  Y                   Z               Mass
    ------------   -----------------  -----------------  -----------------  -----------------
         MG          -0.000000000000     1.746967098066     0.000000000000    23.985041697000
         MG           0.000000000000    -1.746967098066     0.000000000000    23.985041697000

  Nuclear repulsion =   21.809660416859987

  ==> Basis Set <==

  Basis Set: CC-PVDZ
    Blend: CC-PVDZ
    Number of shells: 16
    Number of basis functions: 36
    Number of Cartesian functions: 38
    Spherical Harmonics?: true
    Max angular momentum: 2

  ==> DFJKGrad: Density-Fitted SCF Gradients <==

    Gradient:                    1
    J tasked:                  Yes
    K tasked:                  Yes
    wK tasked:                  No
    OpenMP threads:              1
    Integrals threads:           1
    Memory [MiB]:              375
    Schwarz Cutoff:          1E-12
    Fitting Condition:       1E-10

   => Auxiliary Basis Set <=

  Basis Set: (CC-PVDZ AUX)
    Blend: DEF2-UNIVERSAL-JKFIT
    Number of shells: 68
    Number of basis functions: 224
    Number of Cartesian functions: 274
    Spherical Harmonics?: true
    Max angular momentum: 4

  ==> DFT Potential <==

   => LibXC <=

    Version 6.2.2
    S. Lehtola, C. Steigemann, M. J.T. Oliveira, and M. A.L. Marques.,  SoftwareX 7, 1â€“5 (2018) (10.1016/j.softx.2017.11.002)

   => Composite Functional: B3LYP <=

    B3LYP Hyb-GGA Exchange-Correlation Functional

    P. J. Stephens, F. J. Devlin, C. F. Chabalowski, and M. J. Frisch.,  J. Phys. Chem. 98, 11623 (1994) (10.1021/j100096a001)

    Deriv               =              1
    GGA                 =           TRUE
    Meta                =          FALSE

    Exchange Hybrid     =           TRUE
    MP2 Hybrid          =          FALSE

   => Exchange Functionals <=

    0.0800   Slater exchange
    0.7200         Becke 88

   => Exact (HF) Exchange <=

    0.2000               HF

   => Correlation Functionals <=

    0.1900   Vosko, Wilk & Nusair (VWN5_RPA)
    0.8100   Lee, Yang & Parr

   => LibXC Density Thresholds  <==

    XC_HYB_GGA_XC_B3LYP:  1.00E-15

   => Molecular Quadrature <=

    Radial Scheme          =       TREUTLER
    Pruning Scheme         =           NONE
    Nuclear Scheme         =       TREUTLER

    Blocking Scheme        =         OCTREE
    BS radius alpha        =              1
    Pruning alpha          =              1
    Radial Points          =             75
    Spherical Points       =            302
    Total Points           =          42446
    Total Blocks           =            406
    Max Points             =            253
    Max Functions          =             36
    Weights Tolerance      =       1.00E-15

  -Total Gradient:
     Atom            X                  Y                   Z
    ------   -----------------  -----------------  -----------------
       1        0.000000000000    -0.000012736650     0.000000000000
       2       -0.000000000000     0.000012736650     0.000000000000

*** tstop() called on Joses-MacBook-Pro-2.local at Thu Jul 17 15:03:53 2025
Module time:
	user time   =       3.18 seconds =       0.05 minutes
	system time =       1.27 seconds =       0.02 minutes
	total time  =          1 seconds =       0.02 minutes
Total time:
	user time   =     189.22 seconds =       3.15 minutes
	system time =      80.33 seconds =       1.34 minutes
	total time  =         26 seconds =       0.43 minutes

    			-----------------------------------------

    			 OPTKING 3.0: for geometry optimizations

    			     By R.A. King, Bethel University

    			        with contributions from

    			    A.V. Copan, J. Cayton, A. Heide

    			-----------------------------------------

	                            ===> Fragment 1 <==

	 Z (Atomic Numbers)          Masses                          Geom
	      12.000000            23.985042         -0.00000000  3.30128937  0.00000000
	      12.000000            23.985042          0.00000000 -3.30128937  0.00000000

	 - Coordinate -           - BOHR/RAD -       - ANG/DEG -
	 R(1,2)           =         6.602579           3.493934

	        --- Internal Coordinate Step in ANG or DEG, aJ/ANG or AJ/DEG ---
	-------------------------------------------------------------------------------
	           Coordinate      Previous         Force          Change          New
	           ----------      --------        ------          ------        ------
	               R(1,2)       3.49393        0.00010        0.00142       3.49536
	-------------------------------------------------------------------------------

	                                 ==> Convergence Check <==

	Measures of convergence in internal coordinates in au.

	Criteria marked as inactive (o), active & met (*), and active & unmet ( ).

	----------------------------------------------------------------------------------------------
	   Step    Total Energy     Delta E     Max Force     RMS Force      Max Disp      RMS Disp
	----------------------------------------------------------------------------------------------
	  Convergence Criteria     1.00e-06 *    3.00e-04 *             o    1.20e-03 *             o
	----------------------------------------------------------------------------------------------
	    19    -399.81677519   -1.30e-07 *    1.27e-05 *    1.27e-05 o    2.69e-03      2.69e-03 o  ~
	----------------------------------------------------------------------------------------------

Next Geometry in Ang
	Fragment 1 (Ang)

	   Mg  -0.0000000000   1.7476794386   0.0000000000
	   Mg   0.0000000000  -1.7476794386   0.0000000000

    Final optimized geometry and variables:
    Molecular point group: d2h
    Full point group: D_inf_h

    Geometry (in Angstrom), charge = 1, multiplicity = 4:

    MG          -0.000000000000     1.746967098066     0.000000000000
    MG           0.000000000000    -1.746967098066     0.000000000000

    Psi4 stopped on: Thursday, 17 July 2025 03:03PM
    Psi4 wall time for execution: 0:00:25.98

*** Psi4 exiting successfully. Buy a developer a beer!
