                               Psi4 1.9.1 release

  ==> Input File <==

--------------------------------------------------------------------------
molecule {
1 4
C   0.00000        0.60000        0.00000
Ne   0.00000       -0.60000        0.00000
}

set {
basis              cc-pvdz
reference          uks
maxiter            500
geom_maxiter       500
DAMPING_PERCENTAGE 1
guess              SAP
}

optimize('b3lyp')
--------------------------------------------------------------------------

    Molecular point group: c2v
  Charge       = 1
  Multiplicity = 4
  Basis Set: CC-PVDZ
    Blend: CC-PVDZ
  Basis Set: (CC-PVDZ AUX)
    Blend: CC-PVDZ-JKFIT
  @DF-UKS Final Energy:  -166.12255195317519
    Total Energy =                       -166.1225519531751900
 Dipole X            :          0.0000000            0.0000000            0.0000000
 Dipole Y            :          0.0000000            0.0000000            0.0000000
 Dipole Z            :          0.1946521           -0.0032151            0.1914370
 Magnitude           :                                                    0.1914370
    Molecular point group: c2v
  Basis Set: CC-PVDZ
    Blend: CC-PVDZ
  Basis Set: (CC-PVDZ AUX)
    Blend: CC-PVDZ-JKFIT
  Basis Set: CC-PVDZ
    Blend: CC-PVDZ
  Basis Set: (CC-PVDZ AUX)
    Blend: CC-PVDZ-JKFIT
  @DF-UKS Final Energy:  -166.17585902804637
    Total Energy =                       -166.1758590280463750
  Basis Set: CC-PVDZ
    Blend: CC-PVDZ
  Basis Set: (CC-PVDZ AUX)
    Blend: CC-PVDZ-JKFIT
  Basis Set: CC-PVDZ
    Blend: CC-PVDZ
  @DF-UKS Final Energy:  -166.19041715935651
    Total Energy =                       -166.1904171593565138
  @DF-UKS Final Energy:  -166.19518250873082
    Total Energy =                       -166.1951825087307952
  @DF-UKS Final Energy:  -166.19774970038452
    Total Energy =                       -166.1977497003845201
  @DF-UKS Final Energy:  -166.19834764346470
    Total Energy =                       -166.1983476434646718
  @DF-UKS Final Energy:  -166.19850662682049
    Total Energy =                       -166.1985066268204889
  @DF-UKS Final Energy:  -166.19856100355565
    Total Energy =                       -166.1985610035556533
  Basis Set: (CC-PVDZ AUX)
    Blend: CC-PVDZ-JKFIT
  Basis Set: CC-PVDZ
    Blend: CC-PVDZ
  Basis Set: (CC-PVDZ AUX)
    Blend: CC-PVDZ-JKFIT
  @DF-UKS Final Energy:  -166.19857032358843
    Total Energy =                       -166.1985703235884273
  Basis Set: CC-PVDZ
    Blend: CC-PVDZ
  Basis Set: (CC-PVDZ AUX)
    Blend: CC-PVDZ-JKFIT
  Charge       = 1
  Multiplicity = 4
  Basis Set: CC-PVDZ
    Blend: CC-PVDZ
  Basis Set: (CC-PVDZ AUX)
    Blend: CC-PVDZ-JKFIT

    Orbital Energies [Eh]
    ---------------------

    Alpha Occupied:

       1A1   -31.472366     2A1   -10.776654     3A1    -1.923412
       4A1    -1.120675     1B2    -1.008859     1B1    -1.008859
       5A1    -0.923995     2B1    -0.667247     2B2    -0.667247

    Alpha Virtual:

       6A1    -0.460285     3B2     0.123495     3B1     0.123495
       7A1     0.138733     8A1     0.208174     4B1     0.663870
       4B2     0.663870     9A1     0.713105     1A2     0.713105
      10A1     0.871276    11A1     1.105099     5B2     1.126651
       5B1     1.126651    12A1     2.140738     2A2     4.260494
      13A1     4.260554     6B1     4.271726     6B2     4.271726
      14A1     4.390582

    Beta Occupied:

       1A1   -31.465995     2A1   -10.715728     3A1    -1.909421
       4A1    -1.062241     1B2    -0.998224     1B1    -0.998224

    Beta Virtual:

       5A1    -0.648363     2B1    -0.378075     2B2    -0.378075
       6A1    -0.352350     7A1     0.169688     3B2     0.221494
       3B1     0.221494     8A1     0.302792     4B1     0.766057
       4B2     0.766057     1A2     0.899122     9A1     0.899122
      10A1     0.972562    11A1     1.122478     5B2     1.166197
       5B1     1.166197    12A1     2.163572     2A2     4.266395
      13A1     4.266455     6B1     4.285966     6B2     4.285966
      14A1     4.408873

    Final Occupation by Irrep:
             A1    A2    B1    B2
    DOCC [     4,    0,    1,    1 ]
    SOCC [     1,    0,    1,    1 ]
    NA   [     5,    0,    2,    2 ]
    NB   [     4,    0,    1,    1 ]

  @DF-UKS Final Energy:  -166.19857115749130

   => Energetics <=

    Nuclear Repulsion Energy =             19.7841691478246098
    One-Electron Energy =                -265.1466521641321492
    Two-Electron Energy =                  93.2446852645710180
    DFT Exchange-Correlation Energy =     -14.0807734057547780
    Empirical Dispersion Energy =           0.0000000000000000
    VV10 Nonlocal Energy =                  0.0000000000000000
    Total Energy =                       -166.1985711574913012

  UHF NO Occupations:
  HONO-2 :    2 B1 1.0000000
  HONO-1 :    2 B2 1.0000000
  HONO-0 :    5 A1 1.0000000
  LUNO+0 :    6 A1 0.0003511
  LUNO+1 :    3 B2 0.0000280
  LUNO+2 :    3 B1 0.0000280
  LUNO+3 :    7 A1 0.0000054

Computation Completed

Properties will be evaluated at   0.000000,   0.000000,   0.000000 [a0]

Properties computed using the SCF density matrix

 Multipole Moments:

 ------------------------------------------------------------------------------------
     Multipole            Electronic (a.u.)      Nuclear  (a.u.)        Total (a.u.)
 ------------------------------------------------------------------------------------

 L = 1.  Multiply by 2.5417464519 to convert [e a0] to [Debye]
 Dipole X            :          0.0000000            0.0000000            0.0000000
 Dipole Y            :          0.0000000            0.0000000            0.0000000
 Dipole Z            :          0.9642389           -0.0042998            0.9599391
 Magnitude           :                                                    0.9599391

 ------------------------------------------------------------------------------------

*** tstop() called on Joses-MacBook-Pro-2.local at Thu Jul 17 13:42:02 2025
Module time:
	user time   =       2.19 seconds =       0.04 minutes
	system time =       3.83 seconds =       0.06 minutes
	total time  =          1 seconds =       0.02 minutes
Total time:
	user time   =      33.68 seconds =       0.56 minutes
	system time =      52.36 seconds =       0.87 minutes
	total time  =          8 seconds =       0.13 minutes

*** tstart() called on Joses-MacBook-Pro-2.local
*** at Thu Jul 17 13:42:02 2025

         ------------------------------------------------------------
                                   SCF GRAD
                          Rob Parrish, Justin Turney,
                       Andy Simmonett, and Alex Sokolov
         ------------------------------------------------------------

  ==> Geometry <==

    Molecular point group: c2v
    Full point group: C_inf_v

    Geometry (in Angstrom), charge = 1, multiplicity = 4:

       Center              X                  Y                   Z               Mass
    ------------   -----------------  -----------------  -----------------  -----------------
         C            0.000000000000     0.000000000000     1.002889317471    12.000000000000
         NE           0.000000000000     0.000000000000    -0.601961126485    19.992440176200

  Nuclear repulsion =   19.784169147824610

  ==> Basis Set <==

  Basis Set: CC-PVDZ
    Blend: CC-PVDZ
    Number of shells: 12
    Number of basis functions: 28
    Number of Cartesian functions: 30
    Spherical Harmonics?: true
    Max angular momentum: 2

  ==> DFJKGrad: Density-Fitted SCF Gradients <==

    Gradient:                    1
    J tasked:                  Yes
    K tasked:                  Yes
    wK tasked:                  No
    OpenMP threads:              1
    Integrals threads:           1
    Memory [MiB]:              375
    Schwarz Cutoff:          1E-12
    Fitting Condition:       1E-10

   => Auxiliary Basis Set <=

  Basis Set: (CC-PVDZ AUX)
    Blend: CC-PVDZ-JKFIT
    Number of shells: 48
    Number of basis functions: 140
    Number of Cartesian functions: 162
    Spherical Harmonics?: true
    Max angular momentum: 3

  ==> DFT Potential <==

   => LibXC <=

    Version 6.2.2
    S. Lehtola, C. Steigemann, M. J.T. Oliveira, and M. A.L. Marques.,  SoftwareX 7, 1â€“5 (2018) (10.1016/j.softx.2017.11.002)

   => Composite Functional: B3LYP <=

    B3LYP Hyb-GGA Exchange-Correlation Functional

    P. J. Stephens, F. J. Devlin, C. F. Chabalowski, and M. J. Frisch.,  J. Phys. Chem. 98, 11623 (1994) (10.1021/j100096a001)

    Deriv               =              1
    GGA                 =           TRUE
    Meta                =          FALSE

    Exchange Hybrid     =           TRUE
    MP2 Hybrid          =          FALSE

   => Exchange Functionals <=

    0.0800   Slater exchange
    0.7200         Becke 88

   => Exact (HF) Exchange <=

    0.2000               HF

   => Correlation Functionals <=

    0.1900   Vosko, Wilk & Nusair (VWN5_RPA)
    0.8100   Lee, Yang & Parr

   => LibXC Density Thresholds  <==

    XC_HYB_GGA_XC_B3LYP:  1.00E-15

   => Molecular Quadrature <=

    Radial Scheme          =       TREUTLER
    Pruning Scheme         =           NONE
    Nuclear Scheme         =       TREUTLER

    Blocking Scheme        =         OCTREE
    BS radius alpha        =              1
    Pruning alpha          =              1
    Radial Points          =             75
    Spherical Points       =            302
    Total Points           =          43323
    Total Blocks           =            386
    Max Points             =            256
    Max Functions          =             28
    Weights Tolerance      =       1.00E-15

  -Total Gradient:
     Atom            X                  Y                   Z
    ------   -----------------  -----------------  -----------------
       1        0.000000000000     0.000000000000    -0.000050586068
       2        0.000000000000     0.000000000000     0.000095627080

*** tstop() called on Joses-MacBook-Pro-2.local at Thu Jul 17 13:42:02 2025
Module time:
	user time   =       0.53 seconds =       0.01 minutes
	system time =       1.05 seconds =       0.02 minutes
	total time  =          0 seconds =       0.00 minutes
Total time:
	user time   =      34.21 seconds =       0.57 minutes
	system time =      53.42 seconds =       0.89 minutes
	total time  =          8 seconds =       0.13 minutes

    			-----------------------------------------

    			 OPTKING 3.0: for geometry optimizations

    			     By R.A. King, Bethel University

    			        with contributions from

    			    A.V. Copan, J. Cayton, A. Heide

    			-----------------------------------------

	                            ===> Fragment 1 <==

	 Z (Atomic Numbers)          Masses                          Geom
	       6.000000            12.000000          0.00000000  0.00000000  1.89518614
	      10.000000            19.992440          0.00000000  0.00000000 -1.13754167

	 - Coordinate -           - BOHR/RAD -       - ANG/DEG -
	 R(1,2)           =         3.032728           1.604850

	        --- Internal Coordinate Step in ANG or DEG, aJ/ANG or AJ/DEG ---
	-------------------------------------------------------------------------------
	           Coordinate      Previous         Force          Change          New
	           ----------      --------        ------          ------        ------
	               R(1,2)       1.60485        0.00060        0.00033       1.60518
	-------------------------------------------------------------------------------

	                                 ==> Convergence Check <==

	Measures of convergence in internal coordinates in au.

	Criteria marked as inactive (o), active & met (*), and active & unmet ( ).

	----------------------------------------------------------------------------------------------
	   Step    Total Energy     Delta E     Max Force     RMS Force      Max Disp      RMS Disp
	----------------------------------------------------------------------------------------------
	  Convergence Criteria     1.00e-06 *    3.00e-04 *             o    1.20e-03 *             o
	----------------------------------------------------------------------------------------------
	    10    -166.19857116   -8.34e-07 *    7.31e-05 *    7.31e-05 o    6.26e-04 *    6.26e-04 o  ~
	----------------------------------------------------------------------------------------------

Next Geometry in Ang
	Fragment 1 (Ang)

	    C   0.0000000000   0.0000000000   1.0030550710
	   Ne   0.0000000000   0.0000000000  -0.6021268800

    Final optimized geometry and variables:
    Molecular point group: c2v
    Full point group: C_inf_v

    Geometry (in Angstrom), charge = 1, multiplicity = 4:

    C            0.000000000000     0.000000000000     1.002889317471
    NE           0.000000000000     0.000000000000    -0.601961126485

    Psi4 stopped on: Thursday, 17 July 2025 01:42PM
    Psi4 wall time for execution: 0:00:08.82

*** Psi4 exiting successfully. Buy a developer a beer!
