                               Psi4 1.9.1 release

  ==> Input File <==

--------------------------------------------------------------------------
molecule {
1 4
Ar   0.00000        0.60000        0.00000
Ar   0.00000       -0.60000        0.00000
}

set {
basis              cc-pvdz
reference          uks
maxiter            500
geom_maxiter       500
DAMPING_PERCENTAGE 1
guess              SAP
}

optimize('b3lyp')
--------------------------------------------------------------------------

    Molecular point group: d2h
  Charge       = 1
  Multiplicity = 4
  Basis Set: CC-PVDZ
    Blend: CC-PVDZ
  Basis Set: (CC-PVDZ AUX)
    Blend: CC-PVDZ-JKFIT
  @DF-UKS Final Energy: -1052.43212312417540
    Total Energy =                      -1052.4321231241754049
 Dipole X            :          0.0000000            0.0000000            0.0000000
 Dipole Y            :          0.0000000            0.0000000            0.0000000
 Dipole Z            :          0.0000000            0.0000000            0.0000000
 Magnitude           :                                                    0.0000000
    Molecular point group: d2h
  Basis Set: CC-PVDZ
    Blend: CC-PVDZ
  Basis Set: (CC-PVDZ AUX)
    Blend: CC-PVDZ-JKFIT
  Basis Set: CC-PVDZ
    Blend: CC-PVDZ
  Basis Set: (CC-PVDZ AUX)
    Blend: CC-PVDZ-JKFIT
  @DF-UKS Final Energy: -1052.48287799332275
    Total Energy =                      -1052.4828779933227452
  Basis Set: CC-PVDZ
    Blend: CC-PVDZ
  Basis Set: (CC-PVDZ AUX)
    Blend: CC-PVDZ-JKFIT
  Basis Set: CC-PVDZ
    Blend: CC-PVDZ
  @DF-UKS Final Energy: -1052.57521218781699
    Total Energy =                      -1052.5752121878169874
  @DF-UKS Final Energy: -1052.86179432616768
    Total Energy =                      -1052.8617943261676828
  @DF-UKS Final Energy: -1053.34775536984557
    Total Energy =                      -1053.3477553698455722
  @DF-UKS Final Energy: -1053.52012619172342
    Total Energy =                      -1053.5201261917234206
  @DF-UKS Final Energy: -1053.62449730365392
    Total Energy =                      -1053.6244973036539250
  @DF-UKS Final Energy: -1053.65809380184146
    Total Energy =                      -1053.6580938018414599
  @DF-UKS Final Energy: -1053.66864292442096
    Total Energy =                      -1053.6686429244209648
  @DF-UKS Final Energy: -1053.67081754675041
    Total Energy =                      -1053.6708175467504134
  @DF-UKS Final Energy: -1053.67100782400325
    Total Energy =                      -1053.6710078240032544
  Basis Set: (CC-PVDZ AUX)
    Blend: CC-PVDZ-JKFIT
  Basis Set: CC-PVDZ
    Blend: CC-PVDZ
  Basis Set: (CC-PVDZ AUX)
    Blend: CC-PVDZ-JKFIT
  @DF-UKS Final Energy: -1053.67102587543104
    Total Energy =                      -1053.6710258754310416
  Basis Set: CC-PVDZ
    Blend: CC-PVDZ
  Basis Set: (CC-PVDZ AUX)
    Blend: CC-PVDZ-JKFIT
  Charge       = 1
  Multiplicity = 4
  Basis Set: CC-PVDZ
    Blend: CC-PVDZ
  Basis Set: (CC-PVDZ AUX)
    Blend: CC-PVDZ-JKFIT

    Orbital Energies [Eh]
    ---------------------

    Alpha Occupied:

       1B2u -115.536817     1Ag  -115.536817     2B2u  -11.553745
       2Ag   -11.553674     1B3u   -9.113765     1B1g   -9.113763
       3Ag    -9.110637     3B2u   -9.110442     1B1u   -9.098307
       1B3g   -9.098306     4Ag    -1.481492     4B2u   -1.305278
       5Ag    -0.950649     2B3u   -0.878298     2B1u   -0.844862
       2B1g   -0.776141     2B3g   -0.740218     5B2u   -0.619199
       6Ag     0.066890

    Alpha Virtual:

       3B3u    0.206061     6B2u    0.216522     3B1u    0.228176
       3B1g    0.291741     3B3g    0.310410     4B3u    0.311890
       4B1u    0.333604     7Ag     0.359323     1B2g    0.415199
       8Ag     0.415258     7B2u    0.463998     1Au     0.466455
       8B2u    0.507975     9Ag     0.540366     4B1g    0.662946
       4B3g    0.688019     9B2u    1.208573

    Beta Occupied:

       1Ag  -115.526217     1B2u -115.526216     2B2u  -11.543097
       2Ag   -11.543062     1B3u   -9.095107     1B1g   -9.095097
       1B1u   -9.091862     1B3g   -9.091854     3Ag    -9.089735
       3B2u   -9.089594     4Ag    -1.404865     4B2u   -1.228713
       5Ag    -0.856799     2B1u   -0.814004     2B3u   -0.789525
       2B3g   -0.709647

    Beta Virtual:

       2B1g   -0.630775     5B2u   -0.456286     6Ag     0.213513
       3B1u    0.243515     3B3u    0.246509     6B2u    0.263325
       3B3g    0.329108     3B1g    0.331577     4B1u    0.371573
       4B3u    0.373147     7Ag     0.393874     1B2g    0.466084
       8Ag     0.467378     1Au     0.519484     7B2u    0.520831
       8B2u    0.580069     9Ag     0.596059     4B3g    0.726073
       4B1g    0.729671     9B2u    1.271031

    Final Occupation by Irrep:
             Ag   B1g   B2g   B3g    Au   B1u   B2u   B3u
    DOCC [     5,    1,    0,    2,    0,    2,    4,    2 ]
    SOCC [     1,    1,    0,    0,    0,    0,    1,    0 ]
    NA   [     6,    2,    0,    2,    0,    2,    5,    2 ]
    NB   [     5,    1,    0,    2,    0,    2,    4,    2 ]

  @DF-UKS Final Energy: -1053.67102774160594

   => Energetics <=

    Nuclear Repulsion Energy =             91.9443285448733860
    One-Electron Energy =               -1625.2147615294338721
    Two-Electron Energy =                 529.1370915165388169
    DFT Exchange-Correlation Energy =     -49.5376862735842991
    Empirical Dispersion Energy =           0.0000000000000000
    VV10 Nonlocal Energy =                  0.0000000000000000
    Total Energy =                      -1053.6710277416059398

  UHF NO Occupations:
  HONO-2 :    2B1g 1.0000000
  HONO-1 :    6 Ag 1.0000000
  HONO-0 :    5B2u 1.0000000
  LUNO+0 :    3B3u 0.0005618
  LUNO+1 :    7 Ag 0.0003330
  LUNO+2 :    6B2u 0.0002763
  LUNO+3 :    8 Ag 0.0001680

Computation Completed

Properties will be evaluated at   0.000000,   0.000000,   0.000000 [a0]

Properties computed using the SCF density matrix

 Multipole Moments:

 ------------------------------------------------------------------------------------
     Multipole            Electronic (a.u.)      Nuclear  (a.u.)        Total (a.u.)
 ------------------------------------------------------------------------------------

 L = 1.  Multiply by 2.5417464519 to convert [e a0] to [Debye]
 Dipole X            :          0.0000000            0.0000000            0.0000000
 Dipole Y            :          0.0000000            0.0000000            0.0000000
 Dipole Z            :          0.0000000            0.0000000            0.0000000
 Magnitude           :                                                    0.0000000

 ------------------------------------------------------------------------------------

*** tstop() called on Joses-MacBook-Pro-2.local at Thu Jul 17 16:02:45 2025
Module time:
	user time   =       6.07 seconds =       0.10 minutes
	system time =       2.20 seconds =       0.04 minutes
	total time  =          1 seconds =       0.02 minutes
Total time:
	user time   =     139.94 seconds =       2.33 minutes
	system time =      42.87 seconds =       0.71 minutes
	total time  =         17 seconds =       0.28 minutes

*** tstart() called on Joses-MacBook-Pro-2.local
*** at Thu Jul 17 16:02:45 2025

         ------------------------------------------------------------
                                   SCF GRAD
                          Rob Parrish, Justin Turney,
                       Andy Simmonett, and Alex Sokolov
         ------------------------------------------------------------

  ==> Geometry <==

    Molecular point group: d2h
    Full point group: D_inf_h

    Geometry (in Angstrom), charge = 1, multiplicity = 4:

       Center              X                  Y                   Z               Mass
    ------------   -----------------  -----------------  -----------------  -----------------
         AR          -0.000000000000     0.932376248598     0.000000000000    39.962383123700
         AR           0.000000000000    -0.932376248598     0.000000000000    39.962383123700

  Nuclear repulsion =   91.944328544873386

  ==> Basis Set <==

  Basis Set: CC-PVDZ
    Blend: CC-PVDZ
    Number of shells: 16
    Number of basis functions: 36
    Number of Cartesian functions: 38
    Spherical Harmonics?: true
    Max angular momentum: 2

  ==> DFJKGrad: Density-Fitted SCF Gradients <==

    Gradient:                    1
    J tasked:                  Yes
    K tasked:                  Yes
    wK tasked:                  No
    OpenMP threads:              1
    Integrals threads:           1
    Memory [MiB]:              375
    Schwarz Cutoff:          1E-12
    Fitting Condition:       1E-10

   => Auxiliary Basis Set <=

  Basis Set: (CC-PVDZ AUX)
    Blend: CC-PVDZ-JKFIT
    Number of shells: 72
    Number of basis functions: 224
    Number of Cartesian functions: 260
    Spherical Harmonics?: true
    Max angular momentum: 3

  ==> DFT Potential <==

   => LibXC <=

    Version 6.2.2
    S. Lehtola, C. Steigemann, M. J.T. Oliveira, and M. A.L. Marques.,  SoftwareX 7, 1â€“5 (2018) (10.1016/j.softx.2017.11.002)

   => Composite Functional: B3LYP <=

    B3LYP Hyb-GGA Exchange-Correlation Functional

    P. J. Stephens, F. J. Devlin, C. F. Chabalowski, and M. J. Frisch.,  J. Phys. Chem. 98, 11623 (1994) (10.1021/j100096a001)

    Deriv               =              1
    GGA                 =           TRUE
    Meta                =          FALSE

    Exchange Hybrid     =           TRUE
    MP2 Hybrid          =          FALSE

   => Exchange Functionals <=

    0.0800   Slater exchange
    0.7200         Becke 88

   => Exact (HF) Exchange <=

    0.2000               HF

   => Correlation Functionals <=

    0.1900   Vosko, Wilk & Nusair (VWN5_RPA)
    0.8100   Lee, Yang & Parr

   => LibXC Density Thresholds  <==

    XC_HYB_GGA_XC_B3LYP:  1.00E-15

   => Molecular Quadrature <=

    Radial Scheme          =       TREUTLER
    Pruning Scheme         =           NONE
    Nuclear Scheme         =       TREUTLER

    Blocking Scheme        =         OCTREE
    BS radius alpha        =              1
    Pruning alpha          =              1
    Radial Points          =             75
    Spherical Points       =            302
    Total Points           =          39072
    Total Blocks           =            366
    Max Points             =            256
    Max Functions          =             36
    Weights Tolerance      =       1.00E-15

  -Total Gradient:
     Atom            X                  Y                   Z
    ------   -----------------  -----------------  -----------------
       1        0.000000000000    -0.000286655511     0.000000000000
       2       -0.000000000000     0.000286655511     0.000000000000

*** tstop() called on Joses-MacBook-Pro-2.local at Thu Jul 17 16:02:45 2025
Module time:
	user time   =       2.02 seconds =       0.03 minutes
	system time =       1.10 seconds =       0.02 minutes
	total time  =          0 seconds =       0.00 minutes
Total time:
	user time   =     141.96 seconds =       2.37 minutes
	system time =      43.98 seconds =       0.73 minutes
	total time  =         17 seconds =       0.28 minutes

    			-----------------------------------------

    			 OPTKING 3.0: for geometry optimizations

    			     By R.A. King, Bethel University

    			        with contributions from

    			    A.V. Copan, J. Cayton, A. Heide

    			-----------------------------------------

	                            ===> Fragment 1 <==

	 Z (Atomic Numbers)          Masses                          Geom
	      18.000000            39.962383         -0.00000000  1.76193576  0.00000000
	      18.000000            39.962383          0.00000000 -1.76193576  0.00000000

	 - Coordinate -           - BOHR/RAD -       - ANG/DEG -
	 R(1,2)           =         3.523872           1.864752

	        --- Internal Coordinate Step in ANG or DEG, aJ/ANG or AJ/DEG ---
	-------------------------------------------------------------------------------
	           Coordinate      Previous         Force          Change          New
	           ----------      --------        ------          ------        ------
	               R(1,2)       1.86475        0.00236        0.00025       1.86500
	-------------------------------------------------------------------------------

	                                 ==> Convergence Check <==

	Measures of convergence in internal coordinates in au.

	Criteria marked as inactive (o), active & met (*), and active & unmet ( ).

	----------------------------------------------------------------------------------------------
	   Step    Total Energy     Delta E     Max Force     RMS Force      Max Disp      RMS Disp
	----------------------------------------------------------------------------------------------
	  Convergence Criteria     1.00e-06 *    3.00e-04 *             o    1.20e-03 *             o
	----------------------------------------------------------------------------------------------
	    13   -1053.67102774   -1.87e-06      2.87e-04 *    2.87e-04 o    4.68e-04 *    4.68e-04 o  ~
	----------------------------------------------------------------------------------------------

Next Geometry in Ang
	Fragment 1 (Ang)

	   Ar  -0.0000000000   0.9325001280   0.0000000000
	   Ar   0.0000000000  -0.9325001280   0.0000000000

    Final optimized geometry and variables:
    Molecular point group: d2h
    Full point group: D_inf_h

    Geometry (in Angstrom), charge = 1, multiplicity = 4:

    AR          -0.000000000000     0.932376248598     0.000000000000
    AR           0.000000000000    -0.932376248598     0.000000000000

    Psi4 stopped on: Thursday, 17 July 2025 04:02PM
    Psi4 wall time for execution: 0:00:18.24

*** Psi4 exiting successfully. Buy a developer a beer!
