                               Psi4 1.9.1 release

  ==> Input File <==

--------------------------------------------------------------------------
molecule {
1 4
F   0.00000        0.60000        0.00000
F   0.00000       -0.60000        0.00000
}

set {
basis              cc-pvdz
reference          uks
maxiter            500
geom_maxiter       500
DAMPING_PERCENTAGE 1
guess              SAP
}

optimize('b3lyp')
--------------------------------------------------------------------------

    Molecular point group: d2h
  Charge       = 1
  Multiplicity = 4
  Basis Set: CC-PVDZ
    Blend: CC-PVDZ
  Basis Set: (CC-PVDZ AUX)
    Blend: CC-PVDZ-JKFIT
  @DF-UKS Final Energy:  -198.71258907391231
    Total Energy =                       -198.7125890739123122
 Dipole X            :          0.0000000            0.0000000            0.0000000
 Dipole Y            :          0.0000000            0.0000000            0.0000000
 Dipole Z            :          0.0000000            0.0000000            0.0000000
 Magnitude           :                                                    0.0000000
    Molecular point group: d2h
  Basis Set: CC-PVDZ
    Blend: CC-PVDZ
  Basis Set: (CC-PVDZ AUX)
    Blend: CC-PVDZ-JKFIT
  Basis Set: CC-PVDZ
    Blend: CC-PVDZ
  Basis Set: (CC-PVDZ AUX)
    Blend: CC-PVDZ-JKFIT
  @DF-UKS Final Energy:  -198.87569726826786
    Total Energy =                       -198.8756972682678565
  Basis Set: CC-PVDZ
    Blend: CC-PVDZ
  Basis Set: (CC-PVDZ AUX)
    Blend: CC-PVDZ-JKFIT
  Basis Set: CC-PVDZ
    Blend: CC-PVDZ
  @DF-UKS Final Energy:  -198.88580982381799
    Total Energy =                       -198.8858098238179934
  @DF-UKS Final Energy:  -198.89258693893407
    Total Energy =                       -198.8925869389340733
  @DF-UKS Final Energy:  -198.89351099789505
    Total Energy =                       -198.8935109978950493
  @DF-UKS Final Energy:  -198.89366263282037
    Total Energy =                       -198.8936626328203658
  @DF-UKS Final Energy:  -198.89368977043827
    Total Energy =                       -198.8936897704382432
  Basis Set: (CC-PVDZ AUX)
    Blend: CC-PVDZ-JKFIT
  Basis Set: CC-PVDZ
    Blend: CC-PVDZ
  Basis Set: (CC-PVDZ AUX)
    Blend: CC-PVDZ-JKFIT
  @DF-UKS Final Energy:  -198.89369529333334
    Total Energy =                       -198.8936952933333373
  Basis Set: CC-PVDZ
    Blend: CC-PVDZ
  Basis Set: (CC-PVDZ AUX)
    Blend: CC-PVDZ-JKFIT
  Charge       = 1
  Multiplicity = 4
  Basis Set: CC-PVDZ
    Blend: CC-PVDZ
  Basis Set: (CC-PVDZ AUX)
    Blend: CC-PVDZ-JKFIT

    Orbital Energies [Eh]
    ---------------------

    Alpha Occupied:

       1B2u  -25.348419     1Ag   -25.348363     2Ag    -1.791512
       2B2u   -1.684751     3Ag    -1.083517     1B3u   -1.020425
       1B1u   -1.020425     1B1g   -0.964242     1B3g   -0.964242
       3B2u   -0.882481

    Alpha Virtual:

       2B1u    0.554103     2B3u    0.554103     4B2u    0.694390
       2B3g    0.766764     2B1g    0.766764     4Ag     0.767409
       5Ag     0.907732     5B2u    1.480851     6Ag     2.810679
       3B3u    2.922324     3B1u    2.922324     1B2g    2.965728
       7Ag     2.965732     1Au     2.973975     6B2u    2.973979
       3B1g    3.034674     3B3g    3.034674     7B2u    3.484942

    Beta Occupied:

       1Ag   -25.294165     1B2u  -25.294118     2Ag    -1.658368
       2B2u   -1.536117     3Ag    -0.933962     1B3u   -0.864182
       1B1u   -0.864182

    Beta Virtual:

       1B1g   -0.735906     1B3g   -0.735906     3B2u   -0.634979
       2B1u    0.625076     2B3u    0.625076     4B2u    0.758520
       2B3g    0.835134     2B1g    0.835134     4Ag     0.846885
       5Ag     0.974517     5B2u    1.554024     6Ag     2.916454
       3B3u    3.030060     3B1u    3.030060     1B2g    3.075524
       7Ag     3.075529     1Au     3.085711     6B2u    3.085716
       3B1g    3.145234     3B3g    3.145234     7B2u    3.589496

    Final Occupation by Irrep:
             Ag   B1g   B2g   B3g    Au   B1u   B2u   B3u
    DOCC [     3,    0,    0,    0,    0,    1,    2,    1 ]
    SOCC [     0,    1,    0,    1,    0,    0,    1,    0 ]
    NA   [     3,    1,    0,    1,    0,    1,    3,    1 ]
    NB   [     3,    0,    0,    0,    0,    1,    2,    1 ]

  @DF-UKS Final Energy:  -198.89369591321292

   => Energetics <=

    Nuclear Repulsion Energy =             26.0314332026044184
    One-Electron Energy =                -321.5711168128617601
    Two-Electron Energy =                 112.9885579210898356
    DFT Exchange-Correlation Energy =     -16.3425702240454243
    Empirical Dispersion Energy =           0.0000000000000000
    VV10 Nonlocal Energy =                  0.0000000000000000
    Total Energy =                       -198.8936959132129232

  UHF NO Occupations:
  HONO-2 :    1B1g 1.0000000
  HONO-1 :    1B3g 1.0000000
  HONO-0 :    3B2u 1.0000000
  LUNO+0 :    2B3u 0.0015160
  LUNO+1 :    2B1u 0.0015160
  LUNO+2 :    4 Ag 0.0013536
  LUNO+3 :    5 Ag 0.0002419

Computation Completed

Properties will be evaluated at   0.000000,   0.000000,   0.000000 [a0]

Properties computed using the SCF density matrix

 Multipole Moments:

 ------------------------------------------------------------------------------------
     Multipole            Electronic (a.u.)      Nuclear  (a.u.)        Total (a.u.)
 ------------------------------------------------------------------------------------

 L = 1.  Multiply by 2.5417464519 to convert [e a0] to [Debye]
 Dipole X            :          0.0000000            0.0000000            0.0000000
 Dipole Y            :          0.0000000            0.0000000            0.0000000
 Dipole Z            :          0.0000000            0.0000000            0.0000000
 Magnitude           :                                                    0.0000000

 ------------------------------------------------------------------------------------

*** tstop() called on Joses-MacBook-Pro-2.local at Thu Jul 17 14:24:49 2025
Module time:
	user time   =       2.77 seconds =       0.05 minutes
	system time =       2.32 seconds =       0.04 minutes
	total time  =          0 seconds =       0.00 minutes
Total time:
	user time   =      32.07 seconds =       0.53 minutes
	system time =      38.92 seconds =       0.65 minutes
	total time  =          7 seconds =       0.12 minutes

*** tstart() called on Joses-MacBook-Pro-2.local
*** at Thu Jul 17 14:24:49 2025

         ------------------------------------------------------------
                                   SCF GRAD
                          Rob Parrish, Justin Turney,
                       Andy Simmonett, and Alex Sokolov
         ------------------------------------------------------------

  ==> Geometry <==

    Molecular point group: d2h
    Full point group: D_inf_h

    Geometry (in Angstrom), charge = 1, multiplicity = 4:

       Center              X                  Y                   Z               Mass
    ------------   -----------------  -----------------  -----------------  -----------------
         F           -0.000000000000     0.823299926106     0.000000000000    18.998403162730
         F            0.000000000000    -0.823299926106     0.000000000000    18.998403162730

  Nuclear repulsion =   26.031433202604418

  ==> Basis Set <==

  Basis Set: CC-PVDZ
    Blend: CC-PVDZ
    Number of shells: 12
    Number of basis functions: 28
    Number of Cartesian functions: 30
    Spherical Harmonics?: true
    Max angular momentum: 2

  ==> DFJKGrad: Density-Fitted SCF Gradients <==

    Gradient:                    1
    J tasked:                  Yes
    K tasked:                  Yes
    wK tasked:                  No
    OpenMP threads:              1
    Integrals threads:           1
    Memory [MiB]:              375
    Schwarz Cutoff:          1E-12
    Fitting Condition:       1E-10

   => Auxiliary Basis Set <=

  Basis Set: (CC-PVDZ AUX)
    Blend: CC-PVDZ-JKFIT
    Number of shells: 48
    Number of basis functions: 140
    Number of Cartesian functions: 162
    Spherical Harmonics?: true
    Max angular momentum: 3

  ==> DFT Potential <==

   => LibXC <=

    Version 6.2.2
    S. Lehtola, C. Steigemann, M. J.T. Oliveira, and M. A.L. Marques.,  SoftwareX 7, 1â€“5 (2018) (10.1016/j.softx.2017.11.002)

   => Composite Functional: B3LYP <=

    B3LYP Hyb-GGA Exchange-Correlation Functional

    P. J. Stephens, F. J. Devlin, C. F. Chabalowski, and M. J. Frisch.,  J. Phys. Chem. 98, 11623 (1994) (10.1021/j100096a001)

    Deriv               =              1
    GGA                 =           TRUE
    Meta                =          FALSE

    Exchange Hybrid     =           TRUE
    MP2 Hybrid          =          FALSE

   => Exchange Functionals <=

    0.0800   Slater exchange
    0.7200         Becke 88

   => Exact (HF) Exchange <=

    0.2000               HF

   => Correlation Functionals <=

    0.1900   Vosko, Wilk & Nusair (VWN5_RPA)
    0.8100   Lee, Yang & Parr

   => LibXC Density Thresholds  <==

    XC_HYB_GGA_XC_B3LYP:  1.00E-15

   => Molecular Quadrature <=

    Radial Scheme          =       TREUTLER
    Pruning Scheme         =           NONE
    Nuclear Scheme         =       TREUTLER

    Blocking Scheme        =         OCTREE
    BS radius alpha        =              1
    Pruning alpha          =              1
    Radial Points          =             75
    Spherical Points       =            302
    Total Points           =          42068
    Total Blocks           =            380
    Max Points             =            256
    Max Functions          =             28
    Weights Tolerance      =       1.00E-15

  -Total Gradient:
     Atom            X                  Y                   Z
    ------   -----------------  -----------------  -----------------
       1        0.000000000000    -0.000075639881     0.000000000000
       2       -0.000000000000     0.000075639881    -0.000000000000

*** tstop() called on Joses-MacBook-Pro-2.local at Thu Jul 17 14:24:49 2025
Module time:
	user time   =       0.50 seconds =       0.01 minutes
	system time =       1.03 seconds =       0.02 minutes
	total time  =          0 seconds =       0.00 minutes
Total time:
	user time   =      32.57 seconds =       0.54 minutes
	system time =      39.95 seconds =       0.67 minutes
	total time  =          7 seconds =       0.12 minutes

    			-----------------------------------------

    			 OPTKING 3.0: for geometry optimizations

    			     By R.A. King, Bethel University

    			        with contributions from

    			    A.V. Copan, J. Cayton, A. Heide

    			-----------------------------------------

	                            ===> Fragment 1 <==

	 Z (Atomic Numbers)          Masses                          Geom
	       9.000000            18.998403         -0.00000000  1.55581138  0.00000000
	       9.000000            18.998403          0.00000000 -1.55581138  0.00000000

	 - Coordinate -           - BOHR/RAD -       - ANG/DEG -
	 R(1,2)           =         3.111623           1.646600

	        --- Internal Coordinate Step in ANG or DEG, aJ/ANG or AJ/DEG ---
	-------------------------------------------------------------------------------
	           Coordinate      Previous         Force          Change          New
	           ----------      --------        ------          ------        ------
	               R(1,2)       1.64660        0.00062        0.00020       1.64680
	-------------------------------------------------------------------------------

	                                 ==> Convergence Check <==

	Measures of convergence in internal coordinates in au.

	Criteria marked as inactive (o), active & met (*), and active & unmet ( ).

	----------------------------------------------------------------------------------------------
	   Step    Total Energy     Delta E     Max Force     RMS Force      Max Disp      RMS Disp
	----------------------------------------------------------------------------------------------
	  Convergence Criteria     1.00e-06 *    3.00e-04 *             o    1.20e-03 *             o
	----------------------------------------------------------------------------------------------
	     9    -198.89369591   -6.20e-07 *    7.56e-05 *    7.56e-05 o    3.74e-04 *    3.74e-04 o  ~
	----------------------------------------------------------------------------------------------

Next Geometry in Ang
	Fragment 1 (Ang)

	    F  -0.0000000000   0.8233987549   0.0000000000
	    F   0.0000000000  -0.8233987549   0.0000000000

    Final optimized geometry and variables:
    Molecular point group: d2h
    Full point group: D_inf_h

    Geometry (in Angstrom), charge = 1, multiplicity = 4:

    F           -0.000000000000     0.823299926106     0.000000000000
    F            0.000000000000    -0.823299926106     0.000000000000

    Psi4 stopped on: Thursday, 17 July 2025 02:24PM
    Psi4 wall time for execution: 0:00:07.48

*** Psi4 exiting successfully. Buy a developer a beer!
