                               Psi4 1.9.1 release

  ==> Input File <==

--------------------------------------------------------------------------
molecule {
1 4
Li   0.00000        0.60000        0.00000
Cl   0.00000       -0.60000        0.00000
}

set {
basis              cc-pvdz
reference          uks
maxiter            500
geom_maxiter       500
DAMPING_PERCENTAGE 1
guess              SAP
}

optimize('b3lyp')
--------------------------------------------------------------------------

    Molecular point group: c2v
  Charge       = 1
  Multiplicity = 4
  Basis Set: CC-PVDZ
    Blend: CC-PVDZ
  Basis Set: (CC-PVDZ AUX)
    Blend: CC-PVDZ-JKFIT + DEF2-UNIVERSAL-JKFIT
  @DF-UKS Final Energy:  -466.58505581383594
    Total Energy =                       -466.5850558138359361
 Dipole X            :          0.0000000            0.0000000            0.0000000
 Dipole Y            :          0.0000000            0.0000000            0.0000000
 Dipole Z            :         -0.3581180           -0.7759044           -1.1340224
 Magnitude           :                                                    1.1340224
    Molecular point group: c2v
  Basis Set: CC-PVDZ
    Blend: CC-PVDZ
  Basis Set: (CC-PVDZ AUX)
    Blend: CC-PVDZ-JKFIT + DEF2-UNIVERSAL-JKFIT
  Basis Set: CC-PVDZ
    Blend: CC-PVDZ
  Basis Set: (CC-PVDZ AUX)
    Blend: CC-PVDZ-JKFIT + DEF2-UNIVERSAL-JKFIT
  @DF-UKS Final Energy:  -466.74180656240503
    Total Energy =                       -466.7418065624050314
  Basis Set: CC-PVDZ
    Blend: CC-PVDZ
  Basis Set: (CC-PVDZ AUX)
    Blend: CC-PVDZ-JKFIT + DEF2-UNIVERSAL-JKFIT
  Basis Set: CC-PVDZ
    Blend: CC-PVDZ
  @DF-UKS Final Energy:  -466.87483031941690
    Total Energy =                       -466.8748303194169011
  @DF-UKS Final Energy:  -466.96466367097082
    Total Energy =                       -466.9646636709708218
  @DF-UKS Final Energy:  -467.03061510662599
    Total Energy =                       -467.0306151066259872
  @DF-UKS Final Energy:  -467.07637126994302
    Total Energy =                       -467.0763712699430243
  @DF-UKS Final Energy:  -467.11673061129625
    Total Energy =                       -467.1167306112962478
  @DF-UKS Final Energy:  -467.12544230762057
    Total Energy =                       -467.1254423076205740
  @DF-UKS Final Energy:  -467.15776038598199
    Total Energy =                       -467.1577603859819874
  @DF-UKS Final Energy:  -467.16123830280765
    Total Energy =                       -467.1612383028076465
  @DF-UKS Final Energy:  -467.17525944585788
    Total Energy =                       -467.1752594458578756
  @DF-UKS Final Energy:  -467.17620935365585
    Total Energy =                       -467.1762093536558496
  @DF-UKS Final Energy:  -467.18174205359264
    Total Energy =                       -467.1817420535926431
  @DF-UKS Final Energy:  -467.18193607888634
    Total Energy =                       -467.1819360788863378
  @DF-UKS Final Energy:  -467.18369257521510
    Total Energy =                       -467.1836925752151046
  @DF-UKS Final Energy:  -467.18400847787171
    Total Energy =                       -467.1840084778716573
  @DF-UKS Final Energy:  -467.18405472746014
    Total Energy =                       -467.1840547274601363
  Basis Set: (CC-PVDZ AUX)
    Blend: CC-PVDZ-JKFIT + DEF2-UNIVERSAL-JKFIT
  Basis Set: CC-PVDZ
    Blend: CC-PVDZ
  Basis Set: (CC-PVDZ AUX)
    Blend: CC-PVDZ-JKFIT + DEF2-UNIVERSAL-JKFIT
  @DF-UKS Final Energy:  -467.18405628253049
    Total Energy =                       -467.1840562825304914
  Basis Set: CC-PVDZ
    Blend: CC-PVDZ
  Basis Set: (CC-PVDZ AUX)
    Blend: CC-PVDZ-JKFIT + DEF2-UNIVERSAL-JKFIT
  Charge       = 1
  Multiplicity = 4
  Basis Set: CC-PVDZ
    Blend: CC-PVDZ
  Basis Set: (CC-PVDZ AUX)
    Blend: CC-PVDZ-JKFIT + DEF2-UNIVERSAL-JKFIT

    Orbital Energies [Eh]
    ---------------------

    Alpha Occupied:

       1A1  -102.045079     2A1    -9.951025     1B2    -7.720352
       3A1    -7.720294     1B1    -7.694031     4A1    -2.172330
       5A1    -1.259228     2B2    -0.782374     6A1    -0.781214
       2B1    -0.723373     7A1    -0.274233

    Alpha Virtual:

       8A1    -0.153365     3B2    -0.149126     3B1    -0.148117
       9A1    -0.078366     4B2    -0.036842     4B1    -0.035891
      10A1    -0.010417    11A1     0.067330     5B2     0.082338
       5B1     0.084890     1A2     0.101541    12A1     0.101543
       6B2     0.207980    13A1     0.217423     6B1     0.237250
       7B2     0.250855    14A1     0.258293     2A2     0.290981
       7B1     0.295141    15A1     0.308197    16A1     0.388619

    Beta Occupied:

       1A1  -102.029683     2A1    -9.935883     1B2    -7.691153
       3A1    -7.690838     1B1    -7.684945     4A1    -2.166108
       5A1    -1.146062     2B1    -0.688750

    Beta Virtual:

       2B2    -0.590995     6A1    -0.589572     7A1    -0.187829
       8A1    -0.134193     3B1    -0.116385     3B2    -0.116187
       9A1    -0.046110     4B2    -0.025386     4B1    -0.025227
      10A1    -0.003867    11A1     0.104374     5B1     0.122859
       5B2     0.123704     1A2     0.137161    12A1     0.137233
       6B1     0.251387     6B2     0.255192    13A1     0.267276
       2A2     0.359746     7B1     0.363392    14A1     0.364767
      15A1     0.374608     7B2     0.377293    16A1     0.435723

    Final Occupation by Irrep:
             A1    A2    B1    B2
    DOCC [     5,    0,    2,    1 ]
    SOCC [     2,    0,    0,    1 ]
    NA   [     7,    0,    2,    2 ]
    NB   [     5,    0,    2,    1 ]

  @DF-UKS Final Energy:  -467.18405632032767

   => Energetics <=

    Nuclear Repulsion Energy =              6.7474866236264956
    One-Electron Energy =                -650.6804114983526688
    Two-Electron Energy =                 200.6790765902977967
    DFT Exchange-Correlation Energy =     -23.9302080358993585
    Empirical Dispersion Energy =           0.0000000000000000
    VV10 Nonlocal Energy =                  0.0000000000000000
    Total Energy =                       -467.1840563203277270

  UHF NO Occupations:
  HONO-2 :    6 A1 1.0000000
  HONO-1 :    7 A1 1.0000000
  HONO-0 :    2 B2 1.0000000
  LUNO+0 :    8 A1 0.0010077
  LUNO+1 :    3 B1 0.0001196
  LUNO+2 :    9 A1 0.0000007
  LUNO+3 :   10 A1 0.0000000

Computation Completed

Properties will be evaluated at   0.000000,   0.000000,   0.000000 [a0]

Properties computed using the SCF density matrix

 Multipole Moments:

 ------------------------------------------------------------------------------------
     Multipole            Electronic (a.u.)      Nuclear  (a.u.)        Total (a.u.)
 ------------------------------------------------------------------------------------

 L = 1.  Multiply by 2.5417464519 to convert [e a0] to [Debye]
 Dipole X            :          0.0000000            0.0000000            0.0000000
 Dipole Y            :          0.0000000            0.0000000            0.0000000
 Dipole Z            :          3.1969169           -2.5861650            0.6107519
 Magnitude           :                                                    0.6107519

 ------------------------------------------------------------------------------------

*** tstop() called on Joses-MacBook-Pro-2.local at Thu Jul 17 12:57:52 2025
Module time:
	user time   =       2.17 seconds =       0.04 minutes
	system time =       3.52 seconds =       0.06 minutes
	total time  =          0 seconds =       0.00 minutes
Total time:
	user time   =      78.58 seconds =       1.31 minutes
	system time =     105.24 seconds =       1.75 minutes
	total time  =         17 seconds =       0.28 minutes

*** tstart() called on Joses-MacBook-Pro-2.local
*** at Thu Jul 17 12:57:52 2025

         ------------------------------------------------------------
                                   SCF GRAD
                          Rob Parrish, Justin Turney,
                       Andy Simmonett, and Alex Sokolov
         ------------------------------------------------------------

  ==> Geometry <==

    Molecular point group: c2v
    Full point group: C_inf_v

    Geometry (in Angstrom), charge = 1, multiplicity = 4:

       Center              X                  Y                   Z               Mass
    ------------   -----------------  -----------------  -----------------  -----------------
         LI           0.000000000000     0.000000000000     3.331332569852     7.016003436600
         CL           0.000000000000     0.000000000000    -0.668384546988    34.968852682000

  Nuclear repulsion =    6.747486623626496

  ==> Basis Set <==

  Basis Set: CC-PVDZ
    Blend: CC-PVDZ
    Number of shells: 14
    Number of basis functions: 32
    Number of Cartesian functions: 34
    Spherical Harmonics?: true
    Max angular momentum: 2

  ==> DFJKGrad: Density-Fitted SCF Gradients <==

    Gradient:                    1
    J tasked:                  Yes
    K tasked:                  Yes
    wK tasked:                  No
    OpenMP threads:              1
    Integrals threads:           1
    Memory [MiB]:              375
    Schwarz Cutoff:          1E-12
    Fitting Condition:       1E-10

   => Auxiliary Basis Set <=

  Basis Set: (CC-PVDZ AUX)
    Blend: CC-PVDZ-JKFIT + DEF2-UNIVERSAL-JKFIT
    Number of shells: 53
    Number of basis functions: 163
    Number of Cartesian functions: 190
    Spherical Harmonics?: true
    Max angular momentum: 3

  ==> DFT Potential <==

   => LibXC <=

    Version 6.2.2
    S. Lehtola, C. Steigemann, M. J.T. Oliveira, and M. A.L. Marques.,  SoftwareX 7, 1â€“5 (2018) (10.1016/j.softx.2017.11.002)

   => Composite Functional: B3LYP <=

    B3LYP Hyb-GGA Exchange-Correlation Functional

    P. J. Stephens, F. J. Devlin, C. F. Chabalowski, and M. J. Frisch.,  J. Phys. Chem. 98, 11623 (1994) (10.1021/j100096a001)

    Deriv               =              1
    GGA                 =           TRUE
    Meta                =          FALSE

    Exchange Hybrid     =           TRUE
    MP2 Hybrid          =          FALSE

   => Exchange Functionals <=

    0.0800   Slater exchange
    0.7200         Becke 88

   => Exact (HF) Exchange <=

    0.2000               HF

   => Correlation Functionals <=

    0.1900   Vosko, Wilk & Nusair (VWN5_RPA)
    0.8100   Lee, Yang & Parr

   => LibXC Density Thresholds  <==

    XC_HYB_GGA_XC_B3LYP:  1.00E-15

   => Molecular Quadrature <=

    Radial Scheme          =       TREUTLER
    Pruning Scheme         =           NONE
    Nuclear Scheme         =       TREUTLER

    Blocking Scheme        =         OCTREE
    BS radius alpha        =              1
    Pruning alpha          =              1
    Radial Points          =             75
    Spherical Points       =            302
    Total Points           =          44396
    Total Blocks           =            455
    Max Points             =            253
    Max Functions          =             32
    Weights Tolerance      =       1.00E-15

  -Total Gradient:
     Atom            X                  Y                   Z
    ------   -----------------  -----------------  -----------------
       1        0.000000000000    -0.000000000000     0.000000699354
       2        0.000000000000    -0.000000000000     0.000009423781

*** tstop() called on Joses-MacBook-Pro-2.local at Thu Jul 17 12:57:52 2025
Module time:
	user time   =       0.86 seconds =       0.01 minutes
	system time =       1.66 seconds =       0.03 minutes
	total time  =          0 seconds =       0.00 minutes
Total time:
	user time   =      79.44 seconds =       1.32 minutes
	system time =     106.90 seconds =       1.78 minutes
	total time  =         17 seconds =       0.28 minutes

    			-----------------------------------------

    			 OPTKING 3.0: for geometry optimizations

    			     By R.A. King, Bethel University

    			        with contributions from

    			    A.V. Copan, J. Cayton, A. Heide

    			-----------------------------------------

	                            ===> Fragment 1 <==

	 Z (Atomic Numbers)          Masses                          Geom
	       3.000000             7.016003          0.00000000  0.00000000  6.29530619
	      17.000000            34.968853          0.00000000  0.00000000 -1.26306374

	 - Coordinate -           - BOHR/RAD -       - ANG/DEG -
	 R(1,2)           =         7.558370           3.999717

	        --- Internal Coordinate Step in ANG or DEG, aJ/ANG or AJ/DEG ---
	-------------------------------------------------------------------------------
	           Coordinate      Previous         Force          Change          New
	           ----------      --------        ------          ------        ------
	               R(1,2)       3.99972        0.00004        0.00040       4.00012
	-------------------------------------------------------------------------------

	                                 ==> Convergence Check <==

	Measures of convergence in internal coordinates in au.

	Criteria marked as inactive (o), active & met (*), and active & unmet ( ).

	----------------------------------------------------------------------------------------------
	   Step    Total Energy     Delta E     Max Force     RMS Force      Max Disp      RMS Disp
	----------------------------------------------------------------------------------------------
	  Convergence Criteria     1.00e-06 *    3.00e-04 *             o    1.20e-03 *             o
	----------------------------------------------------------------------------------------------
	    19    -467.18405632   -3.78e-08 *    4.36e-06 *    4.36e-06 o    7.54e-04 *    7.54e-04 o  ~
	----------------------------------------------------------------------------------------------

Next Geometry in Ang
	Fragment 1 (Ang)

	   Li   0.0000000000   0.0000000000   3.3315320365
	   Cl   0.0000000000   0.0000000000  -0.6685840137

    Final optimized geometry and variables:
    Molecular point group: c2v
    Full point group: C_inf_v

    Geometry (in Angstrom), charge = 1, multiplicity = 4:

    LI           0.000000000000     0.000000000000     3.331332569852
    CL           0.000000000000     0.000000000000    -0.668384546988

    Psi4 stopped on: Thursday, 17 July 2025 12:57PM
    Psi4 wall time for execution: 0:00:18.54

*** Psi4 exiting successfully. Buy a developer a beer!
