                               Psi4 1.9.1 release

  ==> Input File <==

--------------------------------------------------------------------------
molecule {
1 4
B   0.00000        0.60000        0.00000
Cl   0.00000       -0.60000        0.00000
}

set {
basis              cc-pvdz
reference          uks
maxiter            500
geom_maxiter       500
DAMPING_PERCENTAGE 1
guess              SAP
}

optimize('b3lyp')
--------------------------------------------------------------------------

    Molecular point group: c2v
  Charge       = 1
  Multiplicity = 4
  Basis Set: CC-PVDZ
    Blend: CC-PVDZ
  Basis Set: (CC-PVDZ AUX)
    Blend: CC-PVDZ-JKFIT
  @DF-UKS Final Energy:  -484.00111446366731
    Total Energy =                       -484.0011144636673066
 Dipole X            :          0.0000000            0.0000000            0.0000000
 Dipole Y            :          0.0000000            0.0000000            0.0000000
 Dipole Z            :          0.2918716           -0.6073306           -0.3154590
 Magnitude           :                                                    0.3154590
    Molecular point group: c2v
  Basis Set: CC-PVDZ
    Blend: CC-PVDZ
  Basis Set: (CC-PVDZ AUX)
    Blend: CC-PVDZ-JKFIT
  Basis Set: CC-PVDZ
    Blend: CC-PVDZ
  Basis Set: (CC-PVDZ AUX)
    Blend: CC-PVDZ-JKFIT
  @DF-UKS Final Energy:  -484.24916640152071
    Total Energy =                       -484.2491664015207107
  Basis Set: CC-PVDZ
    Blend: CC-PVDZ
  Basis Set: (CC-PVDZ AUX)
    Blend: CC-PVDZ-JKFIT
  Basis Set: CC-PVDZ
    Blend: CC-PVDZ
  @DF-UKS Final Energy:  -484.36256550242803
    Total Energy =                       -484.3625655024280263
  @DF-UKS Final Energy:  -484.41618247379114
    Total Energy =                       -484.4161824737911957
  @DF-UKS Final Energy:  -484.43406523595411
    Total Energy =                       -484.4340652359541082
  @DF-UKS Final Energy:  -484.44368287526015
    Total Energy =                       -484.4436828752601514
  @DF-UKS Final Energy:  -484.44775613618526
    Total Energy =                       -484.4477561361852622
  @DF-UKS Final Energy:  -484.44874724199008
    Total Energy =                       -484.4487472419900769
  @DF-UKS Final Energy:  -484.44902660669277
    Total Energy =                       -484.4490266066927120
  @DF-UKS Final Energy:  -484.44912644329810
    Total Energy =                       -484.4491264432980415
  @DF-UKS Final Energy:  -484.44914974286064
    Total Energy =                       -484.4491497428606408
  Basis Set: (CC-PVDZ AUX)
    Blend: CC-PVDZ-JKFIT
  Basis Set: CC-PVDZ
    Blend: CC-PVDZ
  Basis Set: (CC-PVDZ AUX)
    Blend: CC-PVDZ-JKFIT
  @DF-UKS Final Energy:  -484.44915245076385
    Total Energy =                       -484.4491524507638474
  Basis Set: CC-PVDZ
    Blend: CC-PVDZ
  Basis Set: (CC-PVDZ AUX)
    Blend: CC-PVDZ-JKFIT
  Charge       = 1
  Multiplicity = 4
  Basis Set: CC-PVDZ
    Blend: CC-PVDZ
  Basis Set: (CC-PVDZ AUX)
    Blend: CC-PVDZ-JKFIT

    Orbital Energies [Eh]
    ---------------------

    Alpha Occupied:

       1A1  -101.971692     2A1    -9.883360     1B2    -7.654933
       3A1    -7.639222     1B1    -7.631223     4A1    -7.174744
       5A1    -1.223080     6A1    -0.813521     2B2    -0.752582
       2B1    -0.697773     7A1    -0.609176     3B2    -0.472031

    Alpha Virtual:

       3B1    -0.366252     8A1    -0.252792     9A1    -0.013702
       4B2     0.036925     4B1     0.059535    10A1     0.096497
      11A1     0.184166     5B2     0.191493     5B1     0.222950
       6B2     0.247469     6B1     0.274495     1A2     0.293842
      12A1     0.296090     2A2     0.430178    13A1     0.435947
      14A1     0.457191    15A1     0.629342     7B2     0.663700
       7B1     0.691200    16A1     0.958195

    Beta Occupied:

       1A1  -101.963010     2A1    -9.874740     3A1    -7.631179
       1B2    -7.629821     1B1    -7.626139     4A1    -7.145887
       5A1    -1.161428     6A1    -0.768588     2B1    -0.678083

    Beta Virtual:

       2B2    -0.577284     7A1    -0.421012     3B1    -0.310864
       3B2    -0.269924     8A1    -0.191080     9A1     0.000602
       4B1     0.079034     4B2     0.103955    10A1     0.162645
      11A1     0.211515     5B1     0.253398     5B2     0.271155
       6B1     0.287836     6B2     0.303452     1A2     0.360916
      12A1     0.365574    13A1     0.485143     2A2     0.516943
      14A1     0.518058    15A1     0.684377     7B1     0.731163
       7B2     0.754796    16A1     1.005030

    Final Occupation by Irrep:
             A1    A2    B1    B2
    DOCC [     6,    0,    2,    1 ]
    SOCC [     1,    0,    0,    2 ]
    NA   [     7,    0,    2,    3 ]
    NB   [     6,    0,    2,    1 ]

  @DF-UKS Final Energy:  -484.44915255358853

   => Energetics <=

    Nuclear Repulsion Energy =             23.4905093827268168
    One-Electron Energy =                -706.5832045507262364
    Two-Electron Energy =                 224.3360136932763567
    DFT Exchange-Correlation Energy =     -25.6924710788654735
    Empirical Dispersion Energy =           0.0000000000000000
    VV10 Nonlocal Energy =                  0.0000000000000000
    Total Energy =                       -484.4491525535885330

  UHF NO Occupations:
  HONO-2 :    2 B2 1.0000000
  HONO-1 :    3 B2 1.0000000
  HONO-0 :    7 A1 1.0000000
  LUNO+0 :    8 A1 0.0009381
  LUNO+1 :    9 A1 0.0004156
  LUNO+2 :    3 B1 0.0001397
  LUNO+3 :   10 A1 0.0000001

Computation Completed

Properties will be evaluated at   0.000000,   0.000000,   0.000000 [a0]

Properties computed using the SCF density matrix

 Multipole Moments:

 ------------------------------------------------------------------------------------
     Multipole            Electronic (a.u.)      Nuclear  (a.u.)        Total (a.u.)
 ------------------------------------------------------------------------------------

 L = 1.  Multiply by 2.5417464519 to convert [e a0] to [Debye]
 Dipole X            :          0.0000000            0.0000000            0.0000000
 Dipole Y            :          0.0000000            0.0000000            0.0000000
 Dipole Z            :          1.5192421           -0.9691065            0.5501356
 Magnitude           :                                                    0.5501356

 ------------------------------------------------------------------------------------

*** tstop() called on Joses-MacBook-Pro-2.local at Thu Jul 17 13:38:14 2025
Module time:
	user time   =       1.70 seconds =       0.03 minutes
	system time =       3.92 seconds =       0.07 minutes
	total time  =          1 seconds =       0.02 minutes
Total time:
	user time   =      45.98 seconds =       0.77 minutes
	system time =      79.95 seconds =       1.33 minutes
	total time  =         13 seconds =       0.22 minutes

*** tstart() called on Joses-MacBook-Pro-2.local
*** at Thu Jul 17 13:38:14 2025

         ------------------------------------------------------------
                                   SCF GRAD
                          Rob Parrish, Justin Turney,
                       Andy Simmonett, and Alex Sokolov
         ------------------------------------------------------------

  ==> Geometry <==

    Molecular point group: c2v
    Full point group: C_inf_v

    Geometry (in Angstrom), charge = 1, multiplicity = 4:

       Center              X                  Y                   Z               Mass
    ------------   -----------------  -----------------  -----------------  -----------------
         B            0.000000000000     0.000000000000     1.456322095740    11.009305360000
         CL           0.000000000000     0.000000000000    -0.458496445403    34.968852682000

  Nuclear repulsion =   23.490509382726817

  ==> Basis Set <==

  Basis Set: CC-PVDZ
    Blend: CC-PVDZ
    Number of shells: 14
    Number of basis functions: 32
    Number of Cartesian functions: 34
    Spherical Harmonics?: true
    Max angular momentum: 2

  ==> DFJKGrad: Density-Fitted SCF Gradients <==

    Gradient:                    1
    J tasked:                  Yes
    K tasked:                  Yes
    wK tasked:                  No
    OpenMP threads:              1
    Integrals threads:           1
    Memory [MiB]:              375
    Schwarz Cutoff:          1E-12
    Fitting Condition:       1E-10

   => Auxiliary Basis Set <=

  Basis Set: (CC-PVDZ AUX)
    Blend: CC-PVDZ-JKFIT
    Number of shells: 60
    Number of basis functions: 182
    Number of Cartesian functions: 211
    Spherical Harmonics?: true
    Max angular momentum: 3

  ==> DFT Potential <==

   => LibXC <=

    Version 6.2.2
    S. Lehtola, C. Steigemann, M. J.T. Oliveira, and M. A.L. Marques.,  SoftwareX 7, 1â€“5 (2018) (10.1016/j.softx.2017.11.002)

   => Composite Functional: B3LYP <=

    B3LYP Hyb-GGA Exchange-Correlation Functional

    P. J. Stephens, F. J. Devlin, C. F. Chabalowski, and M. J. Frisch.,  J. Phys. Chem. 98, 11623 (1994) (10.1021/j100096a001)

    Deriv               =              1
    GGA                 =           TRUE
    Meta                =          FALSE

    Exchange Hybrid     =           TRUE
    MP2 Hybrid          =          FALSE

   => Exchange Functionals <=

    0.0800   Slater exchange
    0.7200         Becke 88

   => Exact (HF) Exchange <=

    0.2000               HF

   => Correlation Functionals <=

    0.1900   Vosko, Wilk & Nusair (VWN5_RPA)
    0.8100   Lee, Yang & Parr

   => LibXC Density Thresholds  <==

    XC_HYB_GGA_XC_B3LYP:  1.00E-15

   => Molecular Quadrature <=

    Radial Scheme          =       TREUTLER
    Pruning Scheme         =           NONE
    Nuclear Scheme         =       TREUTLER

    Blocking Scheme        =         OCTREE
    BS radius alpha        =              1
    Pruning alpha          =              1
    Radial Points          =             75
    Spherical Points       =            302
    Total Points           =          42002
    Total Blocks           =            385
    Max Points             =            255
    Max Functions          =             32
    Weights Tolerance      =       1.00E-15

  -Total Gradient:
     Atom            X                  Y                   Z
    ------   -----------------  -----------------  -----------------
       1       -0.000000000000     0.000000000000    -0.000015454717
       2        0.000000000000     0.000000000000     0.000019012607

*** tstop() called on Joses-MacBook-Pro-2.local at Thu Jul 17 13:38:14 2025
Module time:
	user time   =       0.57 seconds =       0.01 minutes
	system time =       1.92 seconds =       0.03 minutes
	total time  =          0 seconds =       0.00 minutes
Total time:
	user time   =      46.55 seconds =       0.78 minutes
	system time =      81.87 seconds =       1.36 minutes
	total time  =         13 seconds =       0.22 minutes

    			-----------------------------------------

    			 OPTKING 3.0: for geometry optimizations

    			     By R.A. King, Bethel University

    			        with contributions from

    			    A.V. Copan, J. Cayton, A. Heide

    			-----------------------------------------

	                            ===> Fragment 1 <==

	 Z (Atomic Numbers)          Masses                          Geom
	       5.000000            11.009305          0.00000000  0.00000000  2.75204991
	      17.000000            34.968853          0.00000000  0.00000000 -0.86643271

	 - Coordinate -           - BOHR/RAD -       - ANG/DEG -
	 R(1,2)           =         3.618483           1.914819

	        --- Internal Coordinate Step in ANG or DEG, aJ/ANG or AJ/DEG ---
	-------------------------------------------------------------------------------
	           Coordinate      Previous         Force          Change          New
	           ----------      --------        ------          ------        ------
	               R(1,2)       1.91482        0.00014        0.00008       1.91490
	-------------------------------------------------------------------------------

	                                 ==> Convergence Check <==

	Measures of convergence in internal coordinates in au.

	Criteria marked as inactive (o), active & met (*), and active & unmet ( ).

	----------------------------------------------------------------------------------------------
	   Step    Total Energy     Delta E     Max Force     RMS Force      Max Disp      RMS Disp
	----------------------------------------------------------------------------------------------
	  Convergence Criteria     1.00e-06 *    3.00e-04 *             o    1.20e-03 *             o
	----------------------------------------------------------------------------------------------
	    13    -484.44915255   -1.03e-07 *    1.72e-05 *    1.72e-05 o    1.50e-04 *    1.50e-04 o  ~
	----------------------------------------------------------------------------------------------

Next Geometry in Ang
	Fragment 1 (Ang)

	    B   0.0000000000   0.0000000000   1.4563617002
	   Cl   0.0000000000   0.0000000000  -0.4585360499

    Final optimized geometry and variables:
    Molecular point group: c2v
    Full point group: C_inf_v

    Geometry (in Angstrom), charge = 1, multiplicity = 4:

    B            0.000000000000     0.000000000000     1.456322095740
    CL           0.000000000000     0.000000000000    -0.458496445403

    Psi4 stopped on: Thursday, 17 July 2025 01:38PM
    Psi4 wall time for execution: 0:00:13.44

*** Psi4 exiting successfully. Buy a developer a beer!
