                               Psi4 1.9.1 release

  ==> Input File <==

--------------------------------------------------------------------------
molecule {
1 4
C   0.00000        0.60000        0.00000
Ar   0.00000       -0.60000        0.00000
}

set {
basis              cc-pvdz
reference          uks
maxiter            500
geom_maxiter       500
DAMPING_PERCENTAGE 1
guess              SAP
}

optimize('b3lyp')
--------------------------------------------------------------------------

    Molecular point group: c2v
  Charge       = 1
  Multiplicity = 4
  Basis Set: CC-PVDZ
    Blend: CC-PVDZ
  Basis Set: (CC-PVDZ AUX)
    Blend: CC-PVDZ-JKFIT
  @DF-UKS Final Energy:  -564.58306686744606
    Total Energy =                       -564.5830668674460640
 Dipole X            :          0.0000000            0.0000000            0.0000000
 Dipole Y            :          0.0000000            0.0000000            0.0000000
 Dipole Z            :         -1.2027395            1.0375255           -0.1652140
 Magnitude           :                                                    0.1652140
    Molecular point group: c2v
  Basis Set: CC-PVDZ
    Blend: CC-PVDZ
  Basis Set: (CC-PVDZ AUX)
    Blend: CC-PVDZ-JKFIT
  Basis Set: CC-PVDZ
    Blend: CC-PVDZ
  Basis Set: (CC-PVDZ AUX)
    Blend: CC-PVDZ-JKFIT
  @DF-UKS Final Energy:  -564.76375800102687
    Total Energy =                       -564.7637580010268721
  Basis Set: CC-PVDZ
    Blend: CC-PVDZ
  Basis Set: (CC-PVDZ AUX)
    Blend: CC-PVDZ-JKFIT
  Basis Set: CC-PVDZ
    Blend: CC-PVDZ
  @DF-UKS Final Energy:  -564.84657449960287
    Total Energy =                       -564.8465744996029798
  @DF-UKS Final Energy:  -564.87512728678803
    Total Energy =                       -564.8751272867880289
  @DF-UKS Final Energy:  -564.89155470819912
    Total Energy =                       -564.8915547081991235
  @DF-UKS Final Energy:  -564.89906747802218
    Total Energy =                       -564.8990674780221752
  @DF-UKS Final Energy:  -564.90113669211860
    Total Energy =                       -564.9011366921185981
  @DF-UKS Final Energy:  -564.90180846298506
    Total Energy =                       -564.9018084629851728
  @DF-UKS Final Energy:  -564.90209358328593
    Total Energy =                       -564.9020935832858186
  @DF-UKS Final Energy:  -564.90218024322735
    Total Energy =                       -564.9021802432274626
  Basis Set: (CC-PVDZ AUX)
    Blend: CC-PVDZ-JKFIT
  Basis Set: CC-PVDZ
    Blend: CC-PVDZ
  Basis Set: (CC-PVDZ AUX)
    Blend: CC-PVDZ-JKFIT
  @DF-UKS Final Energy:  -564.90219517510002
    Total Energy =                       -564.9021951751000188
  Basis Set: CC-PVDZ
    Blend: CC-PVDZ
  Basis Set: (CC-PVDZ AUX)
    Blend: CC-PVDZ-JKFIT
  Charge       = 1
  Multiplicity = 4
  Basis Set: CC-PVDZ
    Blend: CC-PVDZ
  Basis Set: (CC-PVDZ AUX)
    Blend: CC-PVDZ-JKFIT

    Orbital Energies [Eh]
    ---------------------

    Alpha Occupied:

       1A1  -115.527751     2A1   -11.560724     3A1   -10.662536
       4A1    -9.119664     1B1    -9.106932     1B2    -9.106932
       5A1    -1.399290     6A1    -1.006345     2B1    -0.815317
       2B2    -0.815317     7A1    -0.784355     3B1    -0.587585
       3B2    -0.587585

    Alpha Virtual:

       8A1    -0.350379     9A1     0.143620     4B2     0.164029
       4B1     0.164029    10A1     0.215076    11A1     0.248112
       5B2     0.290247     5B1     0.290247     6B1     0.378320
       6B2     0.378320     1A2     0.445194    12A1     0.445195
      13A1     0.544824     2A2     0.783693    14A1     0.783696
      15A1     0.807273     7B2     0.985381     7B1     0.985381
      16A1     1.424450

    Beta Occupied:

       1A1  -115.525167     2A1   -11.558238     3A1   -10.608493
       4A1    -9.113976     1B1    -9.104322     1B2    -9.104322
       5A1    -1.380924     6A1    -0.928301     2B1    -0.799596
       2B2    -0.799596

    Beta Virtual:

       7A1    -0.549833     3B1    -0.340887     3B2    -0.340887
       8A1    -0.266938     9A1     0.168763    10A1     0.238335
       4B2     0.248396     4B1     0.248396     5B2     0.306737
       5B1     0.306737    11A1     0.334688     6B1     0.416488
       6B2     0.416488     1A2     0.454634    12A1     0.454635
      13A1     0.576703    14A1     0.847996     2A2     0.941074
      15A1     0.941074     7B2     1.089011     7B1     1.089011
      16A1     1.505195

    Final Occupation by Irrep:
             A1    A2    B1    B2
    DOCC [     6,    0,    2,    2 ]
    SOCC [     1,    0,    1,    1 ]
    NA   [     7,    0,    3,    3 ]
    NB   [     6,    0,    2,    2 ]

  @DF-UKS Final Energy:  -564.90219619096138

   => Energetics <=

    Nuclear Repulsion Energy =             32.4497905681914744
    One-Electron Energy =                -834.1254572964338649
    Two-Electron Energy =                 265.6958524490642048
    DFT Exchange-Correlation Energy =     -28.9223819117832370
    Empirical Dispersion Energy =           0.0000000000000000
    VV10 Nonlocal Energy =                  0.0000000000000000
    Total Energy =                       -564.9021961909613765

  UHF NO Occupations:
  HONO-2 :    7 A1 1.0000000
  HONO-1 :    3 B1 1.0000000
  HONO-0 :    3 B2 1.0000000
  LUNO+0 :    8 A1 0.0005049
  LUNO+1 :    4 B1 0.0001099
  LUNO+2 :    4 B2 0.0001099
  LUNO+3 :    9 A1 0.0000230

Computation Completed

Properties will be evaluated at   0.000000,   0.000000,   0.000000 [a0]

Properties computed using the SCF density matrix

 Multipole Moments:

 ------------------------------------------------------------------------------------
     Multipole            Electronic (a.u.)      Nuclear  (a.u.)        Total (a.u.)
 ------------------------------------------------------------------------------------

 L = 1.  Multiply by 2.5417464519 to convert [e a0] to [Debye]
 Dipole X            :          0.0000000            0.0000000            0.0000000
 Dipole Y            :          0.0000000            0.0000000            0.0000000
 Dipole Z            :         -1.0507345            1.5227567            0.4720222
 Magnitude           :                                                    0.4720222

 ------------------------------------------------------------------------------------

*** tstop() called on Joses-MacBook-Pro-2.local at Thu Jul 17 13:47:27 2025
Module time:
	user time   =       3.26 seconds =       0.05 minutes
	system time =       3.13 seconds =       0.05 minutes
	total time  =          1 seconds =       0.02 minutes
Total time:
	user time   =      44.33 seconds =       0.74 minutes
	system time =      76.61 seconds =       1.28 minutes
	total time  =         12 seconds =       0.20 minutes

*** tstart() called on Joses-MacBook-Pro-2.local
*** at Thu Jul 17 13:47:27 2025

         ------------------------------------------------------------
                                   SCF GRAD
                          Rob Parrish, Justin Turney,
                       Andy Simmonett, and Alex Sokolov
         ------------------------------------------------------------

  ==> Geometry <==

    Molecular point group: c2v
    Full point group: C_inf_v

    Geometry (in Angstrom), charge = 1, multiplicity = 4:

       Center              X                  Y                   Z               Mass
    ------------   -----------------  -----------------  -----------------  -----------------
         C            0.000000000000     0.000000000000     1.354488457582    12.000000000000
         AR           0.000000000000     0.000000000000    -0.406729034169    39.962383123700

  Nuclear repulsion =   32.449790568191474

  ==> Basis Set <==

  Basis Set: CC-PVDZ
    Blend: CC-PVDZ
    Number of shells: 14
    Number of basis functions: 32
    Number of Cartesian functions: 34
    Spherical Harmonics?: true
    Max angular momentum: 2

  ==> DFJKGrad: Density-Fitted SCF Gradients <==

    Gradient:                    1
    J tasked:                  Yes
    K tasked:                  Yes
    wK tasked:                  No
    OpenMP threads:              1
    Integrals threads:           1
    Memory [MiB]:              375
    Schwarz Cutoff:          1E-12
    Fitting Condition:       1E-10

   => Auxiliary Basis Set <=

  Basis Set: (CC-PVDZ AUX)
    Blend: CC-PVDZ-JKFIT
    Number of shells: 60
    Number of basis functions: 182
    Number of Cartesian functions: 211
    Spherical Harmonics?: true
    Max angular momentum: 3

  ==> DFT Potential <==

   => LibXC <=

    Version 6.2.2
    S. Lehtola, C. Steigemann, M. J.T. Oliveira, and M. A.L. Marques.,  SoftwareX 7, 1â€“5 (2018) (10.1016/j.softx.2017.11.002)

   => Composite Functional: B3LYP <=

    B3LYP Hyb-GGA Exchange-Correlation Functional

    P. J. Stephens, F. J. Devlin, C. F. Chabalowski, and M. J. Frisch.,  J. Phys. Chem. 98, 11623 (1994) (10.1021/j100096a001)

    Deriv               =              1
    GGA                 =           TRUE
    Meta                =          FALSE

    Exchange Hybrid     =           TRUE
    MP2 Hybrid          =          FALSE

   => Exchange Functionals <=

    0.0800   Slater exchange
    0.7200         Becke 88

   => Exact (HF) Exchange <=

    0.2000               HF

   => Correlation Functionals <=

    0.1900   Vosko, Wilk & Nusair (VWN5_RPA)
    0.8100   Lee, Yang & Parr

   => LibXC Density Thresholds  <==

    XC_HYB_GGA_XC_B3LYP:  1.00E-15

   => Molecular Quadrature <=

    Radial Scheme          =       TREUTLER
    Pruning Scheme         =           NONE
    Nuclear Scheme         =       TREUTLER

    Blocking Scheme        =         OCTREE
    BS radius alpha        =              1
    Pruning alpha          =              1
    Radial Points          =             75
    Spherical Points       =            302
    Total Points           =          41116
    Total Blocks           =            367
    Max Points             =            254
    Max Functions          =             32
    Weights Tolerance      =       1.00E-15

  -Total Gradient:
     Atom            X                  Y                   Z
    ------   -----------------  -----------------  -----------------
       1        0.000000000000     0.000000000000    -0.000095977550
       2        0.000000000000    -0.000000000000     0.000092189826

*** tstop() called on Joses-MacBook-Pro-2.local at Thu Jul 17 13:47:27 2025
Module time:
	user time   =       0.81 seconds =       0.01 minutes
	system time =       1.57 seconds =       0.03 minutes
	total time  =          0 seconds =       0.00 minutes
Total time:
	user time   =      45.14 seconds =       0.75 minutes
	system time =      78.19 seconds =       1.30 minutes
	total time  =         12 seconds =       0.20 minutes

    			-----------------------------------------

    			 OPTKING 3.0: for geometry optimizations

    			     By R.A. King, Bethel University

    			        with contributions from

    			    A.V. Copan, J. Cayton, A. Heide

    			-----------------------------------------

	                            ===> Fragment 1 <==

	 Z (Atomic Numbers)          Masses                          Geom
	       6.000000            12.000000          0.00000000  0.00000000  2.55961222
	      18.000000            39.962383          0.00000000  0.00000000 -0.76860648

	 - Coordinate -           - BOHR/RAD -       - ANG/DEG -
	 R(1,2)           =         3.328219           1.761217

	        --- Internal Coordinate Step in ANG or DEG, aJ/ANG or AJ/DEG ---
	-------------------------------------------------------------------------------
	           Coordinate      Previous         Force          Change          New
	           ----------      --------        ------          ------        ------
	               R(1,2)       1.76122        0.00078        0.00029       1.76151
	-------------------------------------------------------------------------------

	                                 ==> Convergence Check <==

	Measures of convergence in internal coordinates in au.

	Criteria marked as inactive (o), active & met (*), and active & unmet ( ).

	----------------------------------------------------------------------------------------------
	   Step    Total Energy     Delta E     Max Force     RMS Force      Max Disp      RMS Disp
	----------------------------------------------------------------------------------------------
	  Convergence Criteria     1.00e-06 *    3.00e-04 *             o    1.20e-03 *             o
	----------------------------------------------------------------------------------------------
	    12    -564.90219619   -1.02e-06      9.41e-05 *    9.41e-05 o    5.53e-04 *    5.53e-04 o  ~
	----------------------------------------------------------------------------------------------

Next Geometry in Ang
	Fragment 1 (Ang)

	    C   0.0000000000   0.0000000000   1.3546348547
	   Ar   0.0000000000   0.0000000000  -0.4068754313

    Final optimized geometry and variables:
    Molecular point group: c2v
    Full point group: C_inf_v

    Geometry (in Angstrom), charge = 1, multiplicity = 4:

    C            0.000000000000     0.000000000000     1.354488457582
    AR           0.000000000000     0.000000000000    -0.406729034169

    Psi4 stopped on: Thursday, 17 July 2025 01:47PM
    Psi4 wall time for execution: 0:00:12.33

*** Psi4 exiting successfully. Buy a developer a beer!
