                               Psi4 1.9.1 release

  ==> Input File <==

--------------------------------------------------------------------------
molecule {
1 4
N   0.00000        0.60000        0.00000
Cl   0.00000       -0.60000        0.00000
}

set {
basis              cc-pvdz
reference          uks
maxiter            500
geom_maxiter       500
DAMPING_PERCENTAGE 1
guess              SAP
}

optimize('b3lyp')
--------------------------------------------------------------------------

    Molecular point group: c2v
  Charge       = 1
  Multiplicity = 4
  Basis Set: CC-PVDZ
    Blend: CC-PVDZ
  Basis Set: (CC-PVDZ AUX)
    Blend: CC-PVDZ-JKFIT
  @DF-UKS Final Energy:  -514.10163760032481
    Total Energy =                       -514.1016376003248070
 Dipole X            :          0.0000000            0.0000000            0.0000000
 Dipole Y            :          0.0000000            0.0000000            0.0000000
 Dipole Z            :         -0.1117636            0.3116229            0.1998593
 Magnitude           :                                                    0.1998593
    Molecular point group: c2v
  Basis Set: CC-PVDZ
    Blend: CC-PVDZ
  Basis Set: (CC-PVDZ AUX)
    Blend: CC-PVDZ-JKFIT
  Basis Set: CC-PVDZ
    Blend: CC-PVDZ
  Basis Set: (CC-PVDZ AUX)
    Blend: CC-PVDZ-JKFIT
  @DF-UKS Final Energy:  -514.24091121614924
    Total Energy =                       -514.2409112161492430
  Basis Set: CC-PVDZ
    Blend: CC-PVDZ
  Basis Set: (CC-PVDZ AUX)
    Blend: CC-PVDZ-JKFIT
  Basis Set: CC-PVDZ
    Blend: CC-PVDZ
  @DF-UKS Final Energy:  -514.29845549339370
    Total Energy =                       -514.2984554933937034
  @DF-UKS Final Energy:  -514.31581434215798
    Total Energy =                       -514.3158143421579780
  @DF-UKS Final Energy:  -514.32471287183262
    Total Energy =                       -514.3247128718326167
  @DF-UKS Final Energy:  -514.32746982137780
    Total Energy =                       -514.3274698213776901
  @DF-UKS Final Energy:  -514.32849212734300
    Total Energy =                       -514.3284921273429973
  @DF-UKS Final Energy:  -514.32904285652273
    Total Energy =                       -514.3290428565227330
  @DF-UKS Final Energy:  -514.32921775781017
    Total Energy =                       -514.3292177578101700
  Basis Set: (CC-PVDZ AUX)
    Blend: CC-PVDZ-JKFIT
  Basis Set: CC-PVDZ
    Blend: CC-PVDZ
  Basis Set: (CC-PVDZ AUX)
    Blend: CC-PVDZ-JKFIT
  @DF-UKS Final Energy:  -514.32925463533320
    Total Energy =                       -514.3292546353332000
  Basis Set: CC-PVDZ
    Blend: CC-PVDZ
  Basis Set: (CC-PVDZ AUX)
    Blend: CC-PVDZ-JKFIT
  Charge       = 1
  Multiplicity = 4
  Basis Set: CC-PVDZ
    Blend: CC-PVDZ
  Basis Set: (CC-PVDZ AUX)
    Blend: CC-PVDZ-JKFIT

    Orbital Energies [Eh]
    ---------------------

    Alpha Occupied:

       1A1  -101.998324     2A1   -14.863388     3A1    -9.908650
       4A1    -7.679340     1B1    -7.660297     1B2    -7.660297
       5A1    -1.365985     6A1    -1.104869     7A1    -0.853189
       2B1    -0.796035     2B2    -0.796035     3B1    -0.643867
       3B2    -0.643867

    Alpha Virtual:

       8A1    -0.352942     9A1     0.161144     4B2     0.220915
       4B1     0.220915    10A1     0.241184     5B1     0.259434
       5B2     0.259434     1A2     0.333895    11A1     0.333895
      12A1     0.334708     6B1     0.444020     6B2     0.444020
      13A1     0.667885    14A1     0.836050     2A2     1.306000
      15A1     1.306000     7B1     1.458853     7B2     1.458853
      16A1     1.957873

    Beta Occupied:

       1A1  -101.992346     2A1   -14.809171     3A1    -9.902921
       4A1    -7.669273     1B2    -7.652092     1B1    -7.652092
       5A1    -1.298151     6A1    -0.979603     2B1    -0.716423
       2B2    -0.716423

    Beta Virtual:

       7A1    -0.643518     3B1    -0.449234     3B2    -0.449234
       8A1    -0.280441     9A1     0.195806     4B2     0.233176
       4B1     0.233176    10A1     0.264003     5B1     0.331860
       5B2     0.331860     1A2     0.362631    11A1     0.362631
      12A1     0.417015     6B1     0.506010     6B2     0.506010
      13A1     0.714291    14A1     0.894409     2A2     1.439313
      15A1     1.439320     7B1     1.572394     7B2     1.572394
      16A1     2.062600

    Final Occupation by Irrep:
             A1    A2    B1    B2
    DOCC [     6,    0,    2,    2 ]
    SOCC [     1,    0,    1,    1 ]
    NA   [     7,    0,    3,    3 ]
    NB   [     6,    0,    2,    2 ]

  @DF-UKS Final Energy:  -514.32925839996324

   => Energetics <=

    Nuclear Repulsion Energy =             38.9586189695726475
    One-Electron Energy =                -777.2920909382823993
    Two-Electron Energy =                 251.9745537122813914
    DFT Exchange-Correlation Energy =     -27.9703401435348695
    Empirical Dispersion Energy =           0.0000000000000000
    VV10 Nonlocal Energy =                  0.0000000000000000
    Total Energy =                       -514.3292583999632370

  UHF NO Occupations:
  HONO-2 :    3 B1 1.0000000
  HONO-1 :    3 B2 1.0000000
  HONO-0 :    7 A1 1.0000000
  LUNO+0 :    4 B1 0.0012302
  LUNO+1 :    4 B2 0.0012302
  LUNO+2 :    8 A1 0.0007234
  LUNO+3 :    9 A1 0.0003299

Computation Completed

Properties will be evaluated at   0.000000,   0.000000,   0.000000 [a0]

Properties computed using the SCF density matrix

 Multipole Moments:

 ------------------------------------------------------------------------------------
     Multipole            Electronic (a.u.)      Nuclear  (a.u.)        Total (a.u.)
 ------------------------------------------------------------------------------------

 L = 1.  Multiply by 2.5417464519 to convert [e a0] to [Debye]
 Dipole X            :          0.0000000            0.0000000            0.0000000
 Dipole Y            :          0.0000000            0.0000000            0.0000000
 Dipole Z            :         -0.1488652            0.4197518            0.2708867
 Magnitude           :                                                    0.2708867

 ------------------------------------------------------------------------------------

*** tstop() called on Joses-MacBook-Pro-2.local at Thu Jul 17 13:58:02 2025
Module time:
	user time   =       2.29 seconds =       0.04 minutes
	system time =       5.47 seconds =       0.09 minutes
	total time  =          1 seconds =       0.02 minutes
Total time:
	user time   =      35.48 seconds =       0.59 minutes
	system time =      93.71 seconds =       1.56 minutes
	total time  =         14 seconds =       0.23 minutes

*** tstart() called on Joses-MacBook-Pro-2.local
*** at Thu Jul 17 13:58:02 2025

         ------------------------------------------------------------
                                   SCF GRAD
                          Rob Parrish, Justin Turney,
                       Andy Simmonett, and Alex Sokolov
         ------------------------------------------------------------

  ==> Geometry <==

    Molecular point group: c2v
    Full point group: C_inf_v

    Geometry (in Angstrom), charge = 1, multiplicity = 4:

       Center              X                  Y                   Z               Mass
    ------------   -----------------  -----------------  -----------------  -----------------
         N            0.000000000000     0.000000000000     1.154193790881    14.003074004430
         CL           0.000000000000     0.000000000000    -0.462190201553    34.968852682000

  Nuclear repulsion =   38.958618969572647

  ==> Basis Set <==

  Basis Set: CC-PVDZ
    Blend: CC-PVDZ
    Number of shells: 14
    Number of basis functions: 32
    Number of Cartesian functions: 34
    Spherical Harmonics?: true
    Max angular momentum: 2

  ==> DFJKGrad: Density-Fitted SCF Gradients <==

    Gradient:                    1
    J tasked:                  Yes
    K tasked:                  Yes
    wK tasked:                  No
    OpenMP threads:              1
    Integrals threads:           1
    Memory [MiB]:              375
    Schwarz Cutoff:          1E-12
    Fitting Condition:       1E-10

   => Auxiliary Basis Set <=

  Basis Set: (CC-PVDZ AUX)
    Blend: CC-PVDZ-JKFIT
    Number of shells: 60
    Number of basis functions: 182
    Number of Cartesian functions: 211
    Spherical Harmonics?: true
    Max angular momentum: 3

  ==> DFT Potential <==

   => LibXC <=

    Version 6.2.2
    S. Lehtola, C. Steigemann, M. J.T. Oliveira, and M. A.L. Marques.,  SoftwareX 7, 1â€“5 (2018) (10.1016/j.softx.2017.11.002)

   => Composite Functional: B3LYP <=

    B3LYP Hyb-GGA Exchange-Correlation Functional

    P. J. Stephens, F. J. Devlin, C. F. Chabalowski, and M. J. Frisch.,  J. Phys. Chem. 98, 11623 (1994) (10.1021/j100096a001)

    Deriv               =              1
    GGA                 =           TRUE
    Meta                =          FALSE

    Exchange Hybrid     =           TRUE
    MP2 Hybrid          =          FALSE

   => Exchange Functionals <=

    0.0800   Slater exchange
    0.7200         Becke 88

   => Exact (HF) Exchange <=

    0.2000               HF

   => Correlation Functionals <=

    0.1900   Vosko, Wilk & Nusair (VWN5_RPA)
    0.8100   Lee, Yang & Parr

   => LibXC Density Thresholds  <==

    XC_HYB_GGA_XC_B3LYP:  1.00E-15

   => Molecular Quadrature <=

    Radial Scheme          =       TREUTLER
    Pruning Scheme         =           NONE
    Nuclear Scheme         =       TREUTLER

    Blocking Scheme        =         OCTREE
    BS radius alpha        =              1
    Pruning alpha          =              1
    Radial Points          =             75
    Spherical Points       =            302
    Total Points           =          41091
    Total Blocks           =            365
    Max Points             =            255
    Max Functions          =             32
    Weights Tolerance      =       1.00E-15

  -Total Gradient:
     Atom            X                  Y                   Z
    ------   -----------------  -----------------  -----------------
       1       -0.000000000000     0.000000000000    -0.000303859570
       2       -0.000000000000    -0.000000000000     0.000286823961

*** tstop() called on Joses-MacBook-Pro-2.local at Thu Jul 17 13:58:02 2025
Module time:
	user time   =       0.74 seconds =       0.01 minutes
	system time =       2.04 seconds =       0.03 minutes
	total time  =          0 seconds =       0.00 minutes
Total time:
	user time   =      36.22 seconds =       0.60 minutes
	system time =      95.76 seconds =       1.60 minutes
	total time  =         14 seconds =       0.23 minutes

    			-----------------------------------------

    			 OPTKING 3.0: for geometry optimizations

    			     By R.A. King, Bethel University

    			        with contributions from

    			    A.V. Copan, J. Cayton, A. Heide

    			-----------------------------------------

	                            ===> Fragment 1 <==

	 Z (Atomic Numbers)          Masses                          Geom
	       7.000000            14.003074          0.00000000  0.00000000  2.18111016
	      17.000000            34.968853          0.00000000  0.00000000 -0.87341290

	 - Coordinate -           - BOHR/RAD -       - ANG/DEG -
	 R(1,2)           =         3.054523           1.616384

	        --- Internal Coordinate Step in ANG or DEG, aJ/ANG or AJ/DEG ---
	-------------------------------------------------------------------------------
	           Coordinate      Previous         Force          Change          New
	           ----------      --------        ------          ------        ------
	               R(1,2)       1.61638        0.00243        0.00059       1.61697
	-------------------------------------------------------------------------------

	                                 ==> Convergence Check <==

	Measures of convergence in internal coordinates in au.

	Criteria marked as inactive (o), active & met (*), and active & unmet ( ).

	----------------------------------------------------------------------------------------------
	   Step    Total Energy     Delta E     Max Force     RMS Force      Max Disp      RMS Disp
	----------------------------------------------------------------------------------------------
	  Convergence Criteria     1.00e-06 *    3.00e-04 *             o    1.20e-03 *             o
	----------------------------------------------------------------------------------------------
	    11    -514.32925840   -3.76e-06      2.95e-04 *    2.95e-04 o    1.11e-03 *    1.11e-03 o  ~
	----------------------------------------------------------------------------------------------

Next Geometry in Ang
	Fragment 1 (Ang)

	    N   0.0000000000   0.0000000000   1.1544867249
	   Cl   0.0000000000   0.0000000000  -0.4624831356

    Final optimized geometry and variables:
    Molecular point group: c2v
    Full point group: C_inf_v

    Geometry (in Angstrom), charge = 1, multiplicity = 4:

    N            0.000000000000     0.000000000000     1.154193790881
    CL           0.000000000000     0.000000000000    -0.462190201553

    Psi4 stopped on: Thursday, 17 July 2025 01:58PM
    Psi4 wall time for execution: 0:00:14.56

*** Psi4 exiting successfully. Buy a developer a beer!
