                               Psi4 1.9.1 release

  ==> Input File <==

--------------------------------------------------------------------------
molecule {
1 5
O   0.00000        0.60000        0.00000
Na   0.00000       -0.60000        0.00000
}

set {
basis              cc-pvdz
reference          uks
maxiter            500
geom_maxiter       500
DAMPING_PERCENTAGE 1
guess              SAP
}

optimize('b3lyp')
--------------------------------------------------------------------------

    Molecular point group: c2v
  Charge       = 1
  Multiplicity = 5
  Basis Set: CC-PVDZ
    Blend: CC-PVDZ
  Basis Set: (CC-PVDZ AUX)
    Blend: CC-PVDZ-JKFIT + DEF2-UNIVERSAL-JKFIT
  @DF-UKS Final Energy:  -236.25242116460419
    Total Energy =                       -236.2524211646041863
 Dipole X            :          0.0000000            0.0000000            0.0000000
 Dipole Y            :          0.0000000            0.0000000            0.0000000
 Dipole Z            :          0.1678700            0.4638392            0.6317091
 Magnitude           :                                                    0.6317091
    Molecular point group: c2v
  Basis Set: CC-PVDZ
    Blend: CC-PVDZ
  Basis Set: (CC-PVDZ AUX)
    Blend: CC-PVDZ-JKFIT + DEF2-UNIVERSAL-JKFIT
  Basis Set: CC-PVDZ
    Blend: CC-PVDZ
  Basis Set: (CC-PVDZ AUX)
    Blend: CC-PVDZ-JKFIT + DEF2-UNIVERSAL-JKFIT
  @DF-UKS Final Energy:  -236.46557160646873
    Total Energy =                       -236.4655716064687283
  Basis Set: CC-PVDZ
    Blend: CC-PVDZ
  Basis Set: (CC-PVDZ AUX)
    Blend: CC-PVDZ-JKFIT + DEF2-UNIVERSAL-JKFIT
  Basis Set: CC-PVDZ
    Blend: CC-PVDZ
  @DF-UKS Final Energy:  -236.60784641070859
    Total Energy =                       -236.6078464107085892
  @DF-UKS Final Energy:  -236.69518100455974
    Total Energy =                       -236.6951810045597426
  @DF-UKS Final Energy:  -236.74945682894122
    Total Energy =                       -236.7494568289412200
  @DF-UKS Final Energy:  -236.78676446588722
    Total Energy =                       -236.7867644658872166
  @DF-UKS Final Energy:  -236.81662962366653
    Total Energy =                       -236.8166296236665289
  @DF-UKS Final Energy:  -236.82110340850815
    Total Energy =                       -236.8211034085081508
  @DF-UKS Final Energy:  -236.84523241762895
    Total Energy =                       -236.8452324176289494
  @DF-UKS Final Energy:  -236.84701522721252
    Total Energy =                       -236.8470152272125802
  @DF-UKS Final Energy:  -236.85873267990448
    Total Energy =                       -236.8587326799045059
  @DF-UKS Final Energy:  -236.85922769303266
    Total Energy =                       -236.8592276930326648
  @DF-UKS Final Energy:  -236.86357434048222
    Total Energy =                       -236.8635743404822165
  @DF-UKS Final Energy:  -236.86366137350217
    Total Energy =                       -236.8636613735021683
  @DF-UKS Final Energy:  -236.86475023833862
    Total Energy =                       -236.8647502383386154
  @DF-UKS Final Energy:  -236.86485723004998
    Total Energy =                       -236.8648572300499495
  Basis Set: (CC-PVDZ AUX)
    Blend: CC-PVDZ-JKFIT + DEF2-UNIVERSAL-JKFIT
  Basis Set: CC-PVDZ
    Blend: CC-PVDZ
  Basis Set: (CC-PVDZ AUX)
    Blend: CC-PVDZ-JKFIT + DEF2-UNIVERSAL-JKFIT
  @DF-UKS Final Energy:  -236.86486542225958
    Total Energy =                       -236.8648654222596122
  Basis Set: CC-PVDZ
    Blend: CC-PVDZ
  Basis Set: (CC-PVDZ AUX)
    Blend: CC-PVDZ-JKFIT + DEF2-UNIVERSAL-JKFIT
  Charge       = 1
  Multiplicity = 5
  Basis Set: CC-PVDZ
    Blend: CC-PVDZ
  Basis Set: (CC-PVDZ AUX)
    Blend: CC-PVDZ-JKFIT + DEF2-UNIVERSAL-JKFIT

    Orbital Energies [Eh]
    ---------------------

    Alpha Occupied:

       1A1   -38.629588     2A1   -19.945586     3A1    -2.374345
       4A1    -1.593654     1B1    -1.305232     1B2    -1.305232
       5A1    -1.305187     2B1    -1.001381     2B2    -1.001381
       6A1    -1.000938     7A1    -0.280923

    Alpha Virtual:

       8A1    -0.155141     3B1    -0.139531     3B2    -0.139531
       9A1    -0.091847     4B2    -0.033030     4B1    -0.033030
      10A1    -0.031701    11A1     0.018529     5B2     0.021951
       5B1     0.021951    12A1     0.038990     1A2     0.038991
       6B1     0.394742     6B2     0.394742    13A1     0.441449
      14A1     0.710329     2A2     1.907179    15A1     1.907515
       7B1     1.908881     7B2     1.908881    16A1     1.912409

    Beta Occupied:

       1A1   -38.628243     2A1   -19.860723     3A1    -2.371737
       4A1    -1.341333     1B1    -1.303624     1B2    -1.303624
       5A1    -1.302947

    Beta Virtual:

       2B1    -0.663098     2B2    -0.663098     6A1    -0.662437
       7A1    -0.206422     8A1    -0.138742     3B1    -0.115987
       3B2    -0.115987     9A1    -0.063355    10A1    -0.024624
       4B2    -0.021787     4B1    -0.021787    11A1     0.042004
       5B2     0.045778     5B1     0.045778    12A1     0.055951
       1A2     0.055956     6B1     0.502428     6B2     0.502428
      13A1     0.548416    14A1     0.820902     2A2     2.095482
      15A1     2.095796     7B1     2.097213     7B2     2.097213
      16A1     2.100631

    Final Occupation by Irrep:
             A1    A2    B1    B2
    DOCC [     5,    0,    1,    1 ]
    SOCC [     2,    0,    1,    1 ]
    NA   [     7,    0,    2,    2 ]
    NB   [     5,    0,    1,    1 ]

  @DF-UKS Final Energy:  -236.86486558114930

   => Energetics <=

    Nuclear Repulsion Energy =             12.5349131548181383
    One-Electron Energy =                -349.9370495386074822
    Two-Electron Energy =                 118.7015744263713088
    DFT Exchange-Correlation Energy =     -18.1643036237312252
    Empirical Dispersion Energy =           0.0000000000000000
    VV10 Nonlocal Energy =                  0.0000000000000000
    Total Energy =                       -236.8648655811492745

  UHF NO Occupations:
  HONO-2 :    2 B1 1.0000000
  HONO-1 :    6 A1 1.0000000
  HONO-0 :    7 A1 1.0000000
  LUNO+0 :    8 A1 0.0009778
  LUNO+1 :    9 A1 0.0000012
  LUNO+2 :    3 B1 0.0000006
  LUNO+3 :    3 B2 0.0000006

Computation Completed

Properties will be evaluated at   0.000000,   0.000000,   0.000000 [a0]

Properties computed using the SCF density matrix

 Multipole Moments:

 ------------------------------------------------------------------------------------
     Multipole            Electronic (a.u.)      Nuclear  (a.u.)        Total (a.u.)
 ------------------------------------------------------------------------------------

 L = 1.  Multiply by 2.5417464519 to convert [e a0] to [Debye]
 Dipole X            :          0.0000000            0.0000000            0.0000000
 Dipole Y            :          0.0000000            0.0000000            0.0000000
 Dipole Z            :          0.6389938            1.4359808            2.0749747
 Magnitude           :                                                    2.0749747

 ------------------------------------------------------------------------------------

*** tstop() called on Joses-MacBook-Pro-2.local at Thu Jul 17 14:06:47 2025
Module time:
	user time   =       1.49 seconds =       0.02 minutes
	system time =       3.08 seconds =       0.05 minutes
	total time  =          1 seconds =       0.02 minutes
Total time:
	user time   =      58.68 seconds =       0.98 minutes
	system time =     121.03 seconds =       2.02 minutes
	total time  =         19 seconds =       0.32 minutes

*** tstart() called on Joses-MacBook-Pro-2.local
*** at Thu Jul 17 14:06:47 2025

         ------------------------------------------------------------
                                   SCF GRAD
                          Rob Parrish, Justin Turney,
                       Andy Simmonett, and Alex Sokolov
         ------------------------------------------------------------

  ==> Geometry <==

    Molecular point group: c2v
    Full point group: C_inf_v

    Geometry (in Angstrom), charge = 1, multiplicity = 5:

       Center              X                  Y                   Z               Mass
    ------------   -----------------  -----------------  -----------------  -----------------
         O            0.000000000000     0.000000000000     2.190801709691    15.994914619570
         NA           0.000000000000     0.000000000000    -1.524229576430    22.989769282000

  Nuclear repulsion =   12.534913154818138

  ==> Basis Set <==

  Basis Set: CC-PVDZ
    Blend: CC-PVDZ
    Number of shells: 14
    Number of basis functions: 32
    Number of Cartesian functions: 34
    Spherical Harmonics?: true
    Max angular momentum: 2

  ==> DFJKGrad: Density-Fitted SCF Gradients <==

    Gradient:                    1
    J tasked:                  Yes
    K tasked:                  Yes
    wK tasked:                  No
    OpenMP threads:              1
    Integrals threads:           1
    Memory [MiB]:              375
    Schwarz Cutoff:          1E-12
    Fitting Condition:       1E-10

   => Auxiliary Basis Set <=

  Basis Set: (CC-PVDZ AUX)
    Blend: CC-PVDZ-JKFIT + DEF2-UNIVERSAL-JKFIT
    Number of shells: 58
    Number of basis functions: 182
    Number of Cartesian functions: 218
    Spherical Harmonics?: true
    Max angular momentum: 4

  ==> DFT Potential <==

   => LibXC <=

    Version 6.2.2
    S. Lehtola, C. Steigemann, M. J.T. Oliveira, and M. A.L. Marques.,  SoftwareX 7, 1â€“5 (2018) (10.1016/j.softx.2017.11.002)

   => Composite Functional: B3LYP <=

    B3LYP Hyb-GGA Exchange-Correlation Functional

    P. J. Stephens, F. J. Devlin, C. F. Chabalowski, and M. J. Frisch.,  J. Phys. Chem. 98, 11623 (1994) (10.1021/j100096a001)

    Deriv               =              1
    GGA                 =           TRUE
    Meta                =          FALSE

    Exchange Hybrid     =           TRUE
    MP2 Hybrid          =          FALSE

   => Exchange Functionals <=

    0.0800   Slater exchange
    0.7200         Becke 88

   => Exact (HF) Exchange <=

    0.2000               HF

   => Correlation Functionals <=

    0.1900   Vosko, Wilk & Nusair (VWN5_RPA)
    0.8100   Lee, Yang & Parr

   => LibXC Density Thresholds  <==

    XC_HYB_GGA_XC_B3LYP:  1.00E-15

   => Molecular Quadrature <=

    Radial Scheme          =       TREUTLER
    Pruning Scheme         =           NONE
    Nuclear Scheme         =       TREUTLER

    Blocking Scheme        =         OCTREE
    BS radius alpha        =              1
    Pruning alpha          =              1
    Radial Points          =             75
    Spherical Points       =            302
    Total Points           =          43903
    Total Blocks           =            433
    Max Points             =            256
    Max Functions          =             32
    Weights Tolerance      =       1.00E-15

  -Total Gradient:
     Atom            X                  Y                   Z
    ------   -----------------  -----------------  -----------------
       1        0.000000000000     0.000000000000     0.000001898646
       2        0.000000000000    -0.000000000000     0.000005898718

*** tstop() called on Joses-MacBook-Pro-2.local at Thu Jul 17 14:06:47 2025
Module time:
	user time   =       0.52 seconds =       0.01 minutes
	system time =       2.11 seconds =       0.04 minutes
	total time  =          0 seconds =       0.00 minutes
Total time:
	user time   =      59.21 seconds =       0.99 minutes
	system time =     123.16 seconds =       2.05 minutes
	total time  =         19 seconds =       0.32 minutes

    			-----------------------------------------

    			 OPTKING 3.0: for geometry optimizations

    			     By R.A. King, Bethel University

    			        with contributions from

    			    A.V. Copan, J. Cayton, A. Heide

    			-----------------------------------------

	                            ===> Fragment 1 <==

	 Z (Atomic Numbers)          Masses                          Geom
	       8.000000            15.994915          0.00000000  0.00000000  4.14001523
	      11.000000            22.989769          0.00000000  0.00000000 -2.88037645

	 - Coordinate -           - BOHR/RAD -       - ANG/DEG -
	 R(1,2)           =         7.020392           3.715031

	        --- Internal Coordinate Step in ANG or DEG, aJ/ANG or AJ/DEG ---
	-------------------------------------------------------------------------------
	           Coordinate      Previous         Force          Change          New
	           ----------      --------        ------          ------        ------
	               R(1,2)       3.71503        0.00002        0.00015       3.71519
	-------------------------------------------------------------------------------

	                                 ==> Convergence Check <==

	Measures of convergence in internal coordinates in au.

	Criteria marked as inactive (o), active & met (*), and active & unmet ( ).

	----------------------------------------------------------------------------------------------
	   Step    Total Energy     Delta E     Max Force     RMS Force      Max Disp      RMS Disp
	----------------------------------------------------------------------------------------------
	  Convergence Criteria     1.00e-06 *    3.00e-04 *             o    1.20e-03 *             o
	----------------------------------------------------------------------------------------------
	    18    -236.86486558   -1.59e-07 *    2.00e-06 *    2.00e-06 o    2.92e-04 *    2.92e-04 o  ~
	----------------------------------------------------------------------------------------------

Next Geometry in Ang
	Fragment 1 (Ang)

	    O   0.0000000000   0.0000000000   2.1908790665
	   Na   0.0000000000   0.0000000000  -1.5243069333

    Final optimized geometry and variables:
    Molecular point group: c2v
    Full point group: C_inf_v

    Geometry (in Angstrom), charge = 1, multiplicity = 5:

    O            0.000000000000     0.000000000000     2.190801709691
    NA           0.000000000000     0.000000000000    -1.524229576430

    Psi4 stopped on: Thursday, 17 July 2025 02:06PM
    Psi4 wall time for execution: 0:00:20.08

*** Psi4 exiting successfully. Buy a developer a beer!
