                               Psi4 1.9.1 release

  ==> Input File <==

--------------------------------------------------------------------------
molecule {
1 5
Mg   0.00000        0.60000        0.00000
P   0.00000       -0.60000        0.00000
}

set {
basis              cc-pvdz
reference          uks
maxiter            500
geom_maxiter       500
DAMPING_PERCENTAGE 1
guess              SAP
}

optimize('b3lyp')
--------------------------------------------------------------------------

    Molecular point group: c2v
  Charge       = 1
  Multiplicity = 5
  Basis Set: CC-PVDZ
    Blend: CC-PVDZ
  Basis Set: (CC-PVDZ AUX)
    Blend: CC-PVDZ-JKFIT + DEF2-UNIVERSAL-JKFIT
  @DF-UKS Final Energy:  -539.86891732475840
    Total Energy =                       -539.8689173247583994
 Dipole X            :          0.0000000            0.0000000            0.0000000
 Dipole Y            :          0.0000000            0.0000000            0.0000000
 Dipole Z            :         -0.9720179            0.4914021           -0.4806158
 Magnitude           :                                                    0.4806158
    Molecular point group: c2v
  Basis Set: CC-PVDZ
    Blend: CC-PVDZ
  Basis Set: (CC-PVDZ AUX)
    Blend: CC-PVDZ-JKFIT + DEF2-UNIVERSAL-JKFIT
  Basis Set: CC-PVDZ
    Blend: CC-PVDZ
  Basis Set: (CC-PVDZ AUX)
    Blend: CC-PVDZ-JKFIT + DEF2-UNIVERSAL-JKFIT
  @DF-UKS Final Energy:  -539.88602100085143
    Total Energy =                       -539.8860210008514287
  Basis Set: CC-PVDZ
    Blend: CC-PVDZ
  Basis Set: (CC-PVDZ AUX)
    Blend: CC-PVDZ-JKFIT + DEF2-UNIVERSAL-JKFIT
  Basis Set: CC-PVDZ
    Blend: CC-PVDZ
  @DF-UKS Final Energy:  -539.91905245817225
    Total Energy =                       -539.9190524581722457
  @DF-UKS Final Energy:  -540.03889532229289
    Total Energy =                       -540.0388953222928876
  @DF-UKS Final Energy:  -540.55058245014050
    Total Energy =                       -540.5505824501404959
  @DF-UKS Final Energy:  -540.80704415432649
    Total Energy =                       -540.8070441543264906
  @DF-UKS Final Energy:  -540.94478234655708
    Total Energy =                       -540.9447823465570764
  @DF-UKS Final Energy:  -541.01397991365798
    Total Energy =                       -541.0139799136579768
  @DF-UKS Final Energy:  -541.05097302829199
    Total Energy =                       -541.0509730282919918
  @DF-UKS Final Energy:  -541.07036592118925
    Total Energy =                       -541.0703659211892500
  @DF-UKS Final Energy:  -541.08044959953997
    Total Energy =                       -541.0804495995399748
  @DF-UKS Final Energy:  -541.08551908239633
    Total Energy =                       -541.0855190823963312
  @DF-UKS Final Energy:  -541.08786787480358
    Total Energy =                       -541.0878678748035782
  @DF-UKS Final Energy:  -541.08878931807510
    Total Energy =                       -541.0887893180751007
  @DF-UKS Final Energy:  -541.08905389334905
    Total Energy =                       -541.0890538933490461
  @DF-UKS Final Energy:  -541.08909354797515
    Total Energy =                       -541.0890935479751533
  Basis Set: (CC-PVDZ AUX)
    Blend: CC-PVDZ-JKFIT + DEF2-UNIVERSAL-JKFIT
  Basis Set: CC-PVDZ
    Blend: CC-PVDZ
  Basis Set: (CC-PVDZ AUX)
    Blend: CC-PVDZ-JKFIT + DEF2-UNIVERSAL-JKFIT
  @DF-UKS Final Energy:  -541.08910016751372
    Total Energy =                       -541.0891001675137204
  Basis Set: CC-PVDZ
    Blend: CC-PVDZ
  Basis Set: (CC-PVDZ AUX)
    Blend: CC-PVDZ-JKFIT + DEF2-UNIVERSAL-JKFIT
  Charge       = 1
  Multiplicity = 5
  Basis Set: CC-PVDZ
    Blend: CC-PVDZ
  Basis Set: (CC-PVDZ AUX)
    Blend: CC-PVDZ-JKFIT + DEF2-UNIVERSAL-JKFIT

    Orbital Energies [Eh]
    ---------------------

    Alpha Occupied:

       1A1   -77.303835     2A1   -47.140937     3A1    -6.771410
       4A1    -4.935106     1B1    -4.934603     1B2    -4.934603
       5A1    -3.412665     2B2    -2.155641     2B1    -2.155641
       6A1    -2.155376     7A1    -0.779179     8A1    -0.479477
       3B2    -0.432972     3B1    -0.432972     9A1    -0.411391

    Alpha Virtual:

       4B2    -0.240839     4B1    -0.240839    10A1    -0.215850
      11A1    -0.076386    12A1    -0.039485     5B1    -0.022061
       5B2    -0.022061     6B2     0.056393     6B1     0.056393
       1A2     0.070745    13A1     0.070745    14A1     0.072248
      15A1     0.233576     7B2     0.247777     7B1     0.247777
       2A2     0.256237    16A1     0.256244    17A1     0.262139
       8B2     0.281256     8B1     0.281256    18A1     0.458763

    Beta Occupied:

       1A1   -77.291481     2A1   -47.137417     3A1    -6.758244
       4A1    -4.916593     1B1    -4.915037     1B2    -4.915037
       5A1    -3.406276     2B1    -2.151424     2B2    -2.151424
       6A1    -2.150649     7A1    -0.663831

    Beta Virtual:

       8A1    -0.366777     9A1    -0.290074     3B2    -0.287519
       3B1    -0.287519     4B2    -0.197214     4B1    -0.197214
      10A1    -0.164023    11A1    -0.061366    12A1    -0.014152
       5B1    -0.004755     5B2    -0.004755     6B2     0.103743
       6B1     0.103743    13A1     0.113717     1A2     0.113718
      14A1     0.120036    15A1     0.278673     7B2     0.303639
       7B1     0.303639    16A1     0.333746     2A2     0.354032
      17A1     0.354038     8B1     0.363925     8B2     0.363925
      18A1     0.512514

    Final Occupation by Irrep:
             A1    A2    B1    B2
    DOCC [     7,    0,    2,    2 ]
    SOCC [     2,    0,    1,    1 ]
    NA   [     9,    0,    3,    3 ]
    NB   [     7,    0,    2,    2 ]

  @DF-UKS Final Energy:  -541.08910043018682

   => Energetics <=

    Nuclear Repulsion Energy =             28.8430284946845994
    One-Electron Energy =                -802.3201871026129766
    Two-Electron Energy =                 264.1686666876338450
    DFT Exchange-Correlation Energy =     -31.7806085098923319
    Empirical Dispersion Energy =           0.0000000000000000
    VV10 Nonlocal Energy =                  0.0000000000000000
    Total Energy =                       -541.0891004301868179

  UHF NO Occupations:
  HONO-2 :    8 A1 1.0000000
  HONO-1 :    3 B2 1.0000000
  HONO-0 :    9 A1 1.0000000
  LUNO+0 :   10 A1 0.0001714
  LUNO+1 :    4 B1 0.0000015
  LUNO+2 :    4 B2 0.0000015
  LUNO+3 :   11 A1 0.0000011

Computation Completed

Properties will be evaluated at   0.000000,   0.000000,   0.000000 [a0]

Properties computed using the SCF density matrix

 Multipole Moments:

 ------------------------------------------------------------------------------------
     Multipole            Electronic (a.u.)      Nuclear  (a.u.)        Total (a.u.)
 ------------------------------------------------------------------------------------

 L = 1.  Multiply by 2.5417464519 to convert [e a0] to [Debye]
 Dipole X            :          0.0000000            0.0000000            0.0000000
 Dipole Y            :          0.0000000            0.0000000            0.0000000
 Dipole Z            :          1.0060162            1.3523484            2.3583645
 Magnitude           :                                                    2.3583645

 ------------------------------------------------------------------------------------

*** tstop() called on Joses-MacBook-Pro-2.local at Thu Jul 17 15:07:55 2025
Module time:
	user time   =       6.96 seconds =       0.12 minutes
	system time =       2.06 seconds =       0.03 minutes
	total time  =          0 seconds =       0.00 minutes
Total time:
	user time   =     219.72 seconds =       3.66 minutes
	system time =      60.11 seconds =       1.00 minutes
	total time  =         26 seconds =       0.43 minutes

*** tstart() called on Joses-MacBook-Pro-2.local
*** at Thu Jul 17 15:07:55 2025

         ------------------------------------------------------------
                                   SCF GRAD
                          Rob Parrish, Justin Turney,
                       Andy Simmonett, and Alex Sokolov
         ------------------------------------------------------------

  ==> Geometry <==

    Molecular point group: c2v
    Full point group: C_inf_v

    Geometry (in Angstrom), charge = 1, multiplicity = 5:

       Center              X                  Y                   Z               Mass
    ------------   -----------------  -----------------  -----------------  -----------------
         MG           0.000000000000     0.000000000000     1.861184662787    23.985041697000
         P            0.000000000000     0.000000000000    -1.441238934588    30.973761998420

  Nuclear repulsion =   28.843028494684599

  ==> Basis Set <==

  Basis Set: CC-PVDZ
    Blend: CC-PVDZ
    Number of shells: 16
    Number of basis functions: 36
    Number of Cartesian functions: 38
    Spherical Harmonics?: true
    Max angular momentum: 2

  ==> DFJKGrad: Density-Fitted SCF Gradients <==

    Gradient:                    1
    J tasked:                  Yes
    K tasked:                  Yes
    wK tasked:                  No
    OpenMP threads:              1
    Integrals threads:           1
    Memory [MiB]:              375
    Schwarz Cutoff:          1E-12
    Fitting Condition:       1E-10

   => Auxiliary Basis Set <=

  Basis Set: (CC-PVDZ AUX)
    Blend: CC-PVDZ-JKFIT + DEF2-UNIVERSAL-JKFIT
    Number of shells: 70
    Number of basis functions: 224
    Number of Cartesian functions: 267
    Spherical Harmonics?: true
    Max angular momentum: 4

  ==> DFT Potential <==

   => LibXC <=

    Version 6.2.2
    S. Lehtola, C. Steigemann, M. J.T. Oliveira, and M. A.L. Marques.,  SoftwareX 7, 1â€“5 (2018) (10.1016/j.softx.2017.11.002)

   => Composite Functional: B3LYP <=

    B3LYP Hyb-GGA Exchange-Correlation Functional

    P. J. Stephens, F. J. Devlin, C. F. Chabalowski, and M. J. Frisch.,  J. Phys. Chem. 98, 11623 (1994) (10.1021/j100096a001)

    Deriv               =              1
    GGA                 =           TRUE
    Meta                =          FALSE

    Exchange Hybrid     =           TRUE
    MP2 Hybrid          =          FALSE

   => Exchange Functionals <=

    0.0800   Slater exchange
    0.7200         Becke 88

   => Exact (HF) Exchange <=

    0.2000               HF

   => Correlation Functionals <=

    0.1900   Vosko, Wilk & Nusair (VWN5_RPA)
    0.8100   Lee, Yang & Parr

   => LibXC Density Thresholds  <==

    XC_HYB_GGA_XC_B3LYP:  1.00E-15

   => Molecular Quadrature <=

    Radial Scheme          =       TREUTLER
    Pruning Scheme         =           NONE
    Nuclear Scheme         =       TREUTLER

    Blocking Scheme        =         OCTREE
    BS radius alpha        =              1
    Pruning alpha          =              1
    Radial Points          =             75
    Spherical Points       =            302
    Total Points           =          43061
    Total Blocks           =            421
    Max Points             =            253
    Max Functions          =             36
    Weights Tolerance      =       1.00E-15

  -Total Gradient:
     Atom            X                  Y                   Z
    ------   -----------------  -----------------  -----------------
       1        0.000000000000     0.000000000000     0.000000342537
       2        0.000000000000     0.000000000000     0.000034991676

*** tstop() called on Joses-MacBook-Pro-2.local at Thu Jul 17 15:07:56 2025
Module time:
	user time   =       2.27 seconds =       0.04 minutes
	system time =       1.40 seconds =       0.02 minutes
	total time  =          1 seconds =       0.02 minutes
Total time:
	user time   =     222.00 seconds =       3.70 minutes
	system time =      61.51 seconds =       1.03 minutes
	total time  =         27 seconds =       0.45 minutes

    			-----------------------------------------

    			 OPTKING 3.0: for geometry optimizations

    			     By R.A. King, Bethel University

    			        with contributions from

    			    A.V. Copan, J. Cayton, A. Heide

    			-----------------------------------------

	                            ===> Fragment 1 <==

	 Z (Atomic Numbers)          Masses                          Geom
	      12.000000            23.985042          0.00000000  0.00000000  3.51712928
	      15.000000            30.973762          0.00000000  0.00000000 -2.72354687

	 - Coordinate -           - BOHR/RAD -       - ANG/DEG -
	 R(1,2)           =         6.240676           3.302424

	        --- Internal Coordinate Step in ANG or DEG, aJ/ANG or AJ/DEG ---
	-------------------------------------------------------------------------------
	           Coordinate      Previous         Force          Change          New
	           ----------      --------        ------          ------        ------
	               R(1,2)       3.30242        0.00014        0.00145       3.30387
	-------------------------------------------------------------------------------

	                                 ==> Convergence Check <==

	Measures of convergence in internal coordinates in au.

	Criteria marked as inactive (o), active & met (*), and active & unmet ( ).

	----------------------------------------------------------------------------------------------
	   Step    Total Energy     Delta E     Max Force     RMS Force      Max Disp      RMS Disp
	----------------------------------------------------------------------------------------------
	  Convergence Criteria     1.00e-06 *    3.00e-04 *             o    1.20e-03 *             o
	----------------------------------------------------------------------------------------------
	    18    -541.08910043   -2.63e-07 *    1.73e-05 *    1.73e-05 o    2.74e-03      2.74e-03 o  ~
	----------------------------------------------------------------------------------------------

Next Geometry in Ang
	Fragment 1 (Ang)

	   Mg   0.0000000000   0.0000000000   1.8619084170
	    P   0.0000000000   0.0000000000  -1.4419626888

    Final optimized geometry and variables:
    Molecular point group: c2v
    Full point group: C_inf_v

    Geometry (in Angstrom), charge = 1, multiplicity = 5:

    MG           0.000000000000     0.000000000000     1.861184662787
    P            0.000000000000     0.000000000000    -1.441238934588

    Psi4 stopped on: Thursday, 17 July 2025 03:07PM
    Psi4 wall time for execution: 0:00:27.59

*** Psi4 exiting successfully. Buy a developer a beer!
