                               Psi4 1.9.1 release

  ==> Input File <==

--------------------------------------------------------------------------
molecule {
1 5
F   0.00000        0.60000        0.00000
Si   0.00000       -0.60000        0.00000
}

set {
basis              cc-pvdz
reference          uks
maxiter            500
geom_maxiter       500
DAMPING_PERCENTAGE 1
guess              SAP
}

optimize('b3lyp')
--------------------------------------------------------------------------

    Molecular point group: c2v
  Charge       = 1
  Multiplicity = 5
  Basis Set: CC-PVDZ
    Blend: CC-PVDZ
  Basis Set: (CC-PVDZ AUX)
    Blend: CC-PVDZ-JKFIT
  @DF-UKS Final Energy:  -388.11587843124175
    Total Energy =                       -388.1158784312417538
 Dipole X            :          0.0000000            0.0000000            0.0000000
 Dipole Y            :          0.0000000            0.0000000            0.0000000
 Dipole Z            :          1.2692799           -0.6847767            0.5845032
 Magnitude           :                                                    0.5845032
    Molecular point group: c2v
  Basis Set: CC-PVDZ
    Blend: CC-PVDZ
  Basis Set: (CC-PVDZ AUX)
    Blend: CC-PVDZ-JKFIT
  Basis Set: CC-PVDZ
    Blend: CC-PVDZ
  Basis Set: (CC-PVDZ AUX)
    Blend: CC-PVDZ-JKFIT
  @DF-UKS Final Energy:  -388.33391338782229
    Total Energy =                       -388.3339133878222924
  Basis Set: CC-PVDZ
    Blend: CC-PVDZ
  Basis Set: (CC-PVDZ AUX)
    Blend: CC-PVDZ-JKFIT
  Basis Set: CC-PVDZ
    Blend: CC-PVDZ
  @DF-UKS Final Energy:  -388.46191985590752
    Total Energy =                       -388.4619198559075244
  @DF-UKS Final Energy:  -388.53372904949060
    Total Energy =                       -388.5337290494906028
  @DF-UKS Final Energy:  -388.57270576981375
    Total Energy =                       -388.5727057698137514
  @DF-UKS Final Energy:  -388.59362862273878
    Total Energy =                       -388.5936286227387768
  @DF-UKS Final Energy:  -388.60439449030599
    Total Energy =                       -388.6043944903060492
  @DF-UKS Final Energy:  -388.60970670906846
    Total Energy =                       -388.6097067090684618
  @DF-UKS Final Energy:  -388.61224215805862
    Total Energy =                       -388.6122421580586206
  @DF-UKS Final Energy:  -388.61341281626494
    Total Energy =                       -388.6134128162649404
  @DF-UKS Final Energy:  -388.61393541029958
    Total Energy =                       -388.6139354102995753
  @DF-UKS Final Energy:  -388.61410390701343
    Total Energy =                       -388.6141039070134866
  @DF-UKS Final Energy:  -388.61419463322954
    Total Energy =                       -388.6141946332295447
  @DF-UKS Final Energy:  -388.61423360775899
    Total Energy =                       -388.6142336077590471
  @DF-UKS Final Energy:  -388.61424268517396
    Total Energy =                       -388.6142426851740197
  Basis Set: (CC-PVDZ AUX)
    Blend: CC-PVDZ-JKFIT
  Basis Set: CC-PVDZ
    Blend: CC-PVDZ
  Basis Set: (CC-PVDZ AUX)
    Blend: CC-PVDZ-JKFIT
  @DF-UKS Final Energy:  -388.61424521917365
    Total Energy =                       -388.6142452191736538
  Basis Set: CC-PVDZ
    Blend: CC-PVDZ
  Basis Set: (CC-PVDZ AUX)
    Blend: CC-PVDZ-JKFIT
  Charge       = 1
  Multiplicity = 5
  Basis Set: CC-PVDZ
    Blend: CC-PVDZ
  Basis Set: (CC-PVDZ AUX)
    Blend: CC-PVDZ-JKFIT

    Orbital Energies [Eh]
    ---------------------

    Alpha Occupied:

       1A1   -66.584162     2A1   -24.986698     3A1    -5.718343
       4A1    -4.081767     1B1    -4.076153     1B2    -4.076153
       5A1    -1.414764     6A1    -0.809984     7A1    -0.743182
       2B1    -0.650400     2B2    -0.650400     3B1    -0.513587
       3B2    -0.513587

    Alpha Virtual:

       8A1    -0.437214     9A1    -0.020097     1A2     0.013987
      10A1     0.013987     4B2     0.017301     4B1     0.017301
      11A1     0.021446     5B2     0.034793     5B1     0.034793
      12A1     0.059607     6B1     0.904781     6B2     0.904781
      13A1     0.913555    14A1     1.326469    15A1     3.236638
       7B2     3.257325     7B1     3.257325     2A2     3.329510
      16A1     3.329612

    Beta Occupied:

       1A1   -66.569107     2A1   -24.956429     3A1    -5.698196
       4A1    -4.069687     1B2    -4.051414     1B1    -4.051414
       5A1    -1.325160     2B1    -0.618998     2B2    -0.618998

    Beta Virtual:

       6A1    -0.603059     7A1    -0.463944     8A1    -0.345812
       3B2    -0.321295     3B1    -0.321295     9A1     0.030136
      10A1     0.082364     4B2     0.093315     4B1     0.093315
      11A1     0.114475     5B2     0.128815     5B1     0.128815
       1A2     0.157363    12A1     0.157364     6B1     0.922481
       6B2     0.922481    13A1     1.019611    14A1     1.373961
       2A2     3.344841    15A1     3.344931     7B2     3.351003
       7B1     3.351003    16A1     3.370824

    Final Occupation by Irrep:
             A1    A2    B1    B2
    DOCC [     5,    0,    2,    2 ]
    SOCC [     2,    0,    1,    1 ]
    NA   [     7,    0,    3,    3 ]
    NB   [     5,    0,    2,    2 ]

  @DF-UKS Final Energy:  -388.61424605264716

   => Energetics <=

    Nuclear Repulsion Energy =             22.4856079516893033
    One-Electron Energy =                -577.5925511634948180
    Two-Electron Energy =                 191.4580294387989738
    DFT Exchange-Correlation Energy =     -24.9653322796405490
    Empirical Dispersion Energy =           0.0000000000000000
    VV10 Nonlocal Energy =                  0.0000000000000000
    Total Energy =                       -388.6142460526471041

  UHF NO Occupations:
  HONO-2 :    7 A1 1.0000000
  HONO-1 :    3 B1 1.0000000
  HONO-0 :    3 B2 1.0000000
  LUNO+0 :    8 A1 0.0003003
  LUNO+1 :    4 B2 0.0000629
  LUNO+2 :    4 B1 0.0000629
  LUNO+3 :    9 A1 0.0000011

Computation Completed

Properties will be evaluated at   0.000000,   0.000000,   0.000000 [a0]

Properties computed using the SCF density matrix

 Multipole Moments:

 ------------------------------------------------------------------------------------
     Multipole            Electronic (a.u.)      Nuclear  (a.u.)        Total (a.u.)
 ------------------------------------------------------------------------------------

 L = 1.  Multiply by 2.5417464519 to convert [e a0] to [Debye]
 Dipole X            :          0.0000000            0.0000000            0.0000000
 Dipole Y            :          0.0000000            0.0000000            0.0000000
 Dipole Z            :         -0.4312841           -1.6921341           -2.1234182
 Magnitude           :                                                    2.1234182

 ------------------------------------------------------------------------------------

*** tstop() called on Joses-MacBook-Pro-2.local at Thu Jul 17 14:28:59 2025
Module time:
	user time   =       3.49 seconds =       0.06 minutes
	system time =       2.82 seconds =       0.05 minutes
	total time  =          1 seconds =       0.02 minutes
Total time:
	user time   =      80.92 seconds =       1.35 minutes
	system time =      80.45 seconds =       1.34 minutes
	total time  =         16 seconds =       0.27 minutes

*** tstart() called on Joses-MacBook-Pro-2.local
*** at Thu Jul 17 14:28:59 2025

         ------------------------------------------------------------
                                   SCF GRAD
                          Rob Parrish, Justin Turney,
                       Andy Simmonett, and Alex Sokolov
         ------------------------------------------------------------

  ==> Geometry <==

    Molecular point group: c2v
    Full point group: C_inf_v

    Geometry (in Angstrom), charge = 1, multiplicity = 5:

       Center              X                  Y                   Z               Mass
    ------------   -----------------  -----------------  -----------------  -----------------
         F            0.000000000000     0.000000000000     1.766026471979    18.998403162730
         SI           0.000000000000     0.000000000000    -1.199262644850    27.976926534650

  Nuclear repulsion =   22.485607951689303

  ==> Basis Set <==

  Basis Set: CC-PVDZ
    Blend: CC-PVDZ
    Number of shells: 14
    Number of basis functions: 32
    Number of Cartesian functions: 34
    Spherical Harmonics?: true
    Max angular momentum: 2

  ==> DFJKGrad: Density-Fitted SCF Gradients <==

    Gradient:                    1
    J tasked:                  Yes
    K tasked:                  Yes
    wK tasked:                  No
    OpenMP threads:              1
    Integrals threads:           1
    Memory [MiB]:              375
    Schwarz Cutoff:          1E-12
    Fitting Condition:       1E-10

   => Auxiliary Basis Set <=

  Basis Set: (CC-PVDZ AUX)
    Blend: CC-PVDZ-JKFIT
    Number of shells: 60
    Number of basis functions: 182
    Number of Cartesian functions: 211
    Spherical Harmonics?: true
    Max angular momentum: 3

  ==> DFT Potential <==

   => LibXC <=

    Version 6.2.2
    S. Lehtola, C. Steigemann, M. J.T. Oliveira, and M. A.L. Marques.,  SoftwareX 7, 1â€“5 (2018) (10.1016/j.softx.2017.11.002)

   => Composite Functional: B3LYP <=

    B3LYP Hyb-GGA Exchange-Correlation Functional

    P. J. Stephens, F. J. Devlin, C. F. Chabalowski, and M. J. Frisch.,  J. Phys. Chem. 98, 11623 (1994) (10.1021/j100096a001)

    Deriv               =              1
    GGA                 =           TRUE
    Meta                =          FALSE

    Exchange Hybrid     =           TRUE
    MP2 Hybrid          =          FALSE

   => Exchange Functionals <=

    0.0800   Slater exchange
    0.7200         Becke 88

   => Exact (HF) Exchange <=

    0.2000               HF

   => Correlation Functionals <=

    0.1900   Vosko, Wilk & Nusair (VWN5_RPA)
    0.8100   Lee, Yang & Parr

   => LibXC Density Thresholds  <==

    XC_HYB_GGA_XC_B3LYP:  1.00E-15

   => Molecular Quadrature <=

    Radial Scheme          =       TREUTLER
    Pruning Scheme         =           NONE
    Nuclear Scheme         =       TREUTLER

    Blocking Scheme        =         OCTREE
    BS radius alpha        =              1
    Pruning alpha          =              1
    Radial Points          =             75
    Spherical Points       =            302
    Total Points           =          43030
    Total Blocks           =            394
    Max Points             =            256
    Max Functions          =             32
    Weights Tolerance      =       1.00E-15

  -Total Gradient:
     Atom            X                  Y                   Z
    ------   -----------------  -----------------  -----------------
       1       -0.000000000000     0.000000000000    -0.000029939794
       2        0.000000000000    -0.000000000000     0.000036269298

*** tstop() called on Joses-MacBook-Pro-2.local at Thu Jul 17 14:28:59 2025
Module time:
	user time   =       0.44 seconds =       0.01 minutes
	system time =       1.71 seconds =       0.03 minutes
	total time  =          0 seconds =       0.00 minutes
Total time:
	user time   =      81.37 seconds =       1.36 minutes
	system time =      82.16 seconds =       1.37 minutes
	total time  =         16 seconds =       0.27 minutes

    			-----------------------------------------

    			 OPTKING 3.0: for geometry optimizations

    			     By R.A. King, Bethel University

    			        with contributions from

    			    A.V. Copan, J. Cayton, A. Heide

    			-----------------------------------------

	                            ===> Fragment 1 <==

	 Z (Atomic Numbers)          Masses                          Geom
	       9.000000            18.998403          0.00000000  0.00000000  3.33730636
	      14.000000            27.976927          0.00000000  0.00000000 -2.26627795

	 - Coordinate -           - BOHR/RAD -       - ANG/DEG -
	 R(1,2)           =         5.603584           2.965289

	        --- Internal Coordinate Step in ANG or DEG, aJ/ANG or AJ/DEG ---
	-------------------------------------------------------------------------------
	           Coordinate      Previous         Force          Change          New
	           ----------      --------        ------          ------        ------
	               R(1,2)       2.96529        0.00027        0.01097       2.97626
	-------------------------------------------------------------------------------

	                                 ==> Convergence Check <==

	Measures of convergence in internal coordinates in au.

	Criteria marked as inactive (o), active & met (*), and active & unmet ( ).

	----------------------------------------------------------------------------------------------
	   Step    Total Energy     Delta E     Max Force     RMS Force      Max Disp      RMS Disp
	----------------------------------------------------------------------------------------------
	  Convergence Criteria     1.00e-06 *    3.00e-04 *             o    1.20e-03 *             o
	----------------------------------------------------------------------------------------------
	    17    -388.61424605   -8.33e-07 *    3.31e-05 *    3.31e-05 o    2.07e-02      2.07e-02 o  ~
	----------------------------------------------------------------------------------------------

Next Geometry in Ang
	Fragment 1 (Ang)

	    F   0.0000000000   0.0000000000   1.7715101782
	   Si   0.0000000000   0.0000000000  -1.2047463511

    Final optimized geometry and variables:
    Molecular point group: c2v
    Full point group: C_inf_v

    Geometry (in Angstrom), charge = 1, multiplicity = 5:

    F            0.000000000000     0.000000000000     1.766026471979
    SI           0.000000000000     0.000000000000    -1.199262644850

    Psi4 stopped on: Thursday, 17 July 2025 02:28PM
    Psi4 wall time for execution: 0:00:16.51

*** Psi4 exiting successfully. Buy a developer a beer!
