                               Psi4 1.9.1 release

  ==> Input File <==

--------------------------------------------------------------------------
molecule {
1 5
Li   0.00000        0.60000        0.00000
Mg   0.00000       -0.60000        0.00000
}

set {
basis              cc-pvdz
reference          uks
maxiter            500
geom_maxiter       500
DAMPING_PERCENTAGE 1
guess              SAP
}

optimize('b3lyp')
--------------------------------------------------------------------------

    Molecular point group: c2v
  Charge       = 1
  Multiplicity = 5
  Basis Set: CC-PVDZ
    Blend: CC-PVDZ
  Basis Set: (CC-PVDZ AUX)
    Blend: DEF2-UNIVERSAL-JKFIT
  @DF-UKS Final Energy:  -204.96374352329903
    Total Energy =                       -204.9637435232990583
 Dipole X            :          0.0000000            0.0000000            0.0000000
 Dipole Y            :          0.0000000            0.0000000            0.0000000
 Dipole Z            :          0.8717624           -0.8951087           -0.0233462
 Magnitude           :                                                    0.0233462
    Molecular point group: c2v
  Basis Set: CC-PVDZ
    Blend: CC-PVDZ
  Basis Set: (CC-PVDZ AUX)
    Blend: DEF2-UNIVERSAL-JKFIT
  Basis Set: CC-PVDZ
    Blend: CC-PVDZ
  Basis Set: (CC-PVDZ AUX)
    Blend: DEF2-UNIVERSAL-JKFIT
  @DF-UKS Final Energy:  -205.00804703305451
    Total Energy =                       -205.0080470330545097
  Basis Set: CC-PVDZ
    Blend: CC-PVDZ
  Basis Set: (CC-PVDZ AUX)
    Blend: DEF2-UNIVERSAL-JKFIT
  Basis Set: CC-PVDZ
    Blend: CC-PVDZ
  @DF-UKS Final Energy:  -205.06946181976969
    Total Energy =                       -205.0694618197696855
  @DF-UKS Final Energy:  -205.17898928455125
    Total Energy =                       -205.1789892845512497
  @DF-UKS Final Energy:  -205.23793435414103
    Total Energy =                       -205.2379343541410321
  @DF-UKS Final Energy:  -205.26330800679733
    Total Energy =                       -205.2633080067973310
  @DF-UKS Final Energy:  -205.27339482414163
    Total Energy =                       -205.2733948241416329
  @DF-UKS Final Energy:  -205.27711518059715
    Total Energy =                       -205.2771151805971499
  @DF-UKS Final Energy:  -205.27800418835480
    Total Energy =                       -205.2780041883548279
  @DF-UKS Final Energy:  -205.27810289919699
    Total Energy =                       -205.2781028991969663
  Basis Set: (CC-PVDZ AUX)
    Blend: DEF2-UNIVERSAL-JKFIT
  Basis Set: CC-PVDZ
    Blend: CC-PVDZ
  Basis Set: (CC-PVDZ AUX)
    Blend: DEF2-UNIVERSAL-JKFIT
  @DF-UKS Final Energy:  -205.27811591757697
    Total Energy =                       -205.2781159175769687
  Basis Set: CC-PVDZ
    Blend: CC-PVDZ
  Basis Set: (CC-PVDZ AUX)
    Blend: DEF2-UNIVERSAL-JKFIT
  Charge       = 1
  Multiplicity = 5
  Basis Set: CC-PVDZ
    Blend: CC-PVDZ
  Basis Set: (CC-PVDZ AUX)
    Blend: DEF2-UNIVERSAL-JKFIT

    Orbital Energies [Eh]
    ---------------------

    Alpha Occupied:

       1A1   -48.037297     2A1    -3.959224     3A1    -2.793596
       1B2    -2.682707     1B1    -2.682707     4A1    -2.631228
       5A1    -0.545986     2B2    -0.342839     2B1    -0.342839

    Alpha Virtual:

       6A1    -0.336970     7A1    -0.237487     3B1    -0.198817
       3B2    -0.198817     8A1    -0.104126     9A1    -0.089727
       4B2    -0.080091     4B1    -0.080091    10A1    -0.057102
      11A1    -0.032810     5B2    -0.017732     5B1    -0.017732
      12A1    -0.011276     1A2    -0.011276     6B2     0.009711
       6B1     0.009711    13A1     0.040117    14A1     0.088777
       2A2     0.088777    15A1     0.171990     7B2     0.216853
       7B1     0.216853    16A1     0.410154

    Beta Occupied:

       1A1   -47.995230     2A1    -3.856394     1B2    -2.636709
       1B1    -2.636709     3A1    -2.484575

    Beta Virtual:

       4A1    -2.441056     5A1    -0.388568     6A1    -0.271255
       7A1    -0.219807     2B2    -0.215201     2B1    -0.215201
       3B1    -0.152305     3B2    -0.152305     8A1    -0.087521
       4B2    -0.064592     4B1    -0.064592     9A1    -0.061219
      10A1    -0.037148    11A1    -0.007519     5B2     0.011673
       5B1     0.011673     1A2     0.053713    12A1     0.053736
       6B2     0.064600     6B1     0.064600    13A1     0.067093
      14A1     0.163875     2A2     0.164046    15A1     0.207200
       7B2     0.264618     7B1     0.264618    16A1     0.442773

    Final Occupation by Irrep:
             A1    A2    B1    B2
    DOCC [     3,    0,    1,    1 ]
    SOCC [     2,    0,    1,    1 ]
    NA   [     5,    0,    2,    2 ]
    NB   [     3,    0,    1,    1 ]

  @DF-UKS Final Energy:  -205.27811644686437

   => Energetics <=

    Nuclear Repulsion Energy =              7.5313446613451625
    One-Electron Energy =                -292.0070912990785246
    Two-Electron Energy =                  93.1507209685259738
    DFT Exchange-Correlation Energy =     -13.9530907776569553
    Empirical Dispersion Energy =           0.0000000000000000
    VV10 Nonlocal Energy =                  0.0000000000000000
    Total Energy =                       -205.2781164468643738

  UHF NO Occupations:
  HONO-2 :    2 B2 1.0000000
  HONO-1 :    4 A1 1.0000000
  HONO-0 :    5 A1 1.0000000
  LUNO+0 :    6 A1 0.0000618
  LUNO+1 :    7 A1 0.0000019
  LUNO+2 :    3 B2 0.0000009
  LUNO+3 :    3 B1 0.0000009

Computation Completed

Properties will be evaluated at   0.000000,   0.000000,   0.000000 [a0]

Properties computed using the SCF density matrix

 Multipole Moments:

 ------------------------------------------------------------------------------------
     Multipole            Electronic (a.u.)      Nuclear  (a.u.)        Total (a.u.)
 ------------------------------------------------------------------------------------

 L = 1.  Multiply by 2.5417464519 to convert [e a0] to [Debye]
 Dipole X            :          0.0000000            0.0000000            0.0000000
 Dipole Y            :          0.0000000            0.0000000            0.0000000
 Dipole Z            :          3.6102899           -1.8867990            1.7234909
 Magnitude           :                                                    1.7234909

 ------------------------------------------------------------------------------------

*** tstop() called on Joses-MacBook-Pro-2.local at Thu Jul 17 12:52:47 2025
Module time:
	user time   =       5.09 seconds =       0.08 minutes
	system time =       3.72 seconds =       0.06 minutes
	total time  =          1 seconds =       0.02 minutes
Total time:
	user time   =      98.43 seconds =       1.64 minutes
	system time =      74.73 seconds =       1.25 minutes
	total time  =         18 seconds =       0.30 minutes

*** tstart() called on Joses-MacBook-Pro-2.local
*** at Thu Jul 17 12:52:47 2025

         ------------------------------------------------------------
                                   SCF GRAD
                          Rob Parrish, Justin Turney,
                       Andy Simmonett, and Alex Sokolov
         ------------------------------------------------------------

  ==> Geometry <==

    Molecular point group: c2v
    Full point group: C_inf_v

    Geometry (in Angstrom), charge = 1, multiplicity = 5:

       Center              X                  Y                   Z               Mass
    ------------   -----------------  -----------------  -----------------  -----------------
         LI           0.000000000000     0.000000000000     1.957019950528     7.016003436600
         MG           0.000000000000     0.000000000000    -0.572459238214    23.985041697000

  Nuclear repulsion =    7.531344661345162

  ==> Basis Set <==

  Basis Set: CC-PVDZ
    Blend: CC-PVDZ
    Number of shells: 14
    Number of basis functions: 32
    Number of Cartesian functions: 34
    Spherical Harmonics?: true
    Max angular momentum: 2

  ==> DFJKGrad: Density-Fitted SCF Gradients <==

    Gradient:                    1
    J tasked:                  Yes
    K tasked:                  Yes
    wK tasked:                  No
    OpenMP threads:              1
    Integrals threads:           1
    Memory [MiB]:              375
    Schwarz Cutoff:          1E-12
    Fitting Condition:       1E-10

   => Auxiliary Basis Set <=

  Basis Set: (CC-PVDZ AUX)
    Blend: DEF2-UNIVERSAL-JKFIT
    Number of shells: 51
    Number of basis functions: 163
    Number of Cartesian functions: 197
    Spherical Harmonics?: true
    Max angular momentum: 4

  ==> DFT Potential <==

   => LibXC <=

    Version 6.2.2
    S. Lehtola, C. Steigemann, M. J.T. Oliveira, and M. A.L. Marques.,  SoftwareX 7, 1â€“5 (2018) (10.1016/j.softx.2017.11.002)

   => Composite Functional: B3LYP <=

    B3LYP Hyb-GGA Exchange-Correlation Functional

    P. J. Stephens, F. J. Devlin, C. F. Chabalowski, and M. J. Frisch.,  J. Phys. Chem. 98, 11623 (1994) (10.1021/j100096a001)

    Deriv               =              1
    GGA                 =           TRUE
    Meta                =          FALSE

    Exchange Hybrid     =           TRUE
    MP2 Hybrid          =          FALSE

   => Exchange Functionals <=

    0.0800   Slater exchange
    0.7200         Becke 88

   => Exact (HF) Exchange <=

    0.2000               HF

   => Correlation Functionals <=

    0.1900   Vosko, Wilk & Nusair (VWN5_RPA)
    0.8100   Lee, Yang & Parr

   => LibXC Density Thresholds  <==

    XC_HYB_GGA_XC_B3LYP:  1.00E-15

   => Molecular Quadrature <=

    Radial Scheme          =       TREUTLER
    Pruning Scheme         =           NONE
    Nuclear Scheme         =       TREUTLER

    Blocking Scheme        =         OCTREE
    BS radius alpha        =              1
    Pruning alpha          =              1
    Radial Points          =             75
    Spherical Points       =            302
    Total Points           =          43828
    Total Blocks           =            451
    Max Points             =            254
    Max Functions          =             32
    Weights Tolerance      =       1.00E-15

  -Total Gradient:
     Atom            X                  Y                   Z
    ------   -----------------  -----------------  -----------------
       1       -0.000000000000    -0.000000000000    -0.000037748614
       2        0.000000000000     0.000000000000     0.000026195399

*** tstop() called on Joses-MacBook-Pro-2.local at Thu Jul 17 12:52:47 2025
Module time:
	user time   =       1.38 seconds =       0.02 minutes
	system time =       1.69 seconds =       0.03 minutes
	total time  =          0 seconds =       0.00 minutes
Total time:
	user time   =      99.81 seconds =       1.66 minutes
	system time =      76.44 seconds =       1.27 minutes
	total time  =         18 seconds =       0.30 minutes

    			-----------------------------------------

    			 OPTKING 3.0: for geometry optimizations

    			     By R.A. King, Bethel University

    			        with contributions from

    			    A.V. Copan, J. Cayton, A. Heide

    			-----------------------------------------

	                            ===> Fragment 1 <==

	 Z (Atomic Numbers)          Masses                          Geom
	       3.000000             7.016003          0.00000000  0.00000000  3.69823173
	      12.000000            23.985042          0.00000000  0.00000000 -1.08179118

	 - Coordinate -           - BOHR/RAD -       - ANG/DEG -
	 R(1,2)           =         4.780023           2.529479

	        --- Internal Coordinate Step in ANG or DEG, aJ/ANG or AJ/DEG ---
	-------------------------------------------------------------------------------
	           Coordinate      Previous         Force          Change          New
	           ----------      --------        ------          ------        ------
	               R(1,2)       2.52948        0.00026        0.00059       2.53006
	-------------------------------------------------------------------------------

	                                 ==> Convergence Check <==

	Measures of convergence in internal coordinates in au.

	Criteria marked as inactive (o), active & met (*), and active & unmet ( ).

	----------------------------------------------------------------------------------------------
	   Step    Total Energy     Delta E     Max Force     RMS Force      Max Disp      RMS Disp
	----------------------------------------------------------------------------------------------
	  Convergence Criteria     1.00e-06 *    3.00e-04 *             o    1.20e-03 *             o
	----------------------------------------------------------------------------------------------
	    12    -205.27811645   -5.29e-07 *    3.20e-05 *    3.20e-05 o    1.11e-03 *    1.11e-03 o  ~
	----------------------------------------------------------------------------------------------

Next Geometry in Ang
	Fragment 1 (Ang)

	   Li   0.0000000000   0.0000000000   1.9573124731
	   Mg   0.0000000000   0.0000000000  -0.5727517608

    Final optimized geometry and variables:
    Molecular point group: c2v
    Full point group: C_inf_v

    Geometry (in Angstrom), charge = 1, multiplicity = 5:

    LI           0.000000000000     0.000000000000     1.957019950528
    MG           0.000000000000     0.000000000000    -0.572459238214

    Psi4 stopped on: Thursday, 17 July 2025 12:52PM
    Psi4 wall time for execution: 0:00:19.67

*** Psi4 exiting successfully. Buy a developer a beer!
