                               Psi4 1.9.1 release

  ==> Input File <==

--------------------------------------------------------------------------
molecule {
1 5
Si   0.00000        0.60000        0.00000
Cl   0.00000       -0.60000        0.00000
}

set {
basis              cc-pvdz
reference          uks
maxiter            500
geom_maxiter       500
DAMPING_PERCENTAGE 1
guess              SAP
}

optimize('b3lyp')
--------------------------------------------------------------------------

    Molecular point group: c2v
  Charge       = 1
  Multiplicity = 5
  Basis Set: CC-PVDZ
    Blend: CC-PVDZ
  Basis Set: (CC-PVDZ AUX)
    Blend: CC-PVDZ-JKFIT
  @DF-UKS Final Energy:  -747.71905541167803
    Total Energy =                       -747.7190554116780277
 Dipole X            :          0.0000000            0.0000000            0.0000000
 Dipole Y            :          0.0000000            0.0000000            0.0000000
 Dipole Z            :         -1.5049809            0.5027826           -1.0021983
 Magnitude           :                                                    1.0021983
    Molecular point group: c2v
  Basis Set: CC-PVDZ
    Blend: CC-PVDZ
  Basis Set: (CC-PVDZ AUX)
    Blend: CC-PVDZ-JKFIT
  Basis Set: CC-PVDZ
    Blend: CC-PVDZ
  Basis Set: (CC-PVDZ AUX)
    Blend: CC-PVDZ-JKFIT
  @DF-UKS Final Energy:  -747.75504998141400
    Total Energy =                       -747.7550499814140039
  Basis Set: CC-PVDZ
    Blend: CC-PVDZ
  Basis Set: (CC-PVDZ AUX)
    Blend: CC-PVDZ-JKFIT
  Basis Set: CC-PVDZ
    Blend: CC-PVDZ
  @DF-UKS Final Energy:  -747.82249713664669
    Total Energy =                       -747.8224971366466889
  @DF-UKS Final Energy:  -748.04757708632553
    Total Energy =                       -748.0475770863254183
  @DF-UKS Final Energy:  -748.59561314974974
    Total Energy =                       -748.5956131497498518
  @DF-UKS Final Energy:  -748.78849337152633
    Total Energy =                       -748.7884933715264424
  @DF-UKS Final Energy:  -749.01196179869260
    Total Energy =                       -749.0119617986925959
  @DF-UKS Final Energy:  -749.09188524325145
    Total Energy =                       -749.0918852432514541
  @DF-UKS Final Energy:  -749.11580759985577
    Total Energy =                       -749.1158075998555432
  @DF-UKS Final Energy:  -749.12662372363195
    Total Energy =                       -749.1266237236320649
  @DF-UKS Final Energy:  -749.12937100948091
    Total Energy =                       -749.1293710094809057
  @DF-UKS Final Energy:  -749.13040423576467
    Total Energy =                       -749.1304042357647859
  @DF-UKS Final Energy:  -749.13062257389868
    Total Energy =                       -749.1306225738985631
  @DF-UKS Final Energy:  -749.13067433028982
    Total Energy =                       -749.1306743302898212
  @DF-UKS Final Energy:  -749.13068986143594
    Total Energy =                       -749.1306898614359397
  Basis Set: (CC-PVDZ AUX)
    Blend: CC-PVDZ-JKFIT
  Basis Set: CC-PVDZ
    Blend: CC-PVDZ
  Basis Set: (CC-PVDZ AUX)
    Blend: CC-PVDZ-JKFIT
  @DF-UKS Final Energy:  -749.13069171699749
    Total Energy =                       -749.1306917169976032
  Basis Set: CC-PVDZ
    Blend: CC-PVDZ
  Basis Set: (CC-PVDZ AUX)
    Blend: CC-PVDZ-JKFIT
  Charge       = 1
  Multiplicity = 5
  Basis Set: CC-PVDZ
    Blend: CC-PVDZ
  Basis Set: (CC-PVDZ AUX)
    Blend: CC-PVDZ-JKFIT

    Orbital Energies [Eh]
    ---------------------

    Alpha Occupied:

       1A1  -101.939920     2A1   -66.465645     3A1    -9.851872
       1B1    -7.623508     4A1    -7.609402     1B2    -7.598847
       5A1    -5.606953     6A1    -3.968507     2B1    -3.965274
       2B2    -3.964984     7A1    -1.185486     8A1    -0.781560
       3B1    -0.721506     3B2    -0.666108     9A1    -0.651655
       4B1    -0.445062     4B2    -0.440650

    Alpha Virtual:

      10A1    -0.312730    11A1    -0.010405     5B1     0.041545
      12A1     0.049724     5B2     0.051573     1A2     0.076368
      13A1     0.076402     6B1     0.077116     6B2     0.080640
      14A1     0.135282     7B1     0.255132     7B2     0.288090
      15A1     0.319441    16A1     0.352467     2A2     0.355761
      17A1     0.407927     8B1     0.428393     8B2     0.464331
      18A1     0.807048

    Beta Occupied:

       1A1  -101.930261     2A1   -66.453275     3A1    -9.842360
       1B1    -7.598348     4A1    -7.598259     1B2    -7.592526
       5A1    -5.590822     6A1    -3.958412     2B1    -3.944281
       2B2    -3.944021     7A1    -1.116456     8A1    -0.713749
       3B2    -0.641033

    Beta Virtual:

       3B1    -0.548070     9A1    -0.497770     4B1    -0.284381
       4B2    -0.283992    10A1    -0.255001    11A1     0.017389
      12A1     0.088293     5B2     0.116707     5B1     0.116843
       6B1     0.132848     6B2     0.134165    13A1     0.178750
       1A2     0.191072    14A1     0.191139     7B2     0.301767
       7B1     0.306838    15A1     0.355176     2A2     0.420111
      16A1     0.425253    17A1     0.439585     8B2     0.498181
       8B1     0.502646    18A1     0.844803

    Final Occupation by Irrep:
             A1    A2    B1    B2
    DOCC [     8,    0,    2,    3 ]
    SOCC [     1,    0,    2,    1 ]
    NA   [     9,    0,    4,    4 ]
    NB   [     8,    0,    2,    3 ]

  @DF-UKS Final Energy:  -749.13069179801471

   => Energetics <=

    Nuclear Repulsion Energy =             53.5189044080822427
    One-Electron Energy =               -1132.9342383822790907
    Two-Electron Energy =                 369.5806962511946949
    DFT Exchange-Correlation Energy =     -39.2960540750126697
    Empirical Dispersion Energy =           0.0000000000000000
    VV10 Nonlocal Energy =                  0.0000000000000000
    Total Energy =                       -749.1306917980147091

  UHF NO Occupations:
  HONO-2 :    4 B2 1.0000000
  HONO-1 :    3 B1 1.0000000
  HONO-0 :    4 B1 1.0000000
  LUNO+0 :   10 A1 0.0011030
  LUNO+1 :   11 A1 0.0006653
  LUNO+2 :    5 B2 0.0001068
  LUNO+3 :   12 A1 0.0000006

Computation Completed

Properties will be evaluated at   0.000000,   0.000000,   0.000000 [a0]

Properties computed using the SCF density matrix

 Multipole Moments:

 ------------------------------------------------------------------------------------
     Multipole            Electronic (a.u.)      Nuclear  (a.u.)        Total (a.u.)
 ------------------------------------------------------------------------------------

 L = 1.  Multiply by 2.5417464519 to convert [e a0] to [Debye]
 Dipole X            :          0.0000000            0.0000000            0.0000000
 Dipole Y            :          0.0000000            0.0000000            0.0000000
 Dipole Z            :         -0.6219172            0.9859841            0.3640669
 Magnitude           :                                                    0.3640669

 ------------------------------------------------------------------------------------

*** tstop() called on Joses-MacBook-Pro-2.local at Thu Jul 17 15:43:06 2025
Module time:
	user time   =       6.76 seconds =       0.11 minutes
	system time =       1.53 seconds =       0.03 minutes
	total time  =          1 seconds =       0.02 minutes
Total time:
	user time   =     195.98 seconds =       3.27 minutes
	system time =      50.44 seconds =       0.84 minutes
	total time  =         24 seconds =       0.40 minutes

*** tstart() called on Joses-MacBook-Pro-2.local
*** at Thu Jul 17 15:43:06 2025

         ------------------------------------------------------------
                                   SCF GRAD
                          Rob Parrish, Justin Turney,
                       Andy Simmonett, and Alex Sokolov
         ------------------------------------------------------------

  ==> Geometry <==

    Molecular point group: c2v
    Full point group: C_inf_v

    Geometry (in Angstrom), charge = 1, multiplicity = 5:

       Center              X                  Y                   Z               Mass
    ------------   -----------------  -----------------  -----------------  -----------------
         SI           0.000000000000     0.000000000000     1.307331256876    27.976926534650
         CL           0.000000000000     0.000000000000    -1.045933959077    34.968852682000

  Nuclear repulsion =   53.518904408082243

  ==> Basis Set <==

  Basis Set: CC-PVDZ
    Blend: CC-PVDZ
    Number of shells: 16
    Number of basis functions: 36
    Number of Cartesian functions: 38
    Spherical Harmonics?: true
    Max angular momentum: 2

  ==> DFJKGrad: Density-Fitted SCF Gradients <==

    Gradient:                    1
    J tasked:                  Yes
    K tasked:                  Yes
    wK tasked:                  No
    OpenMP threads:              1
    Integrals threads:           1
    Memory [MiB]:              375
    Schwarz Cutoff:          1E-12
    Fitting Condition:       1E-10

   => Auxiliary Basis Set <=

  Basis Set: (CC-PVDZ AUX)
    Blend: CC-PVDZ-JKFIT
    Number of shells: 72
    Number of basis functions: 224
    Number of Cartesian functions: 260
    Spherical Harmonics?: true
    Max angular momentum: 3

  ==> DFT Potential <==

   => LibXC <=

    Version 6.2.2
    S. Lehtola, C. Steigemann, M. J.T. Oliveira, and M. A.L. Marques.,  SoftwareX 7, 1â€“5 (2018) (10.1016/j.softx.2017.11.002)

   => Composite Functional: B3LYP <=

    B3LYP Hyb-GGA Exchange-Correlation Functional

    P. J. Stephens, F. J. Devlin, C. F. Chabalowski, and M. J. Frisch.,  J. Phys. Chem. 98, 11623 (1994) (10.1021/j100096a001)

    Deriv               =              1
    GGA                 =           TRUE
    Meta                =          FALSE

    Exchange Hybrid     =           TRUE
    MP2 Hybrid          =          FALSE

   => Exchange Functionals <=

    0.0800   Slater exchange
    0.7200         Becke 88

   => Exact (HF) Exchange <=

    0.2000               HF

   => Correlation Functionals <=

    0.1900   Vosko, Wilk & Nusair (VWN5_RPA)
    0.8100   Lee, Yang & Parr

   => LibXC Density Thresholds  <==

    XC_HYB_GGA_XC_B3LYP:  1.00E-15

   => Molecular Quadrature <=

    Radial Scheme          =       TREUTLER
    Pruning Scheme         =           NONE
    Nuclear Scheme         =       TREUTLER

    Blocking Scheme        =         OCTREE
    BS radius alpha        =              1
    Pruning alpha          =              1
    Radial Points          =             75
    Spherical Points       =            302
    Total Points           =          41627
    Total Blocks           =            385
    Max Points             =            253
    Max Functions          =             36
    Weights Tolerance      =       1.00E-15

  -Total Gradient:
     Atom            X                  Y                   Z
    ------   -----------------  -----------------  -----------------
       1        0.000000000000     0.000000000000    -0.000002223097
       2       -0.000000000000    -0.000000000000     0.000024262734

*** tstop() called on Joses-MacBook-Pro-2.local at Thu Jul 17 15:43:06 2025
Module time:
	user time   =       2.69 seconds =       0.04 minutes
	system time =       0.97 seconds =       0.02 minutes
	total time  =          0 seconds =       0.00 minutes
Total time:
	user time   =     198.67 seconds =       3.31 minutes
	system time =      51.42 seconds =       0.86 minutes
	total time  =         24 seconds =       0.40 minutes

    			-----------------------------------------

    			 OPTKING 3.0: for geometry optimizations

    			     By R.A. King, Bethel University

    			        with contributions from

    			    A.V. Copan, J. Cayton, A. Heide

    			-----------------------------------------

	                            ===> Fragment 1 <==

	 Z (Atomic Numbers)          Masses                          Geom
	      14.000000            27.976927          0.00000000  0.00000000  2.47049803
	      17.000000            34.968853          0.00000000  0.00000000 -1.97652873

	 - Coordinate -           - BOHR/RAD -       - ANG/DEG -
	 R(1,2)           =         4.447027           2.353265

	        --- Internal Coordinate Step in ANG or DEG, aJ/ANG or AJ/DEG ---
	-------------------------------------------------------------------------------
	           Coordinate      Previous         Force          Change          New
	           ----------      --------        ------          ------        ------
	               R(1,2)       2.35327        0.00011        0.00011       2.35337
	-------------------------------------------------------------------------------

	                                 ==> Convergence Check <==

	Measures of convergence in internal coordinates in au.

	Criteria marked as inactive (o), active & met (*), and active & unmet ( ).

	----------------------------------------------------------------------------------------------
	   Step    Total Energy     Delta E     Max Force     RMS Force      Max Disp      RMS Disp
	----------------------------------------------------------------------------------------------
	  Convergence Criteria     1.00e-06 *    3.00e-04 *             o    1.20e-03 *             o
	----------------------------------------------------------------------------------------------
	    17    -749.13069180   -8.10e-08 *    1.32e-05 *    1.32e-05 o    2.02e-04 *    2.02e-04 o  ~
	----------------------------------------------------------------------------------------------

Next Geometry in Ang
	Fragment 1 (Ang)

	   Si   0.0000000000   0.0000000000   1.3073847725
	   Cl   0.0000000000   0.0000000000  -1.0459874747

    Final optimized geometry and variables:
    Molecular point group: c2v
    Full point group: C_inf_v

    Geometry (in Angstrom), charge = 1, multiplicity = 5:

    SI           0.000000000000     0.000000000000     1.307331256876
    CL           0.000000000000     0.000000000000    -1.045933959077

    Psi4 stopped on: Thursday, 17 July 2025 03:43PM
    Psi4 wall time for execution: 0:00:24.21

*** Psi4 exiting successfully. Buy a developer a beer!
