                               Psi4 1.9.1 release

  ==> Input File <==

--------------------------------------------------------------------------
molecule {
1 5
H   0.00000        0.60000        0.00000
S   0.00000       -0.60000        0.00000
}

set {
basis              cc-pvdz
reference          uks
maxiter            500
geom_maxiter       500
DAMPING_PERCENTAGE 1
guess              SAP
}

optimize('b3lyp')
--------------------------------------------------------------------------

    Molecular point group: c2v
  Charge       = 1
  Multiplicity = 5
  Basis Set: CC-PVDZ
    Blend: CC-PVDZ
  Basis Set: (CC-PVDZ AUX)
    Blend: CC-PVDZ-JKFIT
  @DF-UKS Final Energy:  -397.94904626771245
    Total Energy =                       -397.9490462677124469
 Dipole X            :          0.0000000            0.0000000            0.0000000
 Dipole Y            :          0.0000000            0.0000000            0.0000000
 Dipole Z            :         -1.3185283            1.0896182           -0.2289101
 Magnitude           :                                                    0.2289101
    Molecular point group: c2v
  Basis Set: CC-PVDZ
    Blend: CC-PVDZ
  Basis Set: (CC-PVDZ AUX)
    Blend: CC-PVDZ-JKFIT
  Basis Set: CC-PVDZ
    Blend: CC-PVDZ
  Basis Set: (CC-PVDZ AUX)
    Blend: CC-PVDZ-JKFIT
  @DF-UKS Final Energy:  -398.08243145295955
    Total Energy =                       -398.0824314529596109
  Basis Set: CC-PVDZ
    Blend: CC-PVDZ
  Basis Set: (CC-PVDZ AUX)
    Blend: CC-PVDZ-JKFIT
  Basis Set: CC-PVDZ
    Blend: CC-PVDZ
  @DF-UKS Final Energy:  -398.15294967583986
    Total Energy =                       -398.1529496758398636
  @DF-UKS Final Energy:  -398.19640220487520
    Total Energy =                       -398.1964022048751985
  @DF-UKS Final Energy:  -398.21112988652953
    Total Energy =                       -398.2111298865295339
  @DF-UKS Final Energy:  -398.22658273736840
    Total Energy =                       -398.2265827373684033
  @DF-UKS Final Energy:  -398.23369857234093
    Total Energy =                       -398.2336985723409271
  @DF-UKS Final Energy:  -398.23738002427280
    Total Energy =                       -398.2373800242727953
  @DF-UKS Final Energy:  -398.23919126079880
    Total Energy =                       -398.2391912607988047
  @DF-UKS Final Energy:  -398.24008998634264
    Total Energy =                       -398.2400899863425821
  @DF-UKS Final Energy:  -398.24053449506687
    Total Energy =                       -398.2405344950668677
  @DF-UKS Final Energy:  -398.24075400271488
    Total Energy =                       -398.2407540027147661
  @DF-UKS Final Energy:  -398.24086361256559
    Total Energy =                       -398.2408636125655335
  @DF-UKS Final Energy:  -398.24092017706135
    Total Energy =                       -398.2409201770613549
  @DF-UKS Final Energy:  -398.24095085644046
    Total Energy =                       -398.2409508564404064
  @DF-UKS Final Energy:  -398.24096940492501
    Total Energy =                       -398.2409694049250106
  @DF-UKS Final Energy:  -398.24098156994376
    Total Energy =                       -398.2409815699437559
  Basis Set: (CC-PVDZ AUX)
    Blend: CC-PVDZ-JKFIT
  Basis Set: CC-PVDZ
    Blend: CC-PVDZ
  Basis Set: (CC-PVDZ AUX)
    Blend: CC-PVDZ-JKFIT
  @DF-UKS Final Energy:  -398.24099018896271
    Total Energy =                       -398.2409901889627690
  Basis Set: CC-PVDZ
    Blend: CC-PVDZ
  Basis Set: (CC-PVDZ AUX)
    Blend: CC-PVDZ-JKFIT
  Charge       = 1
  Multiplicity = 5
  Basis Set: CC-PVDZ
    Blend: CC-PVDZ
  Basis Set: (CC-PVDZ AUX)
    Blend: CC-PVDZ-JKFIT

    Orbital Energies [Eh]
    ---------------------

    Alpha Occupied:

       1A1   -89.374211     2A1    -8.425899     1B2    -6.390758
       1B1    -6.390758     3A1    -6.390757     4A1    -1.129326
       2B2    -0.700431     2B1    -0.700431     5A1    -0.700418
       6A1    -0.424985

    Alpha Virtual:

       7A1     0.113479     8A1     0.142457     3B2     0.143004
       3B1     0.143004     9A1     0.150721    10A1     0.150723
       1A2     0.150723     4B1     0.150727     4B2     0.150727
      11A1     0.313856    12A1     1.103687     5B1     1.104841
       5B2     1.104841

    Beta Occupied:

       1A1   -89.355426     2A1    -8.406944     1B2    -6.362463
       1B1    -6.362463     3A1    -6.362460     4A1    -0.982239

    Beta Virtual:

       5A1    -0.516280     2B2    -0.516273     2B1    -0.516273
       6A1    -0.126975     7A1     0.161897     8A1     0.192259
       3B2     0.192393     3B1     0.192393     9A1     0.269316
       1A2     0.269316    10A1     0.269321     4B1     0.269321
       4B2     0.269321    11A1     0.542399    12A1     1.366858
       5B2     1.368351     5B1     1.368351

    Final Occupation by Irrep:
             A1    A2    B1    B2
    DOCC [     4,    0,    1,    1 ]
    SOCC [     2,    0,    1,    1 ]
    NA   [     6,    0,    2,    2 ]
    NB   [     4,    0,    1,    1 ]

  @DF-UKS Final Energy:  -398.24099582346031

   => Energetics <=

    Nuclear Repulsion Energy =              1.6876301594519536
    One-Electron Energy =                -546.7045522185694608
    Two-Electron Energy =                 167.4273165255818867
    DFT Exchange-Correlation Energy =     -20.6513902899246524
    Empirical Dispersion Energy =           0.0000000000000000
    VV10 Nonlocal Energy =                  0.0000000000000000
    Total Energy =                       -398.2409958234603096

  UHF NO Occupations:
  HONO-2 :    5 A1 1.0000000
  HONO-1 :    2 B2 1.0000000
  HONO-0 :    6 A1 1.0000000
  LUNO+0 :    7 A1 0.0001915
  LUNO+1 :    3 B2 0.0000000
  LUNO+2 :    3 B1 0.0000000
  LUNO+3 :    8 A1 0.0000000

Computation Completed

Properties will be evaluated at   0.000000,   0.000000,   0.000000 [a0]

Properties computed using the SCF density matrix

 Multipole Moments:

 ------------------------------------------------------------------------------------
     Multipole            Electronic (a.u.)      Nuclear  (a.u.)        Total (a.u.)
 ------------------------------------------------------------------------------------

 L = 1.  Multiply by 2.5417464519 to convert [e a0] to [Debye]
 Dipole X            :          0.0000000            0.0000000            0.0000000
 Dipole Y            :          0.0000000            0.0000000            0.0000000
 Dipole Z            :         -4.8376405            4.5555093           -0.2821312
 Magnitude           :                                                    0.2821312

 ------------------------------------------------------------------------------------

*** tstop() called on Joses-MacBook-Pro-2.local at Thu Jul 17 12:23:45 2025
Module time:
	user time   =       2.00 seconds =       0.03 minutes
	system time =       2.42 seconds =       0.04 minutes
	total time  =          0 seconds =       0.00 minutes
Total time:
	user time   =      66.75 seconds =       1.11 minutes
	system time =      72.91 seconds =       1.22 minutes
	total time  =         13 seconds =       0.22 minutes

*** tstart() called on Joses-MacBook-Pro-2.local
*** at Thu Jul 17 12:23:45 2025

         ------------------------------------------------------------
                                   SCF GRAD
                          Rob Parrish, Justin Turney,
                       Andy Simmonett, and Alex Sokolov
         ------------------------------------------------------------

  ==> Geometry <==

    Molecular point group: c2v
    Full point group: C_inf_v

    Geometry (in Angstrom), charge = 1, multiplicity = 5:

       Center              X                  Y                   Z               Mass
    ------------   -----------------  -----------------  -----------------  -----------------
         H            0.000000000000     0.000000000000     4.863683703373     1.007825032230
         S            0.000000000000     0.000000000000    -0.153313251380    31.972071174400

  Nuclear repulsion =    1.687630159451954

  ==> Basis Set <==

  Basis Set: CC-PVDZ
    Blend: CC-PVDZ
    Number of shells: 11
    Number of basis functions: 23
    Number of Cartesian functions: 24
    Spherical Harmonics?: true
    Max angular momentum: 2

  ==> DFJKGrad: Density-Fitted SCF Gradients <==

    Gradient:                    1
    J tasked:                  Yes
    K tasked:                  Yes
    wK tasked:                  No
    OpenMP threads:              1
    Integrals threads:           1
    Memory [MiB]:              375
    Schwarz Cutoff:          1E-12
    Fitting Condition:       1E-10

   => Auxiliary Basis Set <=

  Basis Set: (CC-PVDZ AUX)
    Blend: CC-PVDZ-JKFIT
    Number of shells: 45
    Number of basis functions: 135
    Number of Cartesian functions: 155
    Spherical Harmonics?: true
    Max angular momentum: 3

  ==> DFT Potential <==

   => LibXC <=

    Version 6.2.2
    S. Lehtola, C. Steigemann, M. J.T. Oliveira, and M. A.L. Marques.,  SoftwareX 7, 1â€“5 (2018) (10.1016/j.softx.2017.11.002)

   => Composite Functional: B3LYP <=

    B3LYP Hyb-GGA Exchange-Correlation Functional

    P. J. Stephens, F. J. Devlin, C. F. Chabalowski, and M. J. Frisch.,  J. Phys. Chem. 98, 11623 (1994) (10.1021/j100096a001)

    Deriv               =              1
    GGA                 =           TRUE
    Meta                =          FALSE

    Exchange Hybrid     =           TRUE
    MP2 Hybrid          =          FALSE

   => Exchange Functionals <=

    0.0800   Slater exchange
    0.7200         Becke 88

   => Exact (HF) Exchange <=

    0.2000               HF

   => Correlation Functionals <=

    0.1900   Vosko, Wilk & Nusair (VWN5_RPA)
    0.8100   Lee, Yang & Parr

   => LibXC Density Thresholds  <==

    XC_HYB_GGA_XC_B3LYP:  1.00E-15

   => Molecular Quadrature <=

    Radial Scheme          =       TREUTLER
    Pruning Scheme         =           NONE
    Nuclear Scheme         =       TREUTLER

    Blocking Scheme        =         OCTREE
    BS radius alpha        =              1
    Pruning alpha          =              1
    Radial Points          =             75
    Spherical Points       =            302
    Total Points           =          42629
    Total Blocks           =            432
    Max Points             =            256
    Max Functions          =             23
    Weights Tolerance      =       1.00E-15

  -Total Gradient:
     Atom            X                  Y                   Z
    ------   -----------------  -----------------  -----------------
       1        0.000000000000     0.000000000000    -0.000008095994
       2        0.000000000000     0.000000000000     0.000007830180

*** tstop() called on Joses-MacBook-Pro-2.local at Thu Jul 17 12:23:45 2025
Module time:
	user time   =       0.68 seconds =       0.01 minutes
	system time =       0.90 seconds =       0.02 minutes
	total time  =          0 seconds =       0.00 minutes
Total time:
	user time   =      67.45 seconds =       1.12 minutes
	system time =      73.81 seconds =       1.23 minutes
	total time  =         13 seconds =       0.22 minutes

    			-----------------------------------------

    			 OPTKING 3.0: for geometry optimizations

    			     By R.A. King, Bethel University

    			        with contributions from

    			    A.V. Copan, J. Cayton, A. Heide

    			-----------------------------------------

	                            ===> Fragment 1 <==

	 Z (Atomic Numbers)          Masses                          Geom
	       1.000000             1.007825          0.00000000  0.00000000  9.19103016
	      16.000000            31.972071          0.00000000  0.00000000 -0.28972006

	 - Coordinate -           - BOHR/RAD -       - ANG/DEG -
	 R(1,2)           =         9.480750           5.016997

	        --- Internal Coordinate Step in ANG or DEG, aJ/ANG or AJ/DEG ---
	-------------------------------------------------------------------------------
	           Coordinate      Previous         Force          Change          New
	           ----------      --------        ------          ------        ------
	               R(1,2)       5.01700        0.00007        0.00008       5.01708
	-------------------------------------------------------------------------------

	                                 ==> Convergence Check <==

	Measures of convergence in internal coordinates in au.

	Criteria marked as inactive (o), active & met (*), and active & unmet ( ).

	----------------------------------------------------------------------------------------------
	   Step    Total Energy     Delta E     Max Force     RMS Force      Max Disp      RMS Disp
	----------------------------------------------------------------------------------------------
	  Convergence Criteria     1.00e-06 *    3.00e-04 *             o    1.20e-03 *             o
	----------------------------------------------------------------------------------------------
	    19    -398.24099582   -5.63e-06      7.96e-06 *    7.96e-06 o    1.59e-04 *    1.59e-04 o  ~
	----------------------------------------------------------------------------------------------

Next Geometry in Ang
	Fragment 1 (Ang)

	    H   0.0000000000   0.0000000000   4.8637257018
	    S   0.0000000000   0.0000000000  -0.1533552498

    Final optimized geometry and variables:
    Molecular point group: c2v
    Full point group: C_inf_v

    Geometry (in Angstrom), charge = 1, multiplicity = 5:

    H            0.000000000000     0.000000000000     4.863683703373
    S            0.000000000000     0.000000000000    -0.153313251380

    Psi4 stopped on: Thursday, 17 July 2025 12:23PM
    Psi4 wall time for execution: 0:00:13.83

*** Psi4 exiting successfully. Buy a developer a beer!
