                               Psi4 1.9.1 release

  ==> Input File <==

--------------------------------------------------------------------------
molecule {
1 5
He   0.00000        0.60000        0.00000
P   0.00000       -0.60000        0.00000
}

set {
basis              cc-pvdz
reference          uks
maxiter            500
geom_maxiter       500
DAMPING_PERCENTAGE 1
guess              SAP
}

optimize('b3lyp')
--------------------------------------------------------------------------

    Molecular point group: c2v
  Charge       = 1
  Multiplicity = 5
  Basis Set: CC-PVDZ
    Blend: CC-PVDZ
  Basis Set: (CC-PVDZ AUX)
    Blend: CC-PVDZ-JKFIT + DEF2-UNIVERSAL-JKFIT
  @DF-UKS Final Energy:  -343.35632281923910
    Total Energy =                       -343.3563228192390966
 Dipole X            :          0.0000000            0.0000000            0.0000000
 Dipole Y            :          0.0000000            0.0000000            0.0000000
 Dipole Z            :          0.4768988            0.1237348            0.6006336
 Magnitude           :                                                    0.6006336
    Molecular point group: c2v
  Basis Set: CC-PVDZ
    Blend: CC-PVDZ
  Basis Set: (CC-PVDZ AUX)
    Blend: CC-PVDZ-JKFIT + DEF2-UNIVERSAL-JKFIT
  Basis Set: CC-PVDZ
    Blend: CC-PVDZ
  Basis Set: (CC-PVDZ AUX)
    Blend: CC-PVDZ-JKFIT + DEF2-UNIVERSAL-JKFIT
  @DF-UKS Final Energy:  -343.49507554324606
    Total Energy =                       -343.4950755432460596
  Basis Set: CC-PVDZ
    Blend: CC-PVDZ
  Basis Set: (CC-PVDZ AUX)
    Blend: CC-PVDZ-JKFIT + DEF2-UNIVERSAL-JKFIT
  Basis Set: CC-PVDZ
    Blend: CC-PVDZ
  @DF-UKS Final Energy:  -343.53712482884816
    Total Energy =                       -343.5371248288482207
  @DF-UKS Final Energy:  -343.56109571595204
    Total Energy =                       -343.5610957159520353
  @DF-UKS Final Energy:  -343.57221883874644
    Total Energy =                       -343.5722188387463802
  @DF-UKS Final Energy:  -343.57763086144348
    Total Energy =                       -343.5776308614434811
  @DF-UKS Final Energy:  -343.58014986906250
    Total Energy =                       -343.5801498690624953
  @DF-UKS Final Energy:  -343.58123357855112
    Total Energy =                       -343.5812335785511209
  @DF-UKS Final Energy:  -343.58162671511542
    Total Energy =                       -343.5816267151153625
  @DF-UKS Final Energy:  -343.58171653583281
    Total Energy =                       -343.5817165358327543
  @DF-UKS Final Energy:  -343.58174573590128
    Total Energy =                       -343.5817457359012792
  Basis Set: (CC-PVDZ AUX)
    Blend: CC-PVDZ-JKFIT + DEF2-UNIVERSAL-JKFIT
  Basis Set: CC-PVDZ
    Blend: CC-PVDZ
  Basis Set: (CC-PVDZ AUX)
    Blend: CC-PVDZ-JKFIT + DEF2-UNIVERSAL-JKFIT
  @DF-UKS Final Energy:  -343.58175017899674
    Total Energy =                       -343.5817501789967423
  Basis Set: CC-PVDZ
    Blend: CC-PVDZ
  Basis Set: (CC-PVDZ AUX)
    Blend: CC-PVDZ-JKFIT + DEF2-UNIVERSAL-JKFIT
  Charge       = 1
  Multiplicity = 5
  Basis Set: CC-PVDZ
    Blend: CC-PVDZ
  Basis Set: (CC-PVDZ AUX)
    Blend: CC-PVDZ-JKFIT + DEF2-UNIVERSAL-JKFIT

    Orbital Energies [Eh]
    ---------------------

    Alpha Occupied:

       1A1   -77.561161     2A1    -7.023304     1B1    -5.187672
       1B2    -5.187672     3A1    -5.187579     4A1    -0.989059
       5A1    -0.871105     2B1    -0.619961     2B2    -0.619961
       6A1    -0.616114

    Alpha Virtual:

       7A1     0.035048     8A1     0.061270     3B2     0.064312
       3B1     0.064312     9A1     0.064343     1A2     0.064343
       4B1     0.098670     4B2     0.098670    10A1     0.120667
      11A1     0.997999     5B2     1.974371     5B1     1.974371
      12A1     2.007259

    Beta Occupied:

       1A1   -77.537110     2A1    -6.993876     1B1    -5.154702
       1B2    -5.154702     3A1    -5.154487     4A1    -0.864646

    Beta Virtual:

       5A1    -0.709949     2B1    -0.390518     2B2    -0.390518
       6A1    -0.387807     7A1     0.107196     3B1     0.172147
       3B2     0.172147     8A1     0.187077     9A1     0.225316
       1A2     0.231961    10A1     0.231963     4B2     0.232057
       4B1     0.232057    11A1     1.006400     5B2     1.978936
       5B1     1.978936    12A1     2.012682

    Final Occupation by Irrep:
             A1    A2    B1    B2
    DOCC [     4,    0,    1,    1 ]
    SOCC [     2,    0,    1,    1 ]
    NA   [     6,    0,    2,    2 ]
    NB   [     4,    0,    1,    1 ]

  @DF-UKS Final Energy:  -343.58175087745155

   => Energetics <=

    Nuclear Repulsion Energy =              5.9676365126481770
    One-Electron Energy =                -480.6089912363661938
    Two-Electron Energy =                 150.3948646551014576
    DFT Exchange-Correlation Energy =     -19.3352608088349953
    Empirical Dispersion Energy =           0.0000000000000000
    VV10 Nonlocal Energy =                  0.0000000000000000
    Total Energy =                       -343.5817508774515545

  UHF NO Occupations:
  HONO-2 :    2 B1 1.0000000
  HONO-1 :    2 B2 1.0000000
  HONO-0 :    6 A1 1.0000000
  LUNO+0 :    7 A1 0.0000461
  LUNO+1 :    3 B2 0.0000001
  LUNO+2 :    3 B1 0.0000001
  LUNO+3 :    8 A1 0.0000001

Computation Completed

Properties will be evaluated at   0.000000,   0.000000,   0.000000 [a0]

Properties computed using the SCF density matrix

 Multipole Moments:

 ------------------------------------------------------------------------------------
     Multipole            Electronic (a.u.)      Nuclear  (a.u.)        Total (a.u.)
 ------------------------------------------------------------------------------------

 L = 1.  Multiply by 2.5417464519 to convert [e a0] to [Debye]
 Dipole X            :          0.0000000            0.0000000            0.0000000
 Dipole Y            :          0.0000000            0.0000000            0.0000000
 Dipole Z            :         -0.7015141            0.2743031           -0.4272110
 Magnitude           :                                                    0.4272110

 ------------------------------------------------------------------------------------

*** tstop() called on Joses-MacBook-Pro-2.local at Thu Jul 17 12:41:02 2025
Module time:
	user time   =       1.73 seconds =       0.03 minutes
	system time =       2.99 seconds =       0.05 minutes
	total time  =          0 seconds =       0.00 minutes
Total time:
	user time   =      35.75 seconds =       0.60 minutes
	system time =      66.45 seconds =       1.11 minutes
	total time  =         10 seconds =       0.17 minutes

*** tstart() called on Joses-MacBook-Pro-2.local
*** at Thu Jul 17 12:41:02 2025

         ------------------------------------------------------------
                                   SCF GRAD
                          Rob Parrish, Justin Turney,
                       Andy Simmonett, and Alex Sokolov
         ------------------------------------------------------------

  ==> Geometry <==

    Molecular point group: c2v
    Full point group: C_inf_v

    Geometry (in Angstrom), charge = 1, multiplicity = 5:

       Center              X                  Y                   Z               Mass
    ------------   -----------------  -----------------  -----------------  -----------------
         HE           0.000000000000     0.000000000000     2.355804821824     4.002603254130
         P            0.000000000000     0.000000000000    -0.304430312547    30.973761998420

  Nuclear repulsion =    5.967636512648177

  ==> Basis Set <==

  Basis Set: CC-PVDZ
    Blend: CC-PVDZ
    Number of shells: 11
    Number of basis functions: 23
    Number of Cartesian functions: 24
    Spherical Harmonics?: true
    Max angular momentum: 2

  ==> DFJKGrad: Density-Fitted SCF Gradients <==

    Gradient:                    1
    J tasked:                  Yes
    K tasked:                  Yes
    wK tasked:                  No
    OpenMP threads:              1
    Integrals threads:           1
    Memory [MiB]:              375
    Schwarz Cutoff:          1E-12
    Fitting Condition:       1E-10

   => Auxiliary Basis Set <=

  Basis Set: (CC-PVDZ AUX)
    Blend: CC-PVDZ-JKFIT + DEF2-UNIVERSAL-JKFIT
    Number of shells: 45
    Number of basis functions: 135
    Number of Cartesian functions: 155
    Spherical Harmonics?: true
    Max angular momentum: 3

  ==> DFT Potential <==

   => LibXC <=

    Version 6.2.2
    S. Lehtola, C. Steigemann, M. J.T. Oliveira, and M. A.L. Marques.,  SoftwareX 7, 1â€“5 (2018) (10.1016/j.softx.2017.11.002)

   => Composite Functional: B3LYP <=

    B3LYP Hyb-GGA Exchange-Correlation Functional

    P. J. Stephens, F. J. Devlin, C. F. Chabalowski, and M. J. Frisch.,  J. Phys. Chem. 98, 11623 (1994) (10.1021/j100096a001)

    Deriv               =              1
    GGA                 =           TRUE
    Meta                =          FALSE

    Exchange Hybrid     =           TRUE
    MP2 Hybrid          =          FALSE

   => Exchange Functionals <=

    0.0800   Slater exchange
    0.7200         Becke 88

   => Exact (HF) Exchange <=

    0.2000               HF

   => Correlation Functionals <=

    0.1900   Vosko, Wilk & Nusair (VWN5_RPA)
    0.8100   Lee, Yang & Parr

   => LibXC Density Thresholds  <==

    XC_HYB_GGA_XC_B3LYP:  1.00E-15

   => Molecular Quadrature <=

    Radial Scheme          =       TREUTLER
    Pruning Scheme         =           NONE
    Nuclear Scheme         =       TREUTLER

    Blocking Scheme        =         OCTREE
    BS radius alpha        =              1
    Pruning alpha          =              1
    Radial Points          =             75
    Spherical Points       =            302
    Total Points           =          42781
    Total Blocks           =            378
    Max Points             =            256
    Max Functions          =             23
    Weights Tolerance      =       1.00E-15

  -Total Gradient:
     Atom            X                  Y                   Z
    ------   -----------------  -----------------  -----------------
       1        0.000000000000     0.000000000000    -0.000040648470
       2        0.000000000000    -0.000000000000     0.000033661701

*** tstop() called on Joses-MacBook-Pro-2.local at Thu Jul 17 12:41:02 2025
Module time:
	user time   =       0.65 seconds =       0.01 minutes
	system time =       0.97 seconds =       0.02 minutes
	total time  =          0 seconds =       0.00 minutes
Total time:
	user time   =      36.41 seconds =       0.61 minutes
	system time =      67.42 seconds =       1.12 minutes
	total time  =         10 seconds =       0.17 minutes

    			-----------------------------------------

    			 OPTKING 3.0: for geometry optimizations

    			     By R.A. King, Bethel University

    			        with contributions from

    			    A.V. Copan, J. Cayton, A. Heide

    			-----------------------------------------

	                            ===> Fragment 1 <==

	 Z (Atomic Numbers)          Masses                          Geom
	       2.000000             4.002603          0.00000000  0.00000000  4.45182592
	      15.000000            30.973762          0.00000000  0.00000000 -0.57528992

	 - Coordinate -           - BOHR/RAD -       - ANG/DEG -
	 R(1,2)           =         5.027116           2.660235

	        --- Internal Coordinate Step in ANG or DEG, aJ/ANG or AJ/DEG ---
	-------------------------------------------------------------------------------
	           Coordinate      Previous         Force          Change          New
	           ----------      --------        ------          ------        ------
	               R(1,2)       2.66024        0.00031        0.00406       2.66430
	-------------------------------------------------------------------------------

	                                 ==> Convergence Check <==

	Measures of convergence in internal coordinates in au.

	Criteria marked as inactive (o), active & met (*), and active & unmet ( ).

	----------------------------------------------------------------------------------------------
	   Step    Total Energy     Delta E     Max Force     RMS Force      Max Disp      RMS Disp
	----------------------------------------------------------------------------------------------
	  Convergence Criteria     1.00e-06 *    3.00e-04 *             o    1.20e-03 *             o
	----------------------------------------------------------------------------------------------
	    13    -343.58175088   -6.98e-07 *    3.72e-05 *    3.72e-05 o    7.68e-03      7.68e-03 o  ~
	----------------------------------------------------------------------------------------------

Next Geometry in Ang
	Fragment 1 (Ang)

	   He   0.0000000000   0.0000000000   2.3578369003
	    P   0.0000000000   0.0000000000  -0.3064623910

    Final optimized geometry and variables:
    Molecular point group: c2v
    Full point group: C_inf_v

    Geometry (in Angstrom), charge = 1, multiplicity = 5:

    HE           0.000000000000     0.000000000000     2.355804821824
    P            0.000000000000     0.000000000000    -0.304430312547

    Psi4 stopped on: Thursday, 17 July 2025 12:41PM
    Psi4 wall time for execution: 0:00:10.85

*** Psi4 exiting successfully. Buy a developer a beer!
