                               Psi4 1.9.1 release

  ==> Input File <==

--------------------------------------------------------------------------
molecule {
1 5
Ne   0.00000        0.60000        0.00000
Al   0.00000       -0.60000        0.00000
}

set {
basis              cc-pvdz
reference          uks
maxiter            500
geom_maxiter       500
DAMPING_PERCENTAGE 1
guess              SAP
}

optimize('b3lyp')
--------------------------------------------------------------------------

    Molecular point group: c2v
  Charge       = 1
  Multiplicity = 5
  Basis Set: CC-PVDZ
    Blend: CC-PVDZ
  Basis Set: (CC-PVDZ AUX)
    Blend: CC-PVDZ-JKFIT
  @DF-UKS Final Energy:  -369.61457895032999
    Total Energy =                       -369.6145789503299852
 Dipole X            :          0.0000000            0.0000000            0.0000000
 Dipole Y            :          0.0000000            0.0000000            0.0000000
 Dipole Z            :          0.7380491            0.4785826            1.2166317
 Magnitude           :                                                    1.2166317
    Molecular point group: c2v
  Basis Set: CC-PVDZ
    Blend: CC-PVDZ
  Basis Set: (CC-PVDZ AUX)
    Blend: CC-PVDZ-JKFIT
  Basis Set: CC-PVDZ
    Blend: CC-PVDZ
  Basis Set: (CC-PVDZ AUX)
    Blend: CC-PVDZ-JKFIT
  @DF-UKS Final Energy:  -369.86587310383669
    Total Energy =                       -369.8658731038366909
  Basis Set: CC-PVDZ
    Blend: CC-PVDZ
  Basis Set: (CC-PVDZ AUX)
    Blend: CC-PVDZ-JKFIT
  Basis Set: CC-PVDZ
    Blend: CC-PVDZ
  @DF-UKS Final Energy:  -370.03733537588482
    Total Energy =                       -370.0373353758848225
  @DF-UKS Final Energy:  -370.15851376882665
    Total Energy =                       -370.1585137688267082
  @DF-UKS Final Energy:  -370.24755445525506
    Total Energy =                       -370.2475544552549991
  @DF-UKS Final Energy:  -370.29854249633894
    Total Energy =                       -370.2985424963389391
  @DF-UKS Final Energy:  -370.32601381351469
    Total Energy =                       -370.3260138135146917
  @DF-UKS Final Energy:  -370.34077530108164
    Total Energy =                       -370.3407753010815782
  @DF-UKS Final Energy:  -370.34913249361034
    Total Energy =                       -370.3491324936102274
  @DF-UKS Final Energy:  -370.35424758066353
    Total Energy =                       -370.3542475806635252
  @DF-UKS Final Energy:  -370.35765912639459
    Total Energy =                       -370.3576591263945943
  @DF-UKS Final Energy:  -370.35775448732238
    Total Energy =                       -370.3577544873223815
  @DF-UKS Final Energy:  -370.36049466990499
    Total Energy =                       -370.3604946699049947
  @DF-UKS Final Energy:  -370.36053614906291
    Total Energy =                       -370.3605361490629093
  @DF-UKS Final Energy:  -370.36248723322370
    Total Energy =                       -370.3624872332236464
  @DF-UKS Final Energy:  -370.36250886826150
    Total Energy =                       -370.3625088682615001
  @DF-UKS Final Energy:  -370.36253033458968
    Total Energy =                       -370.3625303345896214
  @DF-UKS Final Energy:  -370.36398198337127
    Total Energy =                       -370.3639819833712750
  @DF-UKS Final Energy:  -370.36399464617790
    Total Energy =                       -370.3639946461779004
  @DF-UKS Final Energy:  -370.36400724637099
    Total Energy =                       -370.3640072463709885
  @DF-UKS Final Energy:  -370.36704150383349
    Total Energy =                       -370.3670415038334340
  @DF-UKS Final Energy:  -370.36704339674873
    Total Energy =                       -370.3670433967487270
  @DF-UKS Final Energy:  -370.36704528605787
    Total Energy =                       -370.3670452860578735
  @DF-UKS Final Energy:  -370.36704717180891
    Total Energy =                       -370.3670471718089061
  @DF-UKS Final Energy:  -370.36704905402098
    Total Energy =                       -370.3670490540209812
  @DF-UKS Final Energy:  -370.36705093271422
    Total Energy =                       -370.3670509327142781
  @DF-UKS Final Energy:  -370.36705280793291
    Total Energy =                       -370.3670528079328506
  @DF-UKS Final Energy:  -370.36741665916696
    Total Energy =                       -370.3674166591670200
  @DF-UKS Final Energy:  -370.36741790203217
    Total Energy =                       -370.3674179020321731
  @DF-UKS Final Energy:  -370.36741914226286
    Total Energy =                       -370.3674191422628610
  @DF-UKS Final Energy:  -370.36742038093769
    Total Energy =                       -370.3674203809376877
  @DF-UKS Final Energy:  -370.36742161806853
    Total Energy =                       -370.3674216180685335
  @DF-UKS Final Energy:  -370.36742285367103
    Total Energy =                       -370.3674228536710871
  @DF-UKS Final Energy:  -370.36742408773171
    Total Energy =                       -370.3674240877317061
  @DF-UKS Final Energy:  -370.36742532024817
    Total Energy =                       -370.3674253202481736
  @DF-UKS Final Energy:  -370.36742655123277
    Total Energy =                       -370.3674265512327679
  @DF-UKS Final Energy:  -370.36742778068873
    Total Energy =                       -370.3674277806887289
  @DF-UKS Final Energy:  -370.36742900861105
    Total Energy =                       -370.3674290086110545
  Basis Set: (CC-PVDZ AUX)
    Blend: CC-PVDZ-JKFIT
  Basis Set: CC-PVDZ
    Blend: CC-PVDZ
  Basis Set: (CC-PVDZ AUX)
    Blend: CC-PVDZ-JKFIT
  @DF-UKS Final Energy:  -370.36771431015779
    Total Energy =                       -370.3677143101577371
  Basis Set: CC-PVDZ
    Blend: CC-PVDZ
  Basis Set: (CC-PVDZ AUX)
    Blend: CC-PVDZ-JKFIT
  Charge       = 1
  Multiplicity = 5
  Basis Set: CC-PVDZ
    Blend: CC-PVDZ
  Basis Set: (CC-PVDZ AUX)
    Blend: CC-PVDZ-JKFIT

    Orbital Energies [Eh]
    ---------------------

    Alpha Occupied:

       1A1   -56.193958     2A1   -31.855060     3A1    -4.274202
       4A1    -2.829772     1B2    -2.825719     1B1    -2.825719
       5A1    -2.220831     6A1    -1.393613     2B1    -1.283248
       2B2    -1.283248     7A1    -0.444133     3B1    -0.233823
       3B2    -0.233823

    Alpha Virtual:

       8A1    -0.179306     9A1     0.067798     4B2     0.118500
       4B1     0.118500    10A1     0.123261    11A1     0.149138
       1A2     0.149139     5B2     0.152340     5B1     0.152340
      12A1     0.161737    13A1     0.699094     6B2     0.757803
       6B1     0.757803    14A1     1.160498    15A1     3.877282
       7B1     3.903657     7B2     3.903657     2A2     3.986908
      16A1     3.986908

    Beta Occupied:

       1A1   -56.184831     2A1   -31.815120     3A1    -4.260934
       4A1    -2.822024     1B2    -2.810504     1B1    -2.810504
       5A1    -2.112907     2B1    -1.243734     2B2    -1.243734

    Beta Virtual:

       6A1    -1.031322     7A1    -0.282197     8A1    -0.117464
       3B2    -0.086075     3B1    -0.086075     9A1     0.120234
      10A1     0.155330     4B2     0.180231     4B1     0.180231
      11A1     0.232514     5B2     0.241552     5B1     0.241552
      12A1     0.266940     1A2     0.266940     6B2     0.776048
       6B1     0.776048    13A1     0.812920    14A1     1.212017
       2A2     4.005726    15A1     4.005726     7B1     4.017734
       7B2     4.017734    16A1     4.041308

    Final Occupation by Irrep:
             A1    A2    B1    B2
    DOCC [     5,    0,    2,    2 ]
    SOCC [     2,    0,    1,    1 ]
    NA   [     7,    0,    3,    3 ]
    NB   [     5,    0,    2,    2 ]

  @DF-UKS Final Energy:  -370.36771513994165

   => Energetics <=

    Nuclear Repulsion Energy =              9.3417833323721364
    One-Electron Energy =                -528.6220795805332955
    Two-Electron Energy =                 173.5397600575767001
    DFT Exchange-Correlation Energy =     -24.6271789493572371
    Empirical Dispersion Energy =           0.0000000000000000
    VV10 Nonlocal Energy =                  0.0000000000000000
    Total Energy =                       -370.3677151399416516

  UHF NO Occupations:
  HONO-2 :    3 B1 1.0000000
  HONO-1 :    7 A1 1.0000000
  HONO-0 :    3 B2 1.0000000
  LUNO+0 :    8 A1 0.0002592
  LUNO+1 :    4 B2 0.0000415
  LUNO+2 :    4 B1 0.0000415
  LUNO+3 :    9 A1 0.0000009

Computation Completed

Properties will be evaluated at   0.000000,   0.000000,   0.000000 [a0]

Properties computed using the SCF density matrix

 Multipole Moments:

 ------------------------------------------------------------------------------------
     Multipole            Electronic (a.u.)      Nuclear  (a.u.)        Total (a.u.)
 ------------------------------------------------------------------------------------

 L = 1.  Multiply by 2.5417464519 to convert [e a0] to [Debye]
 Dipole X            :          0.0000000            0.0000000            0.0000000
 Dipole Y            :          0.0000000            0.0000000            0.0000000
 Dipole Z            :          4.9145679            2.9369082            7.8514760
 Magnitude           :                                                    7.8514760

 ------------------------------------------------------------------------------------

*** tstop() called on Joses-MacBook-Pro-2.local at Thu Jul 17 14:40:17 2025
Module time:
	user time   =       1.75 seconds =       0.03 minutes
	system time =       1.32 seconds =       0.02 minutes
	total time  =          0 seconds =       0.00 minutes
Total time:
	user time   =     236.95 seconds =       3.95 minutes
	system time =     190.53 seconds =       3.18 minutes
	total time  =         45 seconds =       0.75 minutes

*** tstart() called on Joses-MacBook-Pro-2.local
*** at Thu Jul 17 14:40:17 2025

         ------------------------------------------------------------
                                   SCF GRAD
                          Rob Parrish, Justin Turney,
                       Andy Simmonett, and Alex Sokolov
         ------------------------------------------------------------

  ==> Geometry <==

    Molecular point group: c2v
    Full point group: C_inf_v

    Geometry (in Angstrom), charge = 1, multiplicity = 5:

       Center              X                  Y                   Z               Mass
    ------------   -----------------  -----------------  -----------------  -----------------
         NE           0.000000000000     0.000000000000     4.229841154538    19.992440176200
         AL           0.000000000000     0.000000000000    -3.134174359364    26.981538530000

  Nuclear repulsion =    9.341783332372136

  ==> Basis Set <==

  Basis Set: CC-PVDZ
    Blend: CC-PVDZ
    Number of shells: 14
    Number of basis functions: 32
    Number of Cartesian functions: 34
    Spherical Harmonics?: true
    Max angular momentum: 2

  ==> DFJKGrad: Density-Fitted SCF Gradients <==

    Gradient:                    1
    J tasked:                  Yes
    K tasked:                  Yes
    wK tasked:                  No
    OpenMP threads:              1
    Integrals threads:           1
    Memory [MiB]:              375
    Schwarz Cutoff:          1E-12
    Fitting Condition:       1E-10

   => Auxiliary Basis Set <=

  Basis Set: (CC-PVDZ AUX)
    Blend: CC-PVDZ-JKFIT
    Number of shells: 60
    Number of basis functions: 182
    Number of Cartesian functions: 211
    Spherical Harmonics?: true
    Max angular momentum: 3

  ==> DFT Potential <==

   => LibXC <=

    Version 6.2.2
    S. Lehtola, C. Steigemann, M. J.T. Oliveira, and M. A.L. Marques.,  SoftwareX 7, 1â€“5 (2018) (10.1016/j.softx.2017.11.002)

   => Composite Functional: B3LYP <=

    B3LYP Hyb-GGA Exchange-Correlation Functional

    P. J. Stephens, F. J. Devlin, C. F. Chabalowski, and M. J. Frisch.,  J. Phys. Chem. 98, 11623 (1994) (10.1021/j100096a001)

    Deriv               =              1
    GGA                 =           TRUE
    Meta                =          FALSE

    Exchange Hybrid     =           TRUE
    MP2 Hybrid          =          FALSE

   => Exchange Functionals <=

    0.0800   Slater exchange
    0.7200         Becke 88

   => Exact (HF) Exchange <=

    0.2000               HF

   => Correlation Functionals <=

    0.1900   Vosko, Wilk & Nusair (VWN5_RPA)
    0.8100   Lee, Yang & Parr

   => LibXC Density Thresholds  <==

    XC_HYB_GGA_XC_B3LYP:  1.00E-15

   => Molecular Quadrature <=

    Radial Scheme          =       TREUTLER
    Pruning Scheme         =           NONE
    Nuclear Scheme         =       TREUTLER

    Blocking Scheme        =         OCTREE
    BS radius alpha        =              1
    Pruning alpha          =              1
    Radial Points          =             75
    Spherical Points       =            302
    Total Points           =          43662
    Total Blocks           =            449
    Max Points             =            255
    Max Functions          =             32
    Weights Tolerance      =       1.00E-15

  -Total Gradient:
     Atom            X                  Y                   Z
    ------   -----------------  -----------------  -----------------
       1       -0.000000000000     0.000000000000    -0.000303128002
       2        0.000000000000     0.000000000000     0.000289088552

*** tstop() called on Joses-MacBook-Pro-2.local at Thu Jul 17 14:40:17 2025
Module time:
	user time   =       1.04 seconds =       0.02 minutes
	system time =       0.97 seconds =       0.02 minutes
	total time  =          0 seconds =       0.00 minutes
Total time:
	user time   =     237.99 seconds =       3.97 minutes
	system time =     191.51 seconds =       3.19 minutes
	total time  =         45 seconds =       0.75 minutes

    			-----------------------------------------

    			 OPTKING 3.0: for geometry optimizations

    			     By R.A. King, Bethel University

    			        with contributions from

    			    A.V. Copan, J. Cayton, A. Heide

    			-----------------------------------------

	                            ===> Fragment 1 <==

	 Z (Atomic Numbers)          Masses                          Geom
	      10.000000            19.992440          0.00000000  0.00000000  7.99324134
	      13.000000            26.981539          0.00000000  0.00000000 -5.92273117

	 - Coordinate -           - BOHR/RAD -       - ANG/DEG -
	 R(1,2)           =        13.915973           7.364016

	        --- Internal Coordinate Step in ANG or DEG, aJ/ANG or AJ/DEG ---
	-------------------------------------------------------------------------------
	           Coordinate      Previous         Force          Change          New
	           ----------      --------        ------          ------        ------
	               R(1,2)       7.36402        0.00244        0.00150       7.36552
	-------------------------------------------------------------------------------

	                                 ==> Convergence Check <==

	Measures of convergence in internal coordinates in au.

	Criteria marked as inactive (o), active & met (*), and active & unmet ( ).

	----------------------------------------------------------------------------------------------
	   Step    Total Energy     Delta E     Max Force     RMS Force      Max Disp      RMS Disp
	----------------------------------------------------------------------------------------------
	  Convergence Criteria     1.00e-06 *    3.00e-04 *             o    1.20e-03 *             o
	----------------------------------------------------------------------------------------------
	    56    -370.36771514   -8.30e-07 *    2.96e-04 *    2.96e-04 o    2.84e-03      2.84e-03 o  ~
	----------------------------------------------------------------------------------------------

Next Geometry in Ang
	Fragment 1 (Ang)

	   Ne   0.0000000000   0.0000000000   4.2305935913
	   Al   0.0000000000   0.0000000000  -3.1349267961

    Final optimized geometry and variables:
    Molecular point group: c2v
    Full point group: C_inf_v

    Geometry (in Angstrom), charge = 1, multiplicity = 5:

    NE           0.000000000000     0.000000000000     4.229841154538
    AL           0.000000000000     0.000000000000    -3.134174359364

    Psi4 stopped on: Thursday, 17 July 2025 02:40PM
    Psi4 wall time for execution: 0:00:46.02

*** Psi4 exiting successfully. Buy a developer a beer!
