                               Psi4 1.9.1 release

  ==> Input File <==

--------------------------------------------------------------------------
molecule {
1 5
He   0.00000        0.60000        0.00000
Na   0.00000       -0.60000        0.00000
}

set {
basis              cc-pvdz
reference          uks
maxiter            500
geom_maxiter       500
DAMPING_PERCENTAGE 1
guess              SAP
}

optimize('b3lyp')
--------------------------------------------------------------------------

    Molecular point group: c2v
  Charge       = 1
  Multiplicity = 5
  Basis Set: CC-PVDZ
    Blend: CC-PVDZ
  Basis Set: (CC-PVDZ AUX)
    Blend: DEF2-UNIVERSAL-JKFIT
  @DF-UKS Final Energy:  -162.54597882890030
    Total Energy =                       -162.5459788289003029
 Dipole X            :          0.0000000            0.0000000            0.0000000
 Dipole Y            :          0.0000000            0.0000000            0.0000000
 Dipole Z            :          0.3706463            0.1638984            0.5345447
 Magnitude           :                                                    0.5345447
    Molecular point group: c2v
  Basis Set: CC-PVDZ
    Blend: CC-PVDZ
  Basis Set: (CC-PVDZ AUX)
    Blend: DEF2-UNIVERSAL-JKFIT
  Basis Set: CC-PVDZ
    Blend: CC-PVDZ
  Basis Set: (CC-PVDZ AUX)
    Blend: DEF2-UNIVERSAL-JKFIT
  @DF-UKS Final Energy:  -162.70636202191577
    Total Energy =                       -162.7063620219157656
  Basis Set: CC-PVDZ
    Blend: CC-PVDZ
  Basis Set: (CC-PVDZ AUX)
    Blend: DEF2-UNIVERSAL-JKFIT
  Basis Set: CC-PVDZ
    Blend: CC-PVDZ
  @DF-UKS Final Energy:  -162.79479360313957
    Total Energy =                       -162.7947936031395670
  @DF-UKS Final Energy:  -162.86779121280955
    Total Energy =                       -162.8677912128095215
  @DF-UKS Final Energy:  -162.89807669854153
    Total Energy =                       -162.8980766985415016
  @DF-UKS Final Energy:  -162.92645929234939
    Total Energy =                       -162.9264592923493922
  @DF-UKS Final Energy:  -162.93251136361496
    Total Energy =                       -162.9325113636149638
  @DF-UKS Final Energy:  -162.94146255652277
    Total Energy =                       -162.9414625565227084
  @DF-UKS Final Energy:  -162.94457963065017
    Total Energy =                       -162.9445796306501677
  @DF-UKS Final Energy:  -162.94571784102001
    Total Energy =                       -162.9457178410199845
  @DF-UKS Final Energy:  -162.94600893667499
    Total Energy =                       -162.9460089366749855
  @DF-UKS Final Energy:  -162.94604931758531
    Total Energy =                       -162.9460493175853060
  Basis Set: (CC-PVDZ AUX)
    Blend: DEF2-UNIVERSAL-JKFIT
  Basis Set: CC-PVDZ
    Blend: CC-PVDZ
  Basis Set: (CC-PVDZ AUX)
    Blend: DEF2-UNIVERSAL-JKFIT
  @DF-UKS Final Energy:  -162.94605613278301
    Total Energy =                       -162.9460561327830135
  Basis Set: CC-PVDZ
    Blend: CC-PVDZ
  Basis Set: (CC-PVDZ AUX)
    Blend: DEF2-UNIVERSAL-JKFIT
  Charge       = 1
  Multiplicity = 5
  Basis Set: CC-PVDZ
    Blend: CC-PVDZ
  Basis Set: (CC-PVDZ AUX)
    Blend: DEF2-UNIVERSAL-JKFIT

    Orbital Energies [Eh]
    ---------------------

    Alpha Occupied:

       1A1   -39.913300     2A1    -3.197490     1B1    -2.212405
       3A1    -2.092789     1B2    -2.088890     4A1    -1.599264
       5A1    -0.397768     2B2    -0.253931

    Alpha Virtual:

       6A1    -0.235484     2B1    -0.210781     7A1    -0.122368
       8A1    -0.066340     3B2    -0.065653     3B1    -0.065025
       9A1    -0.057526     4B2    -0.057179     4B1    -0.048844
       1A2    -0.043739    10A1    -0.035539    11A1     0.529462
       5B1     1.359445     5B2     1.360029    12A1     1.379562

    Beta Occupied:

       1A1   -39.869533     2A1    -3.078116     3A1    -2.047530
       1B2    -2.041906

    Beta Virtual:

       1B1    -1.811709     4A1    -0.945220     5A1    -0.290594
       6A1    -0.188056     2B1    -0.163666     2B2    -0.147251
       7A1    -0.100489     8A1    -0.054322     3B1    -0.053072
       3B2    -0.048366     4B1    -0.015749     9A1    -0.015113
       4B2    -0.001071     1A2     0.015233    10A1     0.020371
      11A1     0.824072     5B1     1.701983     5B2     1.703483
      12A1     1.735627

    Final Occupation by Irrep:
             A1    A2    B1    B2
    DOCC [     3,    0,    0,    1 ]
    SOCC [     2,    0,    1,    1 ]
    NA   [     5,    0,    1,    2 ]
    NB   [     3,    0,    0,    1 ]

  @DF-UKS Final Energy:  -162.94605653894581

   => Energetics <=

    Nuclear Repulsion Energy =              3.4191304011514903
    One-Electron Energy =                -225.7171407504073954
    Two-Electron Energy =                  70.8191286378196310
    DFT Exchange-Correlation Energy =     -11.4671748275095329
    Empirical Dispersion Energy =           0.0000000000000000
    VV10 Nonlocal Energy =                  0.0000000000000000
    Total Energy =                       -162.9460565389458111

  UHF NO Occupations:
  HONO-2 :    1 B1 1.0000000
  HONO-1 :    2 B2 1.0000000
  HONO-0 :    5 A1 1.0000000
  LUNO+0 :    6 A1 0.0000024
  LUNO+1 :    7 A1 0.0000006
  LUNO+2 :    3 B2 0.0000004
  LUNO+3 :    8 A1 0.0000000

Computation Completed

Properties will be evaluated at   0.000000,   0.000000,   0.000000 [a0]

Properties computed using the SCF density matrix

 Multipole Moments:

 ------------------------------------------------------------------------------------
     Multipole            Electronic (a.u.)      Nuclear  (a.u.)        Total (a.u.)
 ------------------------------------------------------------------------------------

 L = 1.  Multiply by 2.5417464519 to convert [e a0] to [Debye]
 Dipole X            :          0.0000000            0.0000000            0.0000000
 Dipole Y            :          0.0000000            0.0000000            0.0000000
 Dipole Z            :          3.1866286            0.4650521            3.6516807
 Magnitude           :                                                    3.6516807

 ------------------------------------------------------------------------------------

*** tstop() called on Joses-MacBook-Pro-2.local at Thu Jul 17 12:30:07 2025
Module time:
	user time   =       2.15 seconds =       0.04 minutes
	system time =       2.42 seconds =       0.04 minutes
	total time  =          0 seconds =       0.00 minutes
Total time:
	user time   =      43.22 seconds =       0.72 minutes
	system time =      61.94 seconds =       1.03 minutes
	total time  =         10 seconds =       0.17 minutes

*** tstart() called on Joses-MacBook-Pro-2.local
*** at Thu Jul 17 12:30:07 2025

         ------------------------------------------------------------
                                   SCF GRAD
                          Rob Parrish, Justin Turney,
                       Andy Simmonett, and Alex Sokolov
         ------------------------------------------------------------

  ==> Geometry <==

    Molecular point group: c2v
    Full point group: C_inf_v

    Geometry (in Angstrom), charge = 1, multiplicity = 5:

       Center              X                  Y                   Z               Mass
    ------------   -----------------  -----------------  -----------------  -----------------
         HE           0.000000000000     0.000000000000     2.900024738839     4.002603254130
         NA           0.000000000000     0.000000000000    -0.504904956390    22.989769282000

  Nuclear repulsion =    3.419130401151490

  ==> Basis Set <==

  Basis Set: CC-PVDZ
    Blend: CC-PVDZ
    Number of shells: 11
    Number of basis functions: 23
    Number of Cartesian functions: 24
    Spherical Harmonics?: true
    Max angular momentum: 2

  ==> DFJKGrad: Density-Fitted SCF Gradients <==

    Gradient:                    1
    J tasked:                  Yes
    K tasked:                  Yes
    wK tasked:                  No
    OpenMP threads:              1
    Integrals threads:           1
    Memory [MiB]:              375
    Schwarz Cutoff:          1E-12
    Fitting Condition:       1E-10

   => Auxiliary Basis Set <=

  Basis Set: (CC-PVDZ AUX)
    Blend: DEF2-UNIVERSAL-JKFIT
    Number of shells: 43
    Number of basis functions: 135
    Number of Cartesian functions: 162
    Spherical Harmonics?: true
    Max angular momentum: 4

  ==> DFT Potential <==

   => LibXC <=

    Version 6.2.2
    S. Lehtola, C. Steigemann, M. J.T. Oliveira, and M. A.L. Marques.,  SoftwareX 7, 1â€“5 (2018) (10.1016/j.softx.2017.11.002)

   => Composite Functional: B3LYP <=

    B3LYP Hyb-GGA Exchange-Correlation Functional

    P. J. Stephens, F. J. Devlin, C. F. Chabalowski, and M. J. Frisch.,  J. Phys. Chem. 98, 11623 (1994) (10.1021/j100096a001)

    Deriv               =              1
    GGA                 =           TRUE
    Meta                =          FALSE

    Exchange Hybrid     =           TRUE
    MP2 Hybrid          =          FALSE

   => Exchange Functionals <=

    0.0800   Slater exchange
    0.7200         Becke 88

   => Exact (HF) Exchange <=

    0.2000               HF

   => Correlation Functionals <=

    0.1900   Vosko, Wilk & Nusair (VWN5_RPA)
    0.8100   Lee, Yang & Parr

   => LibXC Density Thresholds  <==

    XC_HYB_GGA_XC_B3LYP:  1.00E-15

   => Molecular Quadrature <=

    Radial Scheme          =       TREUTLER
    Pruning Scheme         =           NONE
    Nuclear Scheme         =       TREUTLER

    Blocking Scheme        =         OCTREE
    BS radius alpha        =              1
    Pruning alpha          =              1
    Radial Points          =             75
    Spherical Points       =            302
    Total Points           =          43874
    Total Blocks           =            410
    Max Points             =            255
    Max Functions          =             23
    Weights Tolerance      =       1.00E-15

  -Total Gradient:
     Atom            X                  Y                   Z
    ------   -----------------  -----------------  -----------------
       1        0.000000000000     0.000000000000    -0.000016350886
       2        0.000000000000    -0.000000000000     0.000014547879

*** tstop() called on Joses-MacBook-Pro-2.local at Thu Jul 17 12:30:07 2025
Module time:
	user time   =       0.70 seconds =       0.01 minutes
	system time =       1.15 seconds =       0.02 minutes
	total time  =          0 seconds =       0.00 minutes
Total time:
	user time   =      43.92 seconds =       0.73 minutes
	system time =      63.09 seconds =       1.05 minutes
	total time  =         10 seconds =       0.17 minutes

    			-----------------------------------------

    			 OPTKING 3.0: for geometry optimizations

    			     By R.A. King, Bethel University

    			        with contributions from

    			    A.V. Copan, J. Cayton, A. Heide

    			-----------------------------------------

	                            ===> Fragment 1 <==

	 Z (Atomic Numbers)          Masses                          Geom
	       2.000000             4.002603          0.00000000  0.00000000  5.48025251
	      11.000000            22.989769          0.00000000  0.00000000 -0.95413209

	 - Coordinate -           - BOHR/RAD -       - ANG/DEG -
	 R(1,2)           =         6.434385           3.404930

	        --- Internal Coordinate Step in ANG or DEG, aJ/ANG or AJ/DEG ---
	-------------------------------------------------------------------------------
	           Coordinate      Previous         Force          Change          New
	           ----------      --------        ------          ------        ------
	               R(1,2)       3.40493        0.00013        0.00114       3.40607
	-------------------------------------------------------------------------------

	                                 ==> Convergence Check <==

	Measures of convergence in internal coordinates in au.

	Criteria marked as inactive (o), active & met (*), and active & unmet ( ).

	----------------------------------------------------------------------------------------------
	   Step    Total Energy     Delta E     Max Force     RMS Force      Max Disp      RMS Disp
	----------------------------------------------------------------------------------------------
	  Convergence Criteria     1.00e-06 *    3.00e-04 *             o    1.20e-03 *             o
	----------------------------------------------------------------------------------------------
	    14    -162.94605654   -4.06e-07 *    1.54e-05 *    1.54e-05 o    2.16e-03      2.16e-03 o  ~
	----------------------------------------------------------------------------------------------

Next Geometry in Ang
	Fragment 1 (Ang)

	   He   0.0000000000   0.0000000000   2.9005964000
	   Na   0.0000000000   0.0000000000  -0.5054766175

    Final optimized geometry and variables:
    Molecular point group: c2v
    Full point group: C_inf_v

    Geometry (in Angstrom), charge = 1, multiplicity = 5:

    HE           0.000000000000     0.000000000000     2.900024738839
    NA           0.000000000000     0.000000000000    -0.504904956390

    Psi4 stopped on: Thursday, 17 July 2025 12:30PM
    Psi4 wall time for execution: 0:00:10.85

*** Psi4 exiting successfully. Buy a developer a beer!
