                               Psi4 1.9.1 release

  ==> Input File <==

--------------------------------------------------------------------------
molecule {
1 5
Al   0.00000        0.60000        0.00000
Si   0.00000       -0.60000        0.00000
}

set {
basis              cc-pvdz
reference          uks
maxiter            500
geom_maxiter       500
DAMPING_PERCENTAGE 1
guess              SAP
}

optimize('b3lyp')
--------------------------------------------------------------------------

    Molecular point group: c2v
  Charge       = 1
  Multiplicity = 5
  Basis Set: CC-PVDZ
    Blend: CC-PVDZ
  Basis Set: (CC-PVDZ AUX)
    Blend: CC-PVDZ-JKFIT
  @DF-UKS Final Energy:  -530.31759734681805
    Total Energy =                       -530.3175973468180473
 Dipole X            :          0.0000000            0.0000000            0.0000000
 Dipole Y            :          0.0000000            0.0000000            0.0000000
 Dipole Z            :          0.4780959           -0.5793738           -0.1012779
 Magnitude           :                                                    0.1012779
    Molecular point group: c2v
  Basis Set: CC-PVDZ
    Blend: CC-PVDZ
  Basis Set: (CC-PVDZ AUX)
    Blend: CC-PVDZ-JKFIT
  Basis Set: CC-PVDZ
    Blend: CC-PVDZ
  Basis Set: (CC-PVDZ AUX)
    Blend: CC-PVDZ-JKFIT
  @DF-UKS Final Energy:  -530.33596688723662
    Total Energy =                       -530.3359668872366228
  Basis Set: CC-PVDZ
    Blend: CC-PVDZ
  Basis Set: (CC-PVDZ AUX)
    Blend: CC-PVDZ-JKFIT
  Basis Set: CC-PVDZ
    Blend: CC-PVDZ
  @DF-UKS Final Energy:  -530.37145002551267
    Total Energy =                       -530.3714500255126723
  @DF-UKS Final Energy:  -530.50020444958864
    Total Energy =                       -530.5002044495886366
  @DF-UKS Final Energy:  -531.04373749740398
    Total Energy =                       -531.0437374974039813
  @DF-UKS Final Energy:  -531.30659303445304
    Total Energy =                       -531.3065930344530443
  @DF-UKS Final Energy:  -531.42839446639596
    Total Energy =                       -531.4283944663959574
  @DF-UKS Final Energy:  -531.47799547095235
    Total Energy =                       -531.4779954709523508
  @DF-UKS Final Energy:  -531.49600329003056
    Total Energy =                       -531.4960032900305578
  @DF-UKS Final Energy:  -531.50084355891136
    Total Energy =                       -531.5008435589113560
  @DF-UKS Final Energy:  -531.50151377464454
    Total Energy =                       -531.5015137746445362
  @DF-UKS Final Energy:  -531.50161663902520
    Total Energy =                       -531.5016166390252010
  Basis Set: (CC-PVDZ AUX)
    Blend: CC-PVDZ-JKFIT
  Basis Set: CC-PVDZ
    Blend: CC-PVDZ
  Basis Set: (CC-PVDZ AUX)
    Blend: CC-PVDZ-JKFIT
  @DF-UKS Final Energy:  -531.50163564396155
    Total Energy =                       -531.5016356439615492
  Basis Set: CC-PVDZ
    Blend: CC-PVDZ
  Basis Set: (CC-PVDZ AUX)
    Blend: CC-PVDZ-JKFIT
  Charge       = 1
  Multiplicity = 5
  Basis Set: CC-PVDZ
    Blend: CC-PVDZ
  Basis Set: (CC-PVDZ AUX)
    Blend: CC-PVDZ-JKFIT

    Orbital Energies [Eh]
    ---------------------

    Alpha Occupied:

       1A1   -66.400014     2A1   -56.367836     3A1    -5.544232
       4A1    -4.444600     1B1    -3.903655     1B2    -3.903655
       5A1    -3.902914     2B2    -2.997878     2B1    -2.997878
       6A1    -2.995927     7A1    -0.737496     8A1    -0.570214
       9A1    -0.440668     3B2    -0.432781     3B1    -0.432781

    Alpha Virtual:

       4B2    -0.281850     4B1    -0.281850    10A1    -0.162795
      11A1    -0.075486     5B1    -0.026221     5B2    -0.026221
      12A1    -0.008767    13A1     0.003983     1A2     0.003983
       6B2     0.027358     6B1     0.027358    14A1     0.048863
       7B2     0.127772     7B1     0.127772     2A2     0.145972
      15A1     0.145972    16A1     0.190116    17A1     0.279840
       8B2     0.298817     8B1     0.298817    18A1     0.549591

    Beta Occupied:

       1A1   -66.390949     2A1   -56.361315     3A1    -5.533032
       4A1    -4.434937     1B1    -3.890065     1B2    -3.890065
       5A1    -3.889125     2B2    -2.989699     2B1    -2.989699
       6A1    -2.985087     7A1    -0.648850

    Beta Virtual:

       8A1    -0.435483     3B2    -0.321641     3B1    -0.321641
       9A1    -0.309488     4B2    -0.215610     4B1    -0.215610
      10A1    -0.117175    11A1    -0.038423     5B1     0.015932
       5B2     0.015932    12A1     0.029617     1A2     0.056890
      13A1     0.056891     6B2     0.076048     6B1     0.076048
      14A1     0.093468     7B2     0.163365     7B1     0.163365
      15A1     0.216564     2A2     0.216565    16A1     0.225766
      17A1     0.327151     8B2     0.363812     8B1     0.363812
      18A1     0.598292

    Final Occupation by Irrep:
             A1    A2    B1    B2
    DOCC [     7,    0,    2,    2 ]
    SOCC [     2,    0,    1,    1 ]
    NA   [     9,    0,    3,    3 ]
    NB   [     7,    0,    2,    2 ]

  @DF-UKS Final Energy:  -531.50163676561033

   => Energetics <=

    Nuclear Repulsion Energy =             41.7802084248818630
    One-Electron Energy =                -813.9440897003235023
    Two-Electron Energy =                 272.2918349030155696
    DFT Exchange-Correlation Energy =     -31.6295903931842304
    Empirical Dispersion Energy =           0.0000000000000000
    VV10 Nonlocal Energy =                  0.0000000000000000
    Total Energy =                       -531.5016367656103284

  UHF NO Occupations:
  HONO-2 :    3 B1 1.0000000
  HONO-1 :    8 A1 1.0000000
  HONO-0 :    9 A1 1.0000000
  LUNO+0 :   10 A1 0.0001317
  LUNO+1 :    4 B1 0.0000008
  LUNO+2 :    4 B2 0.0000008
  LUNO+3 :   11 A1 0.0000005

Computation Completed

Properties will be evaluated at   0.000000,   0.000000,   0.000000 [a0]

Properties computed using the SCF density matrix

 Multipole Moments:

 ------------------------------------------------------------------------------------
     Multipole            Electronic (a.u.)      Nuclear  (a.u.)        Total (a.u.)
 ------------------------------------------------------------------------------------

 L = 1.  Multiply by 2.5417464519 to convert [e a0] to [Debye]
 Dipole X            :          0.0000000            0.0000000            0.0000000
 Dipole Y            :          0.0000000            0.0000000            0.0000000
 Dipole Z            :          1.8657010           -1.1129599            0.7527411
 Magnitude           :                                                    0.7527411

 ------------------------------------------------------------------------------------

*** tstop() called on Joses-MacBook-Pro-2.local at Thu Jul 17 15:17:16 2025
Module time:
	user time   =      33.36 seconds =       0.56 minutes
	system time =       2.25 seconds =       0.04 minutes
	total time  =          4 seconds =       0.07 minutes
Total time:
	user time   =     383.17 seconds =       6.39 minutes
	system time =      57.40 seconds =       0.96 minutes
	total time  =         45 seconds =       0.75 minutes

*** tstart() called on Joses-MacBook-Pro-2.local
*** at Thu Jul 17 15:17:16 2025

         ------------------------------------------------------------
                                   SCF GRAD
                          Rob Parrish, Justin Turney,
                       Andy Simmonett, and Alex Sokolov
         ------------------------------------------------------------

  ==> Geometry <==

    Molecular point group: c2v
    Full point group: C_inf_v

    Geometry (in Angstrom), charge = 1, multiplicity = 5:

       Center              X                  Y                   Z               Mass
    ------------   -----------------  -----------------  -----------------  -----------------
         AL           0.000000000000     0.000000000000     1.173457395030    26.981538530000
         SI           0.000000000000     0.000000000000    -1.131707082910    27.976926534650

  Nuclear repulsion =   41.780208424881863

  ==> Basis Set <==

  Basis Set: CC-PVDZ
    Blend: CC-PVDZ
    Number of shells: 16
    Number of basis functions: 36
    Number of Cartesian functions: 38
    Spherical Harmonics?: true
    Max angular momentum: 2

  ==> DFJKGrad: Density-Fitted SCF Gradients <==

    Gradient:                    1
    J tasked:                  Yes
    K tasked:                  Yes
    wK tasked:                  No
    OpenMP threads:              1
    Integrals threads:           1
    Memory [MiB]:              375
    Schwarz Cutoff:          1E-12
    Fitting Condition:       1E-10

   => Auxiliary Basis Set <=

  Basis Set: (CC-PVDZ AUX)
    Blend: CC-PVDZ-JKFIT
    Number of shells: 72
    Number of basis functions: 224
    Number of Cartesian functions: 260
    Spherical Harmonics?: true
    Max angular momentum: 3

  ==> DFT Potential <==

   => LibXC <=

    Version 6.2.2
    S. Lehtola, C. Steigemann, M. J.T. Oliveira, and M. A.L. Marques.,  SoftwareX 7, 1â€“5 (2018) (10.1016/j.softx.2017.11.002)

   => Composite Functional: B3LYP <=

    B3LYP Hyb-GGA Exchange-Correlation Functional

    P. J. Stephens, F. J. Devlin, C. F. Chabalowski, and M. J. Frisch.,  J. Phys. Chem. 98, 11623 (1994) (10.1021/j100096a001)

    Deriv               =              1
    GGA                 =           TRUE
    Meta                =          FALSE

    Exchange Hybrid     =           TRUE
    MP2 Hybrid          =          FALSE

   => Exchange Functionals <=

    0.0800   Slater exchange
    0.7200         Becke 88

   => Exact (HF) Exchange <=

    0.2000               HF

   => Correlation Functionals <=

    0.1900   Vosko, Wilk & Nusair (VWN5_RPA)
    0.8100   Lee, Yang & Parr

   => LibXC Density Thresholds  <==

    XC_HYB_GGA_XC_B3LYP:  1.00E-15

   => Molecular Quadrature <=

    Radial Scheme          =       TREUTLER
    Pruning Scheme         =           NONE
    Nuclear Scheme         =       TREUTLER

    Blocking Scheme        =         OCTREE
    BS radius alpha        =              1
    Pruning alpha          =              1
    Radial Points          =             75
    Spherical Points       =            302
    Total Points           =          42397
    Total Blocks           =            403
    Max Points             =            255
    Max Functions          =             36
    Weights Tolerance      =       1.00E-15

  -Total Gradient:
     Atom            X                  Y                   Z
    ------   -----------------  -----------------  -----------------
       1        0.000000000000     0.000000000000    -0.000129963159
       2        0.000000000000    -0.000000000000     0.000132520481

*** tstop() called on Joses-MacBook-Pro-2.local at Thu Jul 17 15:17:17 2025
Module time:
	user time   =       7.54 seconds =       0.13 minutes
	system time =       0.79 seconds =       0.01 minutes
	total time  =          1 seconds =       0.02 minutes
Total time:
	user time   =     390.72 seconds =       6.51 minutes
	system time =      58.19 seconds =       0.97 minutes
	total time  =         46 seconds =       0.77 minutes

    			-----------------------------------------

    			 OPTKING 3.0: for geometry optimizations

    			     By R.A. King, Bethel University

    			        with contributions from

    			    A.V. Copan, J. Cayton, A. Heide

    			-----------------------------------------

	                            ===> Fragment 1 <==

	 Z (Atomic Numbers)          Masses                          Geom
	      13.000000            26.981539          0.00000000  0.00000000  2.21751310
	      14.000000            27.976927          0.00000000  0.00000000 -2.13861644

	 - Coordinate -           - BOHR/RAD -       - ANG/DEG -
	 R(1,2)           =         4.356130           2.305164

	        --- Internal Coordinate Step in ANG or DEG, aJ/ANG or AJ/DEG ---
	-------------------------------------------------------------------------------
	           Coordinate      Previous         Force          Change          New
	           ----------      --------        ------          ------        ------
	               R(1,2)       2.30516        0.00108        0.00052       2.30569
	-------------------------------------------------------------------------------

	                                 ==> Convergence Check <==

	Measures of convergence in internal coordinates in au.

	Criteria marked as inactive (o), active & met (*), and active & unmet ( ).

	----------------------------------------------------------------------------------------------
	   Step    Total Energy     Delta E     Max Force     RMS Force      Max Disp      RMS Disp
	----------------------------------------------------------------------------------------------
	  Convergence Criteria     1.00e-06 *    3.00e-04 *             o    1.20e-03 *             o
	----------------------------------------------------------------------------------------------
	    14    -531.50163677   -1.12e-06      1.31e-04 *    1.31e-04 o    9.87e-04 *    9.87e-04 o  ~
	----------------------------------------------------------------------------------------------

Next Geometry in Ang
	Fragment 1 (Ang)

	   Al   0.0000000000   0.0000000000   1.1737185171
	   Si   0.0000000000   0.0000000000  -1.1319682049

    Final optimized geometry and variables:
    Molecular point group: c2v
    Full point group: C_inf_v

    Geometry (in Angstrom), charge = 1, multiplicity = 5:

    AL           0.000000000000     0.000000000000     1.173457395030
    SI           0.000000000000     0.000000000000    -1.131707082910

    Psi4 stopped on: Thursday, 17 July 2025 03:17PM
    Psi4 wall time for execution: 0:00:45.87

*** Psi4 exiting successfully. Buy a developer a beer!
