                               Psi4 1.9.1 release

  ==> Input File <==

--------------------------------------------------------------------------
molecule {
1 5
Na   0.00000        0.60000        0.00000
Ar   0.00000       -0.60000        0.00000
}

set {
basis              cc-pvdz
reference          uks
maxiter            500
geom_maxiter       500
DAMPING_PERCENTAGE 1
guess              SAP
}

optimize('b3lyp')
--------------------------------------------------------------------------

    Molecular point group: c2v
  Charge       = 1
  Multiplicity = 5
  Basis Set: CC-PVDZ
    Blend: CC-PVDZ
  Basis Set: (CC-PVDZ AUX)
    Blend: CC-PVDZ-JKFIT + DEF2-UNIVERSAL-JKFIT
  @DF-UKS Final Energy:  -687.47958696403941
    Total Energy =                       -687.4795869640394130
 Dipole X            :          0.0000000            0.0000000            0.0000000
 Dipole Y            :          0.0000000            0.0000000            0.0000000
 Dipole Z            :         -2.0119420            0.9283038           -1.0836381
 Magnitude           :                                                    1.0836381
    Molecular point group: c2v
  Basis Set: CC-PVDZ
    Blend: CC-PVDZ
  Basis Set: (CC-PVDZ AUX)
    Blend: CC-PVDZ-JKFIT + DEF2-UNIVERSAL-JKFIT
  Basis Set: CC-PVDZ
    Blend: CC-PVDZ
  Basis Set: (CC-PVDZ AUX)
    Blend: CC-PVDZ-JKFIT + DEF2-UNIVERSAL-JKFIT
  @DF-UKS Final Energy:  -687.49838363996309
    Total Energy =                       -687.4983836399630945
  Basis Set: CC-PVDZ
    Blend: CC-PVDZ
  Basis Set: (CC-PVDZ AUX)
    Blend: CC-PVDZ-JKFIT + DEF2-UNIVERSAL-JKFIT
  Basis Set: CC-PVDZ
    Blend: CC-PVDZ
  @DF-UKS Final Energy:  -687.53426047613937
    Total Energy =                       -687.5342604761392522
  @DF-UKS Final Energy:  -687.66031376944568
    Total Energy =                       -687.6603137694455654
  @DF-UKS Final Energy:  -688.10792890621940
    Total Energy =                       -688.1079289062193993
  @DF-UKS Final Energy:  -688.27453940433873
    Total Energy =                       -688.2745394043387250
  @DF-UKS Final Energy:  -688.38695938423155
    Total Energy =                       -688.3869593842315453
  @DF-UKS Final Energy:  -688.46313135986566
    Total Energy =                       -688.4631313598656561
  @DF-UKS Final Energy:  -688.51286693390625
    Total Energy =                       -688.5128669339062526
  @DF-UKS Final Energy:  -688.54498397210932
    Total Energy =                       -688.5449839721092076
  @DF-UKS Final Energy:  -688.56061341235920
    Total Energy =                       -688.5606134123593165
  @DF-UKS Final Energy:  -688.56495990210385
    Total Energy =                       -688.5649599021037375
  @DF-UKS Final Energy:  -688.56547991183675
    Total Energy =                       -688.5654799118367464
  Basis Set: (CC-PVDZ AUX)
    Blend: CC-PVDZ-JKFIT + DEF2-UNIVERSAL-JKFIT
  Basis Set: CC-PVDZ
    Blend: CC-PVDZ
  Basis Set: (CC-PVDZ AUX)
    Blend: CC-PVDZ-JKFIT + DEF2-UNIVERSAL-JKFIT
  @DF-UKS Final Energy:  -688.56549580182809
    Total Energy =                       -688.5654958018279785
  Basis Set: CC-PVDZ
    Blend: CC-PVDZ
  Basis Set: (CC-PVDZ AUX)
    Blend: CC-PVDZ-JKFIT + DEF2-UNIVERSAL-JKFIT
  Charge       = 1
  Multiplicity = 5
  Basis Set: CC-PVDZ
    Blend: CC-PVDZ
  Basis Set: (CC-PVDZ AUX)
    Blend: CC-PVDZ-JKFIT + DEF2-UNIVERSAL-JKFIT

    Orbital Energies [Eh]
    ---------------------

    Alpha Occupied:

       1A1  -115.962247     2A1   -38.616824     3A1   -11.965075
       4A1    -9.532960     1B2    -9.532280     1B1    -9.500700
       5A1    -2.367434     6A1    -1.709379     7A1    -1.302262
       2B1    -1.298095     2B2    -1.296109     8A1    -1.148153
       3B2    -1.146405     3B1    -1.079776     9A1    -0.328372
       4B2    -0.218286

    Alpha Virtual:

      10A1    -0.167952     4B1    -0.163891    11A1    -0.118072
       5B2    -0.068026     5B1    -0.055390    12A1    -0.027592
       6B2     0.000654    13A1     0.004177     6B1     0.008751
       1A2     0.024894    14A1     0.035324     7B2     0.079616
      15A1     0.096425     7B1     0.117372     2A2     0.139664
      16A1     0.145791    17A1     0.174760     8B2     0.188567
       8B1     0.221329    18A1     0.552197

    Beta Occupied:

       1A1  -115.941634     2A1   -38.614860     3A1   -11.945174
       4A1    -9.495917     1B2    -9.494295     1B1    -9.488692
       5A1    -2.363952     6A1    -1.573752     7A1    -1.298803
       2B1    -1.296385     2B2    -1.291961     3B1    -1.035629

    Beta Virtual:

       8A1    -0.920429     3B2    -0.916370     9A1    -0.233566
      10A1    -0.154656     4B1    -0.131554     4B2    -0.119259
      11A1    -0.088304     5B1    -0.036185     5B2    -0.027986
      12A1    -0.020747     6B1     0.008703     6B2     0.019953
      13A1     0.036396     1A2     0.061663    14A1     0.064639
       7B1     0.155801     7B2     0.166198    15A1     0.177541
       2A2     0.220701    16A1     0.227041    17A1     0.256084
       8B1     0.273280     8B2     0.290831    18A1     0.602375

    Final Occupation by Irrep:
             A1    A2    B1    B2
    DOCC [     7,    0,    3,    2 ]
    SOCC [     2,    0,    0,    2 ]
    NA   [     9,    0,    3,    4 ]
    NB   [     7,    0,    3,    2 ]

  @DF-UKS Final Energy:  -688.56549614302719

   => Energetics <=

    Nuclear Repulsion Energy =             35.7450432430596905
    One-Electron Energy =               -1012.1244256451960837
    Two-Electron Energy =                 323.8609455168720501
    DFT Exchange-Correlation Energy =     -36.0470592577628466
    Empirical Dispersion Energy =           0.0000000000000000
    VV10 Nonlocal Energy =                  0.0000000000000000
    Total Energy =                       -688.5654961430270760

  UHF NO Occupations:
  HONO-2 :    8 A1 1.0000000
  HONO-1 :    9 A1 1.0000000
  HONO-0 :    4 B2 1.0000000
  LUNO+0 :   10 A1 0.0009589
  LUNO+1 :    4 B1 0.0000954
  LUNO+2 :    5 B2 0.0000009
  LUNO+3 :    5 B1 0.0000007

Computation Completed

Properties will be evaluated at   0.000000,   0.000000,   0.000000 [a0]

Properties computed using the SCF density matrix

 Multipole Moments:

 ------------------------------------------------------------------------------------
     Multipole            Electronic (a.u.)      Nuclear  (a.u.)        Total (a.u.)
 ------------------------------------------------------------------------------------

 L = 1.  Multiply by 2.5417464519 to convert [e a0] to [Debye]
 Dipole X            :          0.0000000            0.0000000            0.0000000
 Dipole Y            :          0.0000000            0.0000000            0.0000000
 Dipole Z            :         -5.2432601            2.2675631           -2.9756969
 Magnitude           :                                                    2.9756969

 ------------------------------------------------------------------------------------

*** tstop() called on Joses-MacBook-Pro-2.local at Thu Jul 17 15:03:00 2025
Module time:
	user time   =      22.90 seconds =       0.38 minutes
	system time =       2.26 seconds =       0.04 minutes
	total time  =          2 seconds =       0.03 minutes
Total time:
	user time   =     343.65 seconds =       5.73 minutes
	system time =      72.54 seconds =       1.21 minutes
	total time  =         42 seconds =       0.70 minutes

*** tstart() called on Joses-MacBook-Pro-2.local
*** at Thu Jul 17 15:03:00 2025

         ------------------------------------------------------------
                                   SCF GRAD
                          Rob Parrish, Justin Turney,
                       Andy Simmonett, and Alex Sokolov
         ------------------------------------------------------------

  ==> Geometry <==

    Molecular point group: c2v
    Full point group: C_inf_v

    Geometry (in Angstrom), charge = 1, multiplicity = 5:

       Center              X                  Y                   Z               Mass
    ------------   -----------------  -----------------  -----------------  -----------------
         NA           0.000000000000     0.000000000000     1.860763984644    22.989769282000
         AR           0.000000000000     0.000000000000    -1.070470060877    39.962383123700

  Nuclear repulsion =   35.745043243059690

  ==> Basis Set <==

  Basis Set: CC-PVDZ
    Blend: CC-PVDZ
    Number of shells: 16
    Number of basis functions: 36
    Number of Cartesian functions: 38
    Spherical Harmonics?: true
    Max angular momentum: 2

  ==> DFJKGrad: Density-Fitted SCF Gradients <==

    Gradient:                    1
    J tasked:                  Yes
    K tasked:                  Yes
    wK tasked:                  No
    OpenMP threads:              1
    Integrals threads:           1
    Memory [MiB]:              375
    Schwarz Cutoff:          1E-12
    Fitting Condition:       1E-10

   => Auxiliary Basis Set <=

  Basis Set: (CC-PVDZ AUX)
    Blend: CC-PVDZ-JKFIT + DEF2-UNIVERSAL-JKFIT
    Number of shells: 70
    Number of basis functions: 224
    Number of Cartesian functions: 267
    Spherical Harmonics?: true
    Max angular momentum: 4

  ==> DFT Potential <==

   => LibXC <=

    Version 6.2.2
    S. Lehtola, C. Steigemann, M. J.T. Oliveira, and M. A.L. Marques.,  SoftwareX 7, 1â€“5 (2018) (10.1016/j.softx.2017.11.002)

   => Composite Functional: B3LYP <=

    B3LYP Hyb-GGA Exchange-Correlation Functional

    P. J. Stephens, F. J. Devlin, C. F. Chabalowski, and M. J. Frisch.,  J. Phys. Chem. 98, 11623 (1994) (10.1021/j100096a001)

    Deriv               =              1
    GGA                 =           TRUE
    Meta                =          FALSE

    Exchange Hybrid     =           TRUE
    MP2 Hybrid          =          FALSE

   => Exchange Functionals <=

    0.0800   Slater exchange
    0.7200         Becke 88

   => Exact (HF) Exchange <=

    0.2000               HF

   => Correlation Functionals <=

    0.1900   Vosko, Wilk & Nusair (VWN5_RPA)
    0.8100   Lee, Yang & Parr

   => LibXC Density Thresholds  <==

    XC_HYB_GGA_XC_B3LYP:  1.00E-15

   => Molecular Quadrature <=

    Radial Scheme          =       TREUTLER
    Pruning Scheme         =           NONE
    Nuclear Scheme         =       TREUTLER

    Blocking Scheme        =         OCTREE
    BS radius alpha        =              1
    Pruning alpha          =              1
    Radial Points          =             75
    Spherical Points       =            302
    Total Points           =          43859
    Total Blocks           =            443
    Max Points             =            256
    Max Functions          =             36
    Weights Tolerance      =       1.00E-15

  -Total Gradient:
     Atom            X                  Y                   Z
    ------   -----------------  -----------------  -----------------
       1        0.000000000000    -0.000000000000     0.000010396062
       2        0.000000000000     0.000000000000     0.000078212397

*** tstop() called on Joses-MacBook-Pro-2.local at Thu Jul 17 15:03:01 2025
Module time:
	user time   =       5.41 seconds =       0.09 minutes
	system time =       1.68 seconds =       0.03 minutes
	total time  =          1 seconds =       0.02 minutes
Total time:
	user time   =     349.08 seconds =       5.82 minutes
	system time =      74.24 seconds =       1.24 minutes
	total time  =         43 seconds =       0.72 minutes

    			-----------------------------------------

    			 OPTKING 3.0: for geometry optimizations

    			     By R.A. King, Bethel University

    			        with contributions from

    			    A.V. Copan, J. Cayton, A. Heide

    			-----------------------------------------

	                            ===> Fragment 1 <==

	 Z (Atomic Numbers)          Masses                          Geom
	      11.000000            22.989769          0.00000000  0.00000000  3.51633432
	      18.000000            39.962383          0.00000000  0.00000000 -2.02289524

	 - Coordinate -           - BOHR/RAD -       - ANG/DEG -
	 R(1,2)           =         5.539230           2.931234

	        --- Internal Coordinate Step in ANG or DEG, aJ/ANG or AJ/DEG ---
	-------------------------------------------------------------------------------
	           Coordinate      Previous         Force          Change          New
	           ----------      --------        ------          ------        ------
	               R(1,2)       2.93123        0.00028        0.00040       2.93163
	-------------------------------------------------------------------------------

	                                 ==> Convergence Check <==

	Measures of convergence in internal coordinates in au.

	Criteria marked as inactive (o), active & met (*), and active & unmet ( ).

	----------------------------------------------------------------------------------------------
	   Step    Total Energy     Delta E     Max Force     RMS Force      Max Disp      RMS Disp
	----------------------------------------------------------------------------------------------
	  Convergence Criteria     1.00e-06 *    3.00e-04 *             o    1.20e-03 *             o
	----------------------------------------------------------------------------------------------
	    15    -688.56549614   -3.41e-07 *    3.39e-05 *    3.39e-05 o    7.57e-04 *    7.57e-04 o  ~
	----------------------------------------------------------------------------------------------

Next Geometry in Ang
	Fragment 1 (Ang)

	   Na   0.0000000000   0.0000000000   1.8609641742
	   Ar   0.0000000000   0.0000000000  -1.0706702504

    Final optimized geometry and variables:
    Molecular point group: c2v
    Full point group: C_inf_v

    Geometry (in Angstrom), charge = 1, multiplicity = 5:

    NA           0.000000000000     0.000000000000     1.860763984644
    AR           0.000000000000     0.000000000000    -1.070470060877

    Psi4 stopped on: Thursday, 17 July 2025 03:03PM
    Psi4 wall time for execution: 0:00:43.42

*** Psi4 exiting successfully. Buy a developer a beer!
