                               Psi4 1.9.1 release

  ==> Input File <==

--------------------------------------------------------------------------
molecule {
1 5
P   0.00000        0.60000        0.00000
S   0.00000       -0.60000        0.00000
}

set {
basis              cc-pvdz
reference          uks
maxiter            500
geom_maxiter       500
DAMPING_PERCENTAGE 1
guess              SAP
}

optimize('b3lyp')
--------------------------------------------------------------------------

    Molecular point group: c2v
  Charge       = 1
  Multiplicity = 5
  Basis Set: CC-PVDZ
    Blend: CC-PVDZ
  Basis Set: (CC-PVDZ AUX)
    Blend: CC-PVDZ-JKFIT
  @DF-UKS Final Energy:  -737.68798011573801
    Total Energy =                       -737.6879801157380143
 Dipole X            :          0.0000000            0.0000000            0.0000000
 Dipole Y            :          0.0000000            0.0000000            0.0000000
 Dipole Z            :          0.2265619           -0.5763806           -0.3498187
 Magnitude           :                                                    0.3498187
    Molecular point group: c2v
  Basis Set: CC-PVDZ
    Blend: CC-PVDZ
  Basis Set: (CC-PVDZ AUX)
    Blend: CC-PVDZ-JKFIT
  Basis Set: CC-PVDZ
    Blend: CC-PVDZ
  Basis Set: (CC-PVDZ AUX)
    Blend: CC-PVDZ-JKFIT
  @DF-UKS Final Energy:  -737.72589952704152
    Total Energy =                       -737.7258995270415198
  Basis Set: CC-PVDZ
    Blend: CC-PVDZ
  Basis Set: (CC-PVDZ AUX)
    Blend: CC-PVDZ-JKFIT
  Basis Set: CC-PVDZ
    Blend: CC-PVDZ
  @DF-UKS Final Energy:  -737.79667438364322
    Total Energy =                       -737.7966743836431078
  @DF-UKS Final Energy:  -738.03020753851661
    Total Energy =                       -738.0302075385166063
  @DF-UKS Final Energy:  -738.55362113962440
    Total Energy =                       -738.5536211396243971
  @DF-UKS Final Energy:  -738.81163038999068
    Total Energy =                       -738.8116303899907962
  @DF-UKS Final Energy:  -738.95942191230688
    Total Energy =                       -738.9594219123068797
  @DF-UKS Final Energy:  -739.01970738552552
    Total Energy =                       -739.0197073855255212
  @DF-UKS Final Energy:  -739.04791833372860
    Total Energy =                       -739.0479183337287168
  @DF-UKS Final Energy:  -739.05955823708348
    Total Energy =                       -739.0595582370834791
  @DF-UKS Final Energy:  -739.06302633972939
    Total Energy =                       -739.0630263397293902
  @DF-UKS Final Energy:  -739.06469809639077
    Total Energy =                       -739.0646980963907708
  @DF-UKS Final Energy:  -739.06516137330152
    Total Energy =                       -739.0651613733015211
  @DF-UKS Final Energy:  -739.06534577530033
    Total Energy =                       -739.0653457753003295
  @DF-UKS Final Energy:  -739.06538040468081
    Total Energy =                       -739.0653804046808091
  Basis Set: (CC-PVDZ AUX)
    Blend: CC-PVDZ-JKFIT
  Basis Set: CC-PVDZ
    Blend: CC-PVDZ
  Basis Set: (CC-PVDZ AUX)
    Blend: CC-PVDZ-JKFIT
  @DF-UKS Final Energy:  -739.06538820874948
    Total Energy =                       -739.0653882087494821
  Basis Set: CC-PVDZ
    Blend: CC-PVDZ
  Basis Set: (CC-PVDZ AUX)
    Blend: CC-PVDZ-JKFIT
  Charge       = 1
  Multiplicity = 5
  Basis Set: CC-PVDZ
    Blend: CC-PVDZ
  Basis Set: (CC-PVDZ AUX)
    Blend: CC-PVDZ-JKFIT

    Orbital Energies [Eh]
    ---------------------

    Alpha Occupied:

       1A1   -89.235686     2A1   -77.444927     3A1    -8.292350
       4A1    -6.909022     5A1    -6.261744     1B2    -6.260521
       1B1    -6.242267     6A1    -5.074864     2B2    -5.071607
       2B1    -5.069820     7A1    -1.035671     8A1    -0.875888
       9A1    -0.646240     3B2    -0.617869     3B1    -0.581897
       4B2    -0.520317     4B1    -0.504620

    Alpha Virtual:

      10A1    -0.356799    11A1     0.040152     5B2     0.074950
       5B1     0.089917    12A1     0.106116     1A2     0.149489
      13A1     0.149580     6B2     0.153572     6B1     0.159834
      14A1     0.165434     7B2     0.220488     7B1     0.248748
      15A1     0.273808     2A2     0.284179    16A1     0.295153
      17A1     0.350935     8B2     0.389285     8B1     0.413180
      18A1     0.754514

    Beta Occupied:

       1A1   -89.225318     2A1   -77.433592     3A1    -8.281748
       4A1    -6.896706     5A1    -6.245938     1B2    -6.237965
       1B1    -6.233541     6A1    -5.063386     2B2    -5.050804
       2B1    -5.050153     7A1    -0.953629     8A1    -0.771421
       3B1    -0.535458

    Beta Virtual:

       9A1    -0.513504     3B2    -0.459597     4B1    -0.369315
       4B2    -0.361001    10A1    -0.290115    11A1     0.088175
      12A1     0.144340     5B1     0.156599     5B2     0.161311
       6B2     0.199387     6B1     0.200213    13A1     0.201113
       1A2     0.246896    14A1     0.247246     7B1     0.267271
       7B2     0.273728    15A1     0.327581     2A2     0.350432
      16A1     0.355008    17A1     0.395009     8B1     0.463942
       8B2     0.468634    18A1     0.803182

    Final Occupation by Irrep:
             A1    A2    B1    B2
    DOCC [     8,    0,    3,    2 ]
    SOCC [     1,    0,    1,    2 ]
    NA   [     9,    0,    4,    4 ]
    NB   [     8,    0,    3,    2 ]

  @DF-UKS Final Energy:  -739.06538914087855

   => Energetics <=

    Nuclear Repulsion Energy =             54.4682788760310928
    One-Electron Energy =               -1120.6184689515544051
    Two-Electron Energy =                 366.1888264890758364
    DFT Exchange-Correlation Energy =     -39.1040255544310753
    Empirical Dispersion Energy =           0.0000000000000000
    VV10 Nonlocal Energy =                  0.0000000000000000
    Total Energy =                       -739.0653891408785512

  UHF NO Occupations:
  HONO-2 :    3 B2 1.0000000
  HONO-1 :    4 B2 1.0000000
  HONO-0 :    4 B1 1.0000000
  LUNO+0 :   10 A1 0.0011878
  LUNO+1 :    5 B1 0.0005991
  LUNO+2 :   11 A1 0.0005057
  LUNO+3 :   12 A1 0.0000002

Computation Completed

Properties will be evaluated at   0.000000,   0.000000,   0.000000 [a0]

Properties computed using the SCF density matrix

 Multipole Moments:

 ------------------------------------------------------------------------------------
     Multipole            Electronic (a.u.)      Nuclear  (a.u.)        Total (a.u.)
 ------------------------------------------------------------------------------------

 L = 1.  Multiply by 2.5417464519 to convert [e a0] to [Debye]
 Dipole X            :          0.0000000            0.0000000            0.0000000
 Dipole Y            :          0.0000000            0.0000000            0.0000000
 Dipole Z            :          1.5406525           -1.1199453            0.4207072
 Magnitude           :                                                    0.4207072

 ------------------------------------------------------------------------------------

*** tstop() called on Joses-MacBook-Pro-2.local at Thu Jul 17 15:46:45 2025
Module time:
	user time   =       7.91 seconds =       0.13 minutes
	system time =       2.07 seconds =       0.03 minutes
	total time  =          1 seconds =       0.02 minutes
Total time:
	user time   =     214.32 seconds =       3.57 minutes
	system time =      54.30 seconds =       0.91 minutes
	total time  =         26 seconds =       0.43 minutes

*** tstart() called on Joses-MacBook-Pro-2.local
*** at Thu Jul 17 15:46:45 2025

         ------------------------------------------------------------
                                   SCF GRAD
                          Rob Parrish, Justin Turney,
                       Andy Simmonett, and Alex Sokolov
         ------------------------------------------------------------

  ==> Geometry <==

    Molecular point group: c2v
    Full point group: C_inf_v

    Geometry (in Angstrom), charge = 1, multiplicity = 5:

       Center              X                  Y                   Z               Mass
    ------------   -----------------  -----------------  -----------------  -----------------
         P            0.000000000000     0.000000000000     1.184329390191    30.973761998420
         S            0.000000000000     0.000000000000    -1.147349399400    31.972071174400

  Nuclear repulsion =   54.468278876031093

  ==> Basis Set <==

  Basis Set: CC-PVDZ
    Blend: CC-PVDZ
    Number of shells: 16
    Number of basis functions: 36
    Number of Cartesian functions: 38
    Spherical Harmonics?: true
    Max angular momentum: 2

  ==> DFJKGrad: Density-Fitted SCF Gradients <==

    Gradient:                    1
    J tasked:                  Yes
    K tasked:                  Yes
    wK tasked:                  No
    OpenMP threads:              1
    Integrals threads:           1
    Memory [MiB]:              375
    Schwarz Cutoff:          1E-12
    Fitting Condition:       1E-10

   => Auxiliary Basis Set <=

  Basis Set: (CC-PVDZ AUX)
    Blend: CC-PVDZ-JKFIT
    Number of shells: 72
    Number of basis functions: 224
    Number of Cartesian functions: 260
    Spherical Harmonics?: true
    Max angular momentum: 3

  ==> DFT Potential <==

   => LibXC <=

    Version 6.2.2
    S. Lehtola, C. Steigemann, M. J.T. Oliveira, and M. A.L. Marques.,  SoftwareX 7, 1â€“5 (2018) (10.1016/j.softx.2017.11.002)

   => Composite Functional: B3LYP <=

    B3LYP Hyb-GGA Exchange-Correlation Functional

    P. J. Stephens, F. J. Devlin, C. F. Chabalowski, and M. J. Frisch.,  J. Phys. Chem. 98, 11623 (1994) (10.1021/j100096a001)

    Deriv               =              1
    GGA                 =           TRUE
    Meta                =          FALSE

    Exchange Hybrid     =           TRUE
    MP2 Hybrid          =          FALSE

   => Exchange Functionals <=

    0.0800   Slater exchange
    0.7200         Becke 88

   => Exact (HF) Exchange <=

    0.2000               HF

   => Correlation Functionals <=

    0.1900   Vosko, Wilk & Nusair (VWN5_RPA)
    0.8100   Lee, Yang & Parr

   => LibXC Density Thresholds  <==

    XC_HYB_GGA_XC_B3LYP:  1.00E-15

   => Molecular Quadrature <=

    Radial Scheme          =       TREUTLER
    Pruning Scheme         =           NONE
    Nuclear Scheme         =       TREUTLER

    Blocking Scheme        =         OCTREE
    BS radius alpha        =              1
    Pruning alpha          =              1
    Radial Points          =             75
    Spherical Points       =            302
    Total Points           =          40870
    Total Blocks           =            364
    Max Points             =            256
    Max Functions          =             36
    Weights Tolerance      =       1.00E-15

  -Total Gradient:
     Atom            X                  Y                   Z
    ------   -----------------  -----------------  -----------------
       1        0.000000000000     0.000000000000    -0.000062909570
       2        0.000000000000    -0.000000000000     0.000069701316

*** tstop() called on Joses-MacBook-Pro-2.local at Thu Jul 17 15:46:45 2025
Module time:
	user time   =       2.56 seconds =       0.04 minutes
	system time =       1.11 seconds =       0.02 minutes
	total time  =          0 seconds =       0.00 minutes
Total time:
	user time   =     216.89 seconds =       3.61 minutes
	system time =      55.41 seconds =       0.92 minutes
	total time  =         26 seconds =       0.43 minutes

    			-----------------------------------------

    			 OPTKING 3.0: for geometry optimizations

    			     By R.A. King, Bethel University

    			        with contributions from

    			    A.V. Copan, J. Cayton, A. Heide

    			-----------------------------------------

	                            ===> Fragment 1 <==

	 Z (Atomic Numbers)          Masses                          Geom
	      15.000000            30.973762          0.00000000  0.00000000  2.23805819
	      16.000000            31.972071          0.00000000  0.00000000 -2.16817614

	 - Coordinate -           - BOHR/RAD -       - ANG/DEG -
	 R(1,2)           =         4.406234           2.331679

	        --- Internal Coordinate Step in ANG or DEG, aJ/ANG or AJ/DEG ---
	-------------------------------------------------------------------------------
	           Coordinate      Previous         Force          Change          New
	           ----------      --------        ------          ------        ------
	               R(1,2)       2.33168        0.00055        0.00064       2.33232
	-------------------------------------------------------------------------------

	                                 ==> Convergence Check <==

	Measures of convergence in internal coordinates in au.

	Criteria marked as inactive (o), active & met (*), and active & unmet ( ).

	----------------------------------------------------------------------------------------------
	   Step    Total Energy     Delta E     Max Force     RMS Force      Max Disp      RMS Disp
	----------------------------------------------------------------------------------------------
	  Convergence Criteria     1.00e-06 *    3.00e-04 *             o    1.20e-03 *             o
	----------------------------------------------------------------------------------------------
	    17    -739.06538914   -9.32e-07 *    6.63e-05 *    6.63e-05 o    1.21e-03      1.21e-03 o  ~
	----------------------------------------------------------------------------------------------

Next Geometry in Ang
	Fragment 1 (Ang)

	    P   0.0000000000   0.0000000000   1.1846505192
	    S   0.0000000000   0.0000000000  -1.1476705284

    Final optimized geometry and variables:
    Molecular point group: c2v
    Full point group: C_inf_v

    Geometry (in Angstrom), charge = 1, multiplicity = 5:

    P            0.000000000000     0.000000000000     1.184329390191
    S            0.000000000000     0.000000000000    -1.147349399400

    Psi4 stopped on: Thursday, 17 July 2025 03:46PM
    Psi4 wall time for execution: 0:00:26.42

*** Psi4 exiting successfully. Buy a developer a beer!
