                               Psi4 1.9.1 release

  ==> Input File <==

--------------------------------------------------------------------------
molecule {
1 5
Cl   0.00000        0.60000        0.00000
Ar   0.00000       -0.60000        0.00000
}

set {
basis              cc-pvdz
reference          uks
maxiter            500
geom_maxiter       500
DAMPING_PERCENTAGE 1
guess              SAP
}

optimize('b3lyp')
--------------------------------------------------------------------------

    Molecular point group: c2v
  Charge       = 1
  Multiplicity = 5
  Basis Set: CC-PVDZ
    Blend: CC-PVDZ
  Basis Set: (CC-PVDZ AUX)
    Blend: CC-PVDZ-JKFIT
  @DF-UKS Final Energy:  -985.24916163638682
    Total Energy =                       -985.2491616363868161
 Dipole X            :          0.0000000            0.0000000            0.0000000
 Dipole Y            :          0.0000000            0.0000000            0.0000000
 Dipole Z            :         -1.6459116            1.5107824           -0.1351291
 Magnitude           :                                                    0.1351291
    Molecular point group: c2v
  Basis Set: CC-PVDZ
    Blend: CC-PVDZ
  Basis Set: (CC-PVDZ AUX)
    Blend: CC-PVDZ-JKFIT
  Basis Set: CC-PVDZ
    Blend: CC-PVDZ
  Basis Set: (CC-PVDZ AUX)
    Blend: CC-PVDZ-JKFIT
  @DF-UKS Final Energy:  -985.29773906389767
    Total Energy =                       -985.2977390638976658
  Basis Set: CC-PVDZ
    Blend: CC-PVDZ
  Basis Set: (CC-PVDZ AUX)
    Blend: CC-PVDZ-JKFIT
  Basis Set: CC-PVDZ
    Blend: CC-PVDZ
  @DF-UKS Final Energy:  -985.38632314920608
    Total Energy =                       -985.3863231492060777
  @DF-UKS Final Energy:  -985.66282851763106
    Total Energy =                       -985.6628285176310555
  @DF-UKS Final Energy:  -986.14365667027391
    Total Energy =                       -986.1436566702739128
  @DF-UKS Final Energy:  -986.31479371761384
    Total Energy =                       -986.3147937176138385
  @DF-UKS Final Energy:  -986.42254763705705
    Total Energy =                       -986.4225476370570505
  @DF-UKS Final Energy:  -986.46375205812706
    Total Energy =                       -986.4637520581271701
  @DF-UKS Final Energy:  -986.48118096406597
    Total Energy =                       -986.4811809640659703
  @DF-UKS Final Energy:  -986.48766154882151
    Total Energy =                       -986.4876615488215066
  @DF-UKS Final Energy:  -986.48931777517964
    Total Energy =                       -986.4893177751796429
  @DF-UKS Final Energy:  -986.48988100557926
    Total Energy =                       -986.4898810055792637
  @DF-UKS Final Energy:  -986.49015985997642
    Total Energy =                       -986.4901598599764156
  @DF-UKS Final Energy:  -986.49027214918442
    Total Energy =                       -986.4902721491844204
  @DF-UKS Final Energy:  -986.49030516673270
    Total Energy =                       -986.4903051667325826
  Basis Set: (CC-PVDZ AUX)
    Blend: CC-PVDZ-JKFIT
  Basis Set: CC-PVDZ
    Blend: CC-PVDZ
  Basis Set: (CC-PVDZ AUX)
    Blend: CC-PVDZ-JKFIT
  @DF-UKS Final Energy:  -986.49031062433858
    Total Energy =                       -986.4903106243385764
  Basis Set: CC-PVDZ
    Blend: CC-PVDZ
  Basis Set: (CC-PVDZ AUX)
    Blend: CC-PVDZ-JKFIT
  Charge       = 1
  Multiplicity = 5
  Basis Set: CC-PVDZ
    Blend: CC-PVDZ
  Basis Set: (CC-PVDZ AUX)
    Blend: CC-PVDZ-JKFIT

    Orbital Energies [Eh]
    ---------------------

    Alpha Occupied:

       1A1  -115.465741     2A1  -102.040428     3A1   -11.493324
       4A1    -9.932820     5A1    -9.048552     1B1    -9.043444
       1B2    -9.043444     2B1    -7.699475     2B2    -7.699475
       6A1    -7.688621     7A1    -1.376813     8A1    -1.226889
       9A1    -0.875214     3B2    -0.807059     3B1    -0.807059
       4B2    -0.722130     4B1    -0.722130    10A1    -0.592374
      11A1     0.044973

    Alpha Virtual:

       5B2     0.178561     5B1     0.178561    12A1     0.212182
       6B2     0.228509     6B1     0.228509     1A2     0.264788
      13A1     0.264788    14A1     0.281121     7B2     0.340573
       7B1     0.340573    15A1     0.460694    16A1     0.486564
      17A1     0.495734     2A2     0.495737     8B2     0.614558
       8B1     0.614558    18A1     1.100494

    Beta Occupied:

       1A1  -115.459363     2A1  -102.019438     3A1   -11.486946
       4A1    -9.911923     1B1    -9.036298     1B2    -9.036298
       5A1    -9.035614     2B1    -7.669155     2B2    -7.669155
       6A1    -7.656617     7A1    -1.314540     8A1    -1.097195
       9A1    -0.783395     3B2    -0.743770     3B1    -0.743770

    Beta Virtual:

       4B1    -0.556481     4B2    -0.556481    10A1    -0.420376
      11A1     0.213023     5B2     0.227373     5B1     0.227373
      12A1     0.261374     6B2     0.304006     6B1     0.304006
      13A1     0.324438     7B2     0.372255     7B1     0.372255
       1A2     0.393247    14A1     0.393251    15A1     0.523804
      16A1     0.524907     2A2     0.524910    17A1     0.543116
       8B2     0.667374     8B1     0.667374    18A1     1.162789

    Final Occupation by Irrep:
             A1    A2    B1    B2
    DOCC [     9,    0,    3,    3 ]
    SOCC [     2,    0,    1,    1 ]
    NA   [    11,    0,    4,    4 ]
    NB   [     9,    0,    3,    3 ]

  @DF-UKS Final Energy:  -986.49031113023489

   => Energetics <=

    Nuclear Repulsion Energy =             81.1189437063239467
    One-Electron Energy =               -1511.6658984632094871
    Two-Electron Energy =                 491.4404008636554977
    DFT Exchange-Correlation Energy =     -47.3837572370048292
    Empirical Dispersion Energy =           0.0000000000000000
    VV10 Nonlocal Energy =                  0.0000000000000000
    Total Energy =                       -986.4903111302348861

  UHF NO Occupations:
  HONO-2 :    4 B1 1.0000000
  HONO-1 :   10 A1 1.0000000
  HONO-0 :   11 A1 1.0000000
  LUNO+0 :   12 A1 0.0005180
  LUNO+1 :    5 B1 0.0002525
  LUNO+2 :    5 B2 0.0002525
  LUNO+3 :   13 A1 0.0000652

Computation Completed

Properties will be evaluated at   0.000000,   0.000000,   0.000000 [a0]

Properties computed using the SCF density matrix

 Multipole Moments:

 ------------------------------------------------------------------------------------
     Multipole            Electronic (a.u.)      Nuclear  (a.u.)        Total (a.u.)
 ------------------------------------------------------------------------------------

 L = 1.  Multiply by 2.5417464519 to convert [e a0] to [Debye]
 Dipole X            :          0.0000000            0.0000000            0.0000000
 Dipole Y            :          0.0000000            0.0000000            0.0000000
 Dipole Z            :         -2.3368957            2.5131647            0.1762690
 Magnitude           :                                                    0.1762690

 ------------------------------------------------------------------------------------

*** tstop() called on Joses-MacBook-Pro-2.local at Thu Jul 17 16:02:02 2025
Module time:
	user time   =       7.70 seconds =       0.13 minutes
	system time =       1.86 seconds =       0.03 minutes
	total time  =          1 seconds =       0.02 minutes
Total time:
	user time   =     209.29 seconds =       3.49 minutes
	system time =      49.67 seconds =       0.83 minutes
	total time  =         25 seconds =       0.42 minutes

*** tstart() called on Joses-MacBook-Pro-2.local
*** at Thu Jul 17 16:02:02 2025

         ------------------------------------------------------------
                                   SCF GRAD
                          Rob Parrish, Justin Turney,
                       Andy Simmonett, and Alex Sokolov
         ------------------------------------------------------------

  ==> Geometry <==

    Molecular point group: c2v
    Full point group: C_inf_v

    Geometry (in Angstrom), charge = 1, multiplicity = 5:

       Center              X                  Y                   Z               Mass
    ------------   -----------------  -----------------  -----------------  -----------------
         CL           0.000000000000     0.000000000000     1.064605624395    34.968852682000
         AR           0.000000000000     0.000000000000    -0.931577006523    39.962383123700

  Nuclear repulsion =   81.118943706323947

  ==> Basis Set <==

  Basis Set: CC-PVDZ
    Blend: CC-PVDZ
    Number of shells: 16
    Number of basis functions: 36
    Number of Cartesian functions: 38
    Spherical Harmonics?: true
    Max angular momentum: 2

  ==> DFJKGrad: Density-Fitted SCF Gradients <==

    Gradient:                    1
    J tasked:                  Yes
    K tasked:                  Yes
    wK tasked:                  No
    OpenMP threads:              1
    Integrals threads:           1
    Memory [MiB]:              375
    Schwarz Cutoff:          1E-12
    Fitting Condition:       1E-10

   => Auxiliary Basis Set <=

  Basis Set: (CC-PVDZ AUX)
    Blend: CC-PVDZ-JKFIT
    Number of shells: 72
    Number of basis functions: 224
    Number of Cartesian functions: 260
    Spherical Harmonics?: true
    Max angular momentum: 3

  ==> DFT Potential <==

   => LibXC <=

    Version 6.2.2
    S. Lehtola, C. Steigemann, M. J.T. Oliveira, and M. A.L. Marques.,  SoftwareX 7, 1â€“5 (2018) (10.1016/j.softx.2017.11.002)

   => Composite Functional: B3LYP <=

    B3LYP Hyb-GGA Exchange-Correlation Functional

    P. J. Stephens, F. J. Devlin, C. F. Chabalowski, and M. J. Frisch.,  J. Phys. Chem. 98, 11623 (1994) (10.1021/j100096a001)

    Deriv               =              1
    GGA                 =           TRUE
    Meta                =          FALSE

    Exchange Hybrid     =           TRUE
    MP2 Hybrid          =          FALSE

   => Exchange Functionals <=

    0.0800   Slater exchange
    0.7200         Becke 88

   => Exact (HF) Exchange <=

    0.2000               HF

   => Correlation Functionals <=

    0.1900   Vosko, Wilk & Nusair (VWN5_RPA)
    0.8100   Lee, Yang & Parr

   => LibXC Density Thresholds  <==

    XC_HYB_GGA_XC_B3LYP:  1.00E-15

   => Molecular Quadrature <=

    Radial Scheme          =       TREUTLER
    Pruning Scheme         =           NONE
    Nuclear Scheme         =       TREUTLER

    Blocking Scheme        =         OCTREE
    BS radius alpha        =              1
    Pruning alpha          =              1
    Radial Points          =             75
    Spherical Points       =            302
    Total Points           =          39644
    Total Blocks           =            354
    Max Points             =            256
    Max Functions          =             36
    Weights Tolerance      =       1.00E-15

  -Total Gradient:
     Atom            X                  Y                   Z
    ------   -----------------  -----------------  -----------------
       1        0.000000000000    -0.000000000000    -0.000085349067
       2        0.000000000000    -0.000000000000     0.000090591018

*** tstop() called on Joses-MacBook-Pro-2.local at Thu Jul 17 16:02:02 2025
Module time:
	user time   =       2.10 seconds =       0.04 minutes
	system time =       1.62 seconds =       0.03 minutes
	total time  =          0 seconds =       0.00 minutes
Total time:
	user time   =     211.39 seconds =       3.52 minutes
	system time =      51.29 seconds =       0.85 minutes
	total time  =         25 seconds =       0.42 minutes

    			-----------------------------------------

    			 OPTKING 3.0: for geometry optimizations

    			     By R.A. King, Bethel University

    			        with contributions from

    			    A.V. Copan, J. Cayton, A. Heide

    			-----------------------------------------

	                            ===> Fragment 1 <==

	 Z (Atomic Numbers)          Masses                          Geom
	      17.000000            34.968853          0.00000000  0.00000000  2.01181306
	      18.000000            39.962383          0.00000000  0.00000000 -1.76042541

	 - Coordinate -           - BOHR/RAD -       - ANG/DEG -
	 R(1,2)           =         3.772238           1.996183

	        --- Internal Coordinate Step in ANG or DEG, aJ/ANG or AJ/DEG ---
	-------------------------------------------------------------------------------
	           Coordinate      Previous         Force          Change          New
	           ----------      --------        ------          ------        ------
	               R(1,2)       1.99618        0.00072        0.00031       1.99649
	-------------------------------------------------------------------------------

	                                 ==> Convergence Check <==

	Measures of convergence in internal coordinates in au.

	Criteria marked as inactive (o), active & met (*), and active & unmet ( ).

	----------------------------------------------------------------------------------------------
	   Step    Total Energy     Delta E     Max Force     RMS Force      Max Disp      RMS Disp
	----------------------------------------------------------------------------------------------
	  Convergence Criteria     1.00e-06 *    3.00e-04 *             o    1.20e-03 *             o
	----------------------------------------------------------------------------------------------
	    17    -986.49031113   -5.06e-07 *    8.80e-05 *    8.80e-05 o    5.85e-04 *    5.85e-04 o  ~
	----------------------------------------------------------------------------------------------

Next Geometry in Ang
	Fragment 1 (Ang)

	   Cl   0.0000000000   0.0000000000   1.0647605080
	   Ar   0.0000000000   0.0000000000  -0.9317318902

    Final optimized geometry and variables:
    Molecular point group: c2v
    Full point group: C_inf_v

    Geometry (in Angstrom), charge = 1, multiplicity = 5:

    CL           0.000000000000     0.000000000000     1.064605624395
    AR           0.000000000000     0.000000000000    -0.931577006523

    Psi4 stopped on: Thursday, 17 July 2025 04:02PM
    Psi4 wall time for execution: 0:00:25.48

*** Psi4 exiting successfully. Buy a developer a beer!
