                               Psi4 1.9.1 release

  ==> Input File <==

--------------------------------------------------------------------------
molecule {
1 5
O   0.00000        0.60000        0.00000
Al   0.00000       -0.60000        0.00000
}

set {
basis              cc-pvdz
reference          uks
maxiter            500
geom_maxiter       500
DAMPING_PERCENTAGE 1
guess              SAP
}

optimize('b3lyp')
--------------------------------------------------------------------------

    Molecular point group: c2v
  Charge       = 1
  Multiplicity = 5
  Basis Set: CC-PVDZ
    Blend: CC-PVDZ
  Basis Set: (CC-PVDZ AUX)
    Blend: CC-PVDZ-JKFIT
  @DF-UKS Final Energy:  -316.50558716632474
    Total Energy =                       -316.5055871663248013
 Dipole X            :          0.0000000            0.0000000            0.0000000
 Dipole Y            :          0.0000000            0.0000000            0.0000000
 Dipole Z            :          0.1962974            0.4178188            0.6141162
 Magnitude           :                                                    0.6141162
    Molecular point group: c2v
  Basis Set: CC-PVDZ
    Blend: CC-PVDZ
  Basis Set: (CC-PVDZ AUX)
    Blend: CC-PVDZ-JKFIT
  Basis Set: CC-PVDZ
    Blend: CC-PVDZ
  Basis Set: (CC-PVDZ AUX)
    Blend: CC-PVDZ-JKFIT
  @DF-UKS Final Energy:  -316.75381891289516
    Total Energy =                       -316.7538189128952126
  Basis Set: CC-PVDZ
    Blend: CC-PVDZ
  Basis Set: (CC-PVDZ AUX)
    Blend: CC-PVDZ-JKFIT
  Basis Set: CC-PVDZ
    Blend: CC-PVDZ
  @DF-UKS Final Energy:  -316.88900928151168
    Total Energy =                       -316.8890092815116759
  @DF-UKS Final Energy:  -316.96676708371422
    Total Energy =                       -316.9667670837142168
  @DF-UKS Final Energy:  -317.00999050705320
    Total Energy =                       -317.0099905070532031
  @DF-UKS Final Energy:  -317.03365052390109
    Total Energy =                       -317.0336505239010307
  @DF-UKS Final Energy:  -317.04641441903539
    Total Energy =                       -317.0464144190353863
  @DF-UKS Final Energy:  -317.05301614563933
    Total Energy =                       -317.0530161456393330
  @DF-UKS Final Energy:  -317.05621122522001
    Total Energy =                       -317.0562112252200109
  @DF-UKS Final Energy:  -317.05763197658803
    Total Energy =                       -317.0576319765880839
  @DF-UKS Final Energy:  -317.05820141010588
    Total Energy =                       -317.0582014101059372
  @DF-UKS Final Energy:  -317.05839032909574
    Total Energy =                       -317.0583903290956869
  @DF-UKS Final Energy:  -317.05842853051871
    Total Energy =                       -317.0584285305187109
  @DF-UKS Final Energy:  -317.05843939920931
    Total Energy =                       -317.0584393992092487
  Basis Set: (CC-PVDZ AUX)
    Blend: CC-PVDZ-JKFIT
  Basis Set: CC-PVDZ
    Blend: CC-PVDZ
  Basis Set: (CC-PVDZ AUX)
    Blend: CC-PVDZ-JKFIT
  @DF-UKS Final Energy:  -317.05844072296924
    Total Energy =                       -317.0584407229692374
  Basis Set: CC-PVDZ
    Blend: CC-PVDZ
  Basis Set: (CC-PVDZ AUX)
    Blend: CC-PVDZ-JKFIT
  Charge       = 1
  Multiplicity = 5
  Basis Set: CC-PVDZ
    Blend: CC-PVDZ
  Basis Set: (CC-PVDZ AUX)
    Blend: CC-PVDZ-JKFIT

    Orbital Energies [Eh]
    ---------------------

    Alpha Occupied:

       1A1   -56.445819     2A1   -19.481758     3A1    -4.516865
       4A1    -3.070964     1B1    -3.070961     1B2    -3.066263
       5A1    -1.209278     6A1    -0.663786     2B1    -0.644636
       7A1    -0.614183     2B2    -0.567942     3B2    -0.406450

    Alpha Virtual:

       3B1    -0.340407     8A1    -0.330696     9A1    -0.055247
       4B2    -0.018411    10A1    -0.017912     1A2    -0.017866
       5B2    -0.013001    11A1    -0.009233     4B1    -0.006644
       5B1    -0.004301    12A1     0.026397     6B1     0.643601
       6B2     0.691303    13A1     0.695295    14A1     1.047946
       7B1     2.237461    15A1     2.242104     7B2     2.295999
       2A2     2.297853    16A1     2.319321

    Beta Occupied:

       1A1   -56.437639     2A1   -19.431803     3A1    -4.504453
       1B1    -3.063386     4A1    -3.063285     1B2    -3.048928
       5A1    -1.052191     2B2    -0.515398

    Beta Virtual:

       6A1    -0.487864     7A1    -0.381342     2B1    -0.364581
       3B1    -0.279592     8A1    -0.257560     3B2    -0.252078
       9A1    -0.025042    10A1     0.015010     4B1     0.016213
       4B2     0.030641     5B1     0.045492    11A1     0.060731
       5B2     0.069818     1A2     0.071073    12A1     0.086653
       6B2     0.721236     6B1     0.754792    13A1     0.803169
      14A1     1.126628     7B2     2.385801     2A2     2.389463
      15A1     2.396807     7B1     2.409755    16A1     2.414386

    Final Occupation by Irrep:
             A1    A2    B1    B2
    DOCC [     5,    0,    1,    2 ]
    SOCC [     2,    0,    1,    1 ]
    NA   [     7,    0,    2,    3 ]
    NB   [     5,    0,    1,    2 ]

  @DF-UKS Final Energy:  -317.05844087335015

   => Energetics <=

    Nuclear Repulsion Energy =             18.6211530381376029
    One-Electron Energy =                -471.0098466933793020
    Two-Electron Energy =                 156.9706798838769828
    DFT Exchange-Correlation Energy =     -21.6404271019854626
    Empirical Dispersion Energy =           0.0000000000000000
    VV10 Nonlocal Energy =                  0.0000000000000000
    Total Energy =                       -317.0584408733501505

  UHF NO Occupations:
  HONO-2 :    3 B2 1.0000000
  HONO-1 :    7 A1 1.0000000
  HONO-0 :    2 B1 1.0000000
  LUNO+0 :    8 A1 0.0007884
  LUNO+1 :    4 B2 0.0003156
  LUNO+2 :    3 B1 0.0000011
  LUNO+3 :    9 A1 0.0000011

Computation Completed

Properties will be evaluated at   0.000000,   0.000000,   0.000000 [a0]

Properties computed using the SCF density matrix

 Multipole Moments:

 ------------------------------------------------------------------------------------
     Multipole            Electronic (a.u.)      Nuclear  (a.u.)        Total (a.u.)
 ------------------------------------------------------------------------------------

 L = 1.  Multiply by 2.5417464519 to convert [e a0] to [Debye]
 Dipole X            :          0.0000000            0.0000000            0.0000000
 Dipole Y            :          0.0000000            0.0000000            0.0000000
 Dipole Z            :         -2.8281634            1.0290456           -1.7991177
 Magnitude           :                                                    1.7991177

 ------------------------------------------------------------------------------------

*** tstop() called on Joses-MacBook-Pro-2.local at Thu Jul 17 14:08:53 2025
Module time:
	user time   =       1.45 seconds =       0.02 minutes
	system time =       4.20 seconds =       0.07 minutes
	total time  =          0 seconds =       0.00 minutes
Total time:
	user time   =      47.72 seconds =       0.80 minutes
	system time =     115.04 seconds =       1.92 minutes
	total time  =         17 seconds =       0.28 minutes

*** tstart() called on Joses-MacBook-Pro-2.local
*** at Thu Jul 17 14:08:53 2025

         ------------------------------------------------------------
                                   SCF GRAD
                          Rob Parrish, Justin Turney,
                       Andy Simmonett, and Alex Sokolov
         ------------------------------------------------------------

  ==> Geometry <==

    Molecular point group: c2v
    Full point group: C_inf_v

    Geometry (in Angstrom), charge = 1, multiplicity = 5:

       Center              X                  Y                   Z               Mass
    ------------   -----------------  -----------------  -----------------  -----------------
         O            0.000000000000     0.000000000000     1.855513176003    15.994914619570
         AL           0.000000000000     0.000000000000    -1.099965993142    26.981538530000

  Nuclear repulsion =   18.621153038137603

  ==> Basis Set <==

  Basis Set: CC-PVDZ
    Blend: CC-PVDZ
    Number of shells: 14
    Number of basis functions: 32
    Number of Cartesian functions: 34
    Spherical Harmonics?: true
    Max angular momentum: 2

  ==> DFJKGrad: Density-Fitted SCF Gradients <==

    Gradient:                    1
    J tasked:                  Yes
    K tasked:                  Yes
    wK tasked:                  No
    OpenMP threads:              1
    Integrals threads:           1
    Memory [MiB]:              375
    Schwarz Cutoff:          1E-12
    Fitting Condition:       1E-10

   => Auxiliary Basis Set <=

  Basis Set: (CC-PVDZ AUX)
    Blend: CC-PVDZ-JKFIT
    Number of shells: 60
    Number of basis functions: 182
    Number of Cartesian functions: 211
    Spherical Harmonics?: true
    Max angular momentum: 3

  ==> DFT Potential <==

   => LibXC <=

    Version 6.2.2
    S. Lehtola, C. Steigemann, M. J.T. Oliveira, and M. A.L. Marques.,  SoftwareX 7, 1â€“5 (2018) (10.1016/j.softx.2017.11.002)

   => Composite Functional: B3LYP <=

    B3LYP Hyb-GGA Exchange-Correlation Functional

    P. J. Stephens, F. J. Devlin, C. F. Chabalowski, and M. J. Frisch.,  J. Phys. Chem. 98, 11623 (1994) (10.1021/j100096a001)

    Deriv               =              1
    GGA                 =           TRUE
    Meta                =          FALSE

    Exchange Hybrid     =           TRUE
    MP2 Hybrid          =          FALSE

   => Exchange Functionals <=

    0.0800   Slater exchange
    0.7200         Becke 88

   => Exact (HF) Exchange <=

    0.2000               HF

   => Correlation Functionals <=

    0.1900   Vosko, Wilk & Nusair (VWN5_RPA)
    0.8100   Lee, Yang & Parr

   => LibXC Density Thresholds  <==

    XC_HYB_GGA_XC_B3LYP:  1.00E-15

   => Molecular Quadrature <=

    Radial Scheme          =       TREUTLER
    Pruning Scheme         =           NONE
    Nuclear Scheme         =       TREUTLER

    Blocking Scheme        =         OCTREE
    BS radius alpha        =              1
    Pruning alpha          =              1
    Radial Points          =             75
    Spherical Points       =            302
    Total Points           =          43531
    Total Blocks           =            406
    Max Points             =            256
    Max Functions          =             32
    Weights Tolerance      =       1.00E-15

  -Total Gradient:
     Atom            X                  Y                   Z
    ------   -----------------  -----------------  -----------------
       1        0.000000000000     0.000000000000    -0.000005009632
       2        0.000000000000     0.000000000000     0.000021627314

*** tstop() called on Joses-MacBook-Pro-2.local at Thu Jul 17 14:08:53 2025
Module time:
	user time   =       0.61 seconds =       0.01 minutes
	system time =       1.91 seconds =       0.03 minutes
	total time  =          0 seconds =       0.00 minutes
Total time:
	user time   =      48.34 seconds =       0.81 minutes
	system time =     116.95 seconds =       1.95 minutes
	total time  =         17 seconds =       0.28 minutes

    			-----------------------------------------

    			 OPTKING 3.0: for geometry optimizations

    			     By R.A. King, Bethel University

    			        with contributions from

    			    A.V. Copan, J. Cayton, A. Heide

    			-----------------------------------------

	                            ===> Fragment 1 <==

	 Z (Atomic Numbers)          Masses                          Geom
	       8.000000            15.994915          0.00000000  0.00000000  3.50641172
	      13.000000            26.981539          0.00000000  0.00000000 -2.07863447

	 - Coordinate -           - BOHR/RAD -       - ANG/DEG -
	 R(1,2)           =         5.585046           2.955479

	        --- Internal Coordinate Step in ANG or DEG, aJ/ANG or AJ/DEG ---
	-------------------------------------------------------------------------------
	           Coordinate      Previous         Force          Change          New
	           ----------      --------        ------          ------        ------
	               R(1,2)       2.95548        0.00011        0.00221       2.95769
	-------------------------------------------------------------------------------

	                                 ==> Convergence Check <==

	Measures of convergence in internal coordinates in au.

	Criteria marked as inactive (o), active & met (*), and active & unmet ( ).

	----------------------------------------------------------------------------------------------
	   Step    Total Energy     Delta E     Max Force     RMS Force      Max Disp      RMS Disp
	----------------------------------------------------------------------------------------------
	  Convergence Criteria     1.00e-06 *    3.00e-04 *             o    1.20e-03 *             o
	----------------------------------------------------------------------------------------------
	    16    -317.05844087   -1.50e-07 *    1.33e-05 *    1.33e-05 o    4.17e-03      4.17e-03 o  ~
	----------------------------------------------------------------------------------------------

Next Geometry in Ang
	Fragment 1 (Ang)

	    O   0.0000000000   0.0000000000   1.8566168440
	   Al   0.0000000000   0.0000000000  -1.1010696611

    Final optimized geometry and variables:
    Molecular point group: c2v
    Full point group: C_inf_v

    Geometry (in Angstrom), charge = 1, multiplicity = 5:

    O            0.000000000000     0.000000000000     1.855513176003
    AL           0.000000000000     0.000000000000    -1.099965993142

    Psi4 stopped on: Thursday, 17 July 2025 02:08PM
    Psi4 wall time for execution: 0:00:17.72

*** Psi4 exiting successfully. Buy a developer a beer!
