                               Psi4 1.9.1 release

  ==> Input File <==

--------------------------------------------------------------------------
molecule {
1 5
Li   0.00000        0.60000        0.00000
O   0.00000       -0.60000        0.00000
}

set {
basis              cc-pvdz
reference          uks
maxiter            500
geom_maxiter       500
DAMPING_PERCENTAGE 1
guess              SAP
}

optimize('b3lyp')
--------------------------------------------------------------------------

    Molecular point group: c2v
  Charge       = 1
  Multiplicity = 5
  Basis Set: CC-PVDZ
    Blend: CC-PVDZ
  Basis Set: (CC-PVDZ AUX)
    Blend: CC-PVDZ-JKFIT + DEF2-UNIVERSAL-JKFIT
  @DF-UKS Final Energy:   -81.71403017437521
    Total Energy =                        -81.7140301743751962
 Dipole X            :          0.0000000            0.0000000            0.0000000
 Dipole Y            :          0.0000000            0.0000000            0.0000000
 Dipole Z            :          0.0017057           -0.8025013           -0.8007956
 Magnitude           :                                                    0.8007956
    Molecular point group: c2v
  Basis Set: CC-PVDZ
    Blend: CC-PVDZ
  Basis Set: (CC-PVDZ AUX)
    Blend: CC-PVDZ-JKFIT + DEF2-UNIVERSAL-JKFIT
  Basis Set: CC-PVDZ
    Blend: CC-PVDZ
  Basis Set: (CC-PVDZ AUX)
    Blend: CC-PVDZ-JKFIT + DEF2-UNIVERSAL-JKFIT
  @DF-UKS Final Energy:   -81.85361248284843
    Total Energy =                        -81.8536124828484333
  Basis Set: CC-PVDZ
    Blend: CC-PVDZ
  Basis Set: (CC-PVDZ AUX)
    Blend: CC-PVDZ-JKFIT + DEF2-UNIVERSAL-JKFIT
  Basis Set: CC-PVDZ
    Blend: CC-PVDZ
  @DF-UKS Final Energy:   -81.91157752945219
    Total Energy =                        -81.9115775294521882
  @DF-UKS Final Energy:   -81.95961999406126
    Total Energy =                        -81.9596199940612564
  @DF-UKS Final Energy:   -82.00144858168383
    Total Energy =                        -82.0014485816838175
  @DF-UKS Final Energy:   -82.01543547867705
    Total Energy =                        -82.0154354786770483
  @DF-UKS Final Energy:   -82.04540661510569
    Total Energy =                        -82.0454066151056907
  @DF-UKS Final Energy:   -82.05014831578499
    Total Energy =                        -82.0501483157850089
  @DF-UKS Final Energy:   -82.06129248867910
    Total Energy =                        -82.0612924886790864
  @DF-UKS Final Energy:   -82.06231678357106
    Total Energy =                        -82.0623167835710632
  @DF-UKS Final Energy:   -82.06592660518965
    Total Energy =                        -82.0659266051896452
  @DF-UKS Final Energy:   -82.06674869757960
    Total Energy =                        -82.0667486975795981
  @DF-UKS Final Energy:   -82.06689492156774
    Total Energy =                        -82.0668949215677372
  Basis Set: (CC-PVDZ AUX)
    Blend: CC-PVDZ-JKFIT + DEF2-UNIVERSAL-JKFIT
  Basis Set: CC-PVDZ
    Blend: CC-PVDZ
  Basis Set: (CC-PVDZ AUX)
    Blend: CC-PVDZ-JKFIT + DEF2-UNIVERSAL-JKFIT
  @DF-UKS Final Energy:   -82.06690308906946
    Total Energy =                        -82.0669030890694557
  Basis Set: CC-PVDZ
    Blend: CC-PVDZ
  Basis Set: (CC-PVDZ AUX)
    Blend: CC-PVDZ-JKFIT + DEF2-UNIVERSAL-JKFIT
  Charge       = 1
  Multiplicity = 5
  Basis Set: CC-PVDZ
    Blend: CC-PVDZ
  Basis Set: (CC-PVDZ AUX)
    Blend: CC-PVDZ-JKFIT + DEF2-UNIVERSAL-JKFIT

    Orbital Energies [Eh]
    ---------------------

    Alpha Occupied:

       1A1   -19.943848     2A1    -2.187458     3A1    -1.592075
       1B2    -0.999837     1B1    -0.999837     4A1    -0.999282
       5A1    -0.291801

    Alpha Virtual:

       6A1    -0.161737     2B2    -0.157909     2B1    -0.157909
       7A1    -0.090833     3B2    -0.043157     3B1    -0.043157
       8A1    -0.016029     9A1     0.068361     4B1     0.076301
       4B2     0.076301    10A1     0.093042     1A2     0.093042
       5B2     0.398111     5B1     0.398111    11A1     0.440644
      12A1     0.724733     2A2     1.908766    13A1     1.908908
       6B2     1.910610     6B1     1.910610    14A1     1.914592

    Beta Occupied:

       1A1   -19.858959     2A1    -2.181503     3A1    -1.339743

    Beta Virtual:

       1B2    -0.661615     1B1    -0.661615     4A1    -0.660764
       5A1    -0.200955     6A1    -0.144987     2B1    -0.126402
       2B2    -0.126402     7A1    -0.056393     3B1    -0.033223
       3B2    -0.033223     8A1    -0.011686     9A1     0.105612
       4B1     0.114312     4B2     0.114312     1A2     0.125036
      10A1     0.125051     5B2     0.505589     5B1     0.505589
      11A1     0.548462    12A1     0.834985     2A2     2.097067
      13A1     2.097216     6B2     2.098956     6B1     2.098956
      14A1     2.102846

    Final Occupation by Irrep:
             A1    A2    B1    B2
    DOCC [     3,    0,    0,    0 ]
    SOCC [     2,    0,    1,    1 ]
    NA   [     5,    0,    1,    1 ]
    NB   [     3,    0,    0,    0 ]

  @DF-UKS Final Energy:   -82.06690357707453

   => Energetics <=

    Nuclear Repulsion Energy =              3.5858576167916554
    One-Electron Energy =                -115.1485207907198713
    Two-Electron Energy =                  37.5085523666175007
    DFT Exchange-Correlation Energy =      -8.0127927697638270
    Empirical Dispersion Energy =           0.0000000000000000
    VV10 Nonlocal Energy =                  0.0000000000000000
    Total Energy =                        -82.0669035770745268

  UHF NO Occupations:
  HONO-2 :    4 A1 1.0000000
  HONO-1 :    5 A1 1.0000000
  HONO-0 :    1 B1 1.0000000
  LUNO+0 :    6 A1 0.0009797
  LUNO+1 :    7 A1 0.0000007
  LUNO+2 :    8 A1 0.0000000
  LUNO+3 :    2 B1 0.0000000

Computation Completed

Properties will be evaluated at   0.000000,   0.000000,   0.000000 [a0]

Properties computed using the SCF density matrix

 Multipole Moments:

 ------------------------------------------------------------------------------------
     Multipole            Electronic (a.u.)      Nuclear  (a.u.)        Total (a.u.)
 ------------------------------------------------------------------------------------

 L = 1.  Multiply by 2.5417464519 to convert [e a0] to [Debye]
 Dipole X            :          0.0000000            0.0000000            0.0000000
 Dipole Y            :          0.0000000            0.0000000            0.0000000
 Dipole Z            :          2.3581676           -2.3685569           -0.0103893
 Magnitude           :                                                    0.0103893

 ------------------------------------------------------------------------------------

*** tstop() called on Joses-MacBook-Pro-2.local at Thu Jul 17 12:49:54 2025
Module time:
	user time   =       2.58 seconds =       0.04 minutes
	system time =       2.77 seconds =       0.05 minutes
	total time  =          0 seconds =       0.00 minutes
Total time:
	user time   =      50.43 seconds =       0.84 minutes
	system time =      69.51 seconds =       1.16 minutes
	total time  =         11 seconds =       0.18 minutes

*** tstart() called on Joses-MacBook-Pro-2.local
*** at Thu Jul 17 12:49:54 2025

         ------------------------------------------------------------
                                   SCF GRAD
                          Rob Parrish, Justin Turney,
                       Andy Simmonett, and Alex Sokolov
         ------------------------------------------------------------

  ==> Geometry <==

    Molecular point group: c2v
    Full point group: C_inf_v

    Geometry (in Angstrom), charge = 1, multiplicity = 5:

       Center              X                  Y                   Z               Mass
    ------------   -----------------  -----------------  -----------------  -----------------
         LI           0.000000000000     0.000000000000     2.461882457417     7.016003436600
         O            0.000000000000     0.000000000000    -1.079879211147    15.994914619570

  Nuclear repulsion =    3.585857616791655

  ==> Basis Set <==

  Basis Set: CC-PVDZ
    Blend: CC-PVDZ
    Number of shells: 12
    Number of basis functions: 28
    Number of Cartesian functions: 30
    Spherical Harmonics?: true
    Max angular momentum: 2

  ==> DFJKGrad: Density-Fitted SCF Gradients <==

    Gradient:                    1
    J tasked:                  Yes
    K tasked:                  Yes
    wK tasked:                  No
    OpenMP threads:              1
    Integrals threads:           1
    Memory [MiB]:              375
    Schwarz Cutoff:          1E-12
    Fitting Condition:       1E-10

   => Auxiliary Basis Set <=

  Basis Set: (CC-PVDZ AUX)
    Blend: CC-PVDZ-JKFIT + DEF2-UNIVERSAL-JKFIT
    Number of shells: 41
    Number of basis functions: 121
    Number of Cartesian functions: 141
    Spherical Harmonics?: true
    Max angular momentum: 3

  ==> DFT Potential <==

   => LibXC <=

    Version 6.2.2
    S. Lehtola, C. Steigemann, M. J.T. Oliveira, and M. A.L. Marques.,  SoftwareX 7, 1â€“5 (2018) (10.1016/j.softx.2017.11.002)

   => Composite Functional: B3LYP <=

    B3LYP Hyb-GGA Exchange-Correlation Functional

    P. J. Stephens, F. J. Devlin, C. F. Chabalowski, and M. J. Frisch.,  J. Phys. Chem. 98, 11623 (1994) (10.1021/j100096a001)

    Deriv               =              1
    GGA                 =           TRUE
    Meta                =          FALSE

    Exchange Hybrid     =           TRUE
    MP2 Hybrid          =          FALSE

   => Exchange Functionals <=

    0.0800   Slater exchange
    0.7200         Becke 88

   => Exact (HF) Exchange <=

    0.2000               HF

   => Correlation Functionals <=

    0.1900   Vosko, Wilk & Nusair (VWN5_RPA)
    0.8100   Lee, Yang & Parr

   => LibXC Density Thresholds  <==

    XC_HYB_GGA_XC_B3LYP:  1.00E-15

   => Molecular Quadrature <=

    Radial Scheme          =       TREUTLER
    Pruning Scheme         =           NONE
    Nuclear Scheme         =       TREUTLER

    Blocking Scheme        =         OCTREE
    BS radius alpha        =              1
    Pruning alpha          =              1
    Radial Points          =             75
    Spherical Points       =            302
    Total Points           =          44389
    Total Blocks           =            427
    Max Points             =            256
    Max Functions          =             28
    Weights Tolerance      =       1.00E-15

  -Total Gradient:
     Atom            X                  Y                   Z
    ------   -----------------  -----------------  -----------------
       1       -0.000000000000     0.000000000000    -0.000019616745
       2        0.000000000000     0.000000000000     0.000017559549

*** tstop() called on Joses-MacBook-Pro-2.local at Thu Jul 17 12:49:54 2025
Module time:
	user time   =       0.58 seconds =       0.01 minutes
	system time =       1.26 seconds =       0.02 minutes
	total time  =          0 seconds =       0.00 minutes
Total time:
	user time   =      51.01 seconds =       0.85 minutes
	system time =      70.77 seconds =       1.18 minutes
	total time  =         11 seconds =       0.18 minutes

    			-----------------------------------------

    			 OPTKING 3.0: for geometry optimizations

    			     By R.A. King, Bethel University

    			        with contributions from

    			    A.V. Copan, J. Cayton, A. Heide

    			-----------------------------------------

	                            ===> Fragment 1 <==

	 Z (Atomic Numbers)          Masses                          Geom
	       3.000000             7.016003          0.00000000  0.00000000  4.65228360
	       8.000000            15.994915          0.00000000  0.00000000 -2.04067596

	 - Coordinate -           - BOHR/RAD -       - ANG/DEG -
	 R(1,2)           =         6.692960           3.541762

	        --- Internal Coordinate Step in ANG or DEG, aJ/ANG or AJ/DEG ---
	-------------------------------------------------------------------------------
	           Coordinate      Previous         Force          Change          New
	           ----------      --------        ------          ------        ------
	               R(1,2)       3.54176        0.00015        0.00111       3.54287
	-------------------------------------------------------------------------------

	                                 ==> Convergence Check <==

	Measures of convergence in internal coordinates in au.

	Criteria marked as inactive (o), active & met (*), and active & unmet ( ).

	----------------------------------------------------------------------------------------------
	   Step    Total Energy     Delta E     Max Force     RMS Force      Max Disp      RMS Disp
	----------------------------------------------------------------------------------------------
	  Convergence Criteria     1.00e-06 *    3.00e-04 *             o    1.20e-03 *             o
	----------------------------------------------------------------------------------------------
	    15     -82.06690358   -4.88e-07 *    1.86e-05 *    1.86e-05 o    2.09e-03      2.09e-03 o  ~
	----------------------------------------------------------------------------------------------

Next Geometry in Ang
	Fragment 1 (Ang)

	   Li   0.0000000000   0.0000000000   2.4624350597
	    O   0.0000000000   0.0000000000  -1.0804318134

    Final optimized geometry and variables:
    Molecular point group: c2v
    Full point group: C_inf_v

    Geometry (in Angstrom), charge = 1, multiplicity = 5:

    LI           0.000000000000     0.000000000000     2.461882457417
    O            0.000000000000     0.000000000000    -1.079879211147

    Psi4 stopped on: Thursday, 17 July 2025 12:49PM
    Psi4 wall time for execution: 0:00:12.06

*** Psi4 exiting successfully. Buy a developer a beer!
