                               Psi4 1.9.1 release

  ==> Input File <==

--------------------------------------------------------------------------
molecule {
1 5
Ne   0.00000        0.60000        0.00000
Na   0.00000       -0.60000        0.00000
}

set {
basis              cc-pvdz
reference          uks
maxiter            500
geom_maxiter       500
DAMPING_PERCENTAGE 1
guess              SAP
}

optimize('b3lyp')
--------------------------------------------------------------------------

    Molecular point group: c2v
  Charge       = 1
  Multiplicity = 5
  Basis Set: CC-PVDZ
    Blend: CC-PVDZ
  Basis Set: (CC-PVDZ AUX)
    Blend: CC-PVDZ-JKFIT + DEF2-UNIVERSAL-JKFIT
  @DF-UKS Final Energy:  -288.86551651405989
    Total Energy =                       -288.8655165140598911
 Dipole X            :          0.0000000            0.0000000            0.0000000
 Dipole Y            :          0.0000000            0.0000000            0.0000000
 Dipole Z            :         -0.5176106            0.5265734            0.0089628
 Magnitude           :                                                    0.0089628
    Molecular point group: c2v
  Basis Set: CC-PVDZ
    Blend: CC-PVDZ
  Basis Set: (CC-PVDZ AUX)
    Blend: CC-PVDZ-JKFIT + DEF2-UNIVERSAL-JKFIT
  Basis Set: CC-PVDZ
    Blend: CC-PVDZ
  Basis Set: (CC-PVDZ AUX)
    Blend: CC-PVDZ-JKFIT + DEF2-UNIVERSAL-JKFIT
  @DF-UKS Final Energy:  -289.02717427663987
    Total Energy =                       -289.0271742766398688
  Basis Set: CC-PVDZ
    Blend: CC-PVDZ
  Basis Set: (CC-PVDZ AUX)
    Blend: CC-PVDZ-JKFIT + DEF2-UNIVERSAL-JKFIT
  Basis Set: CC-PVDZ
    Blend: CC-PVDZ
  @DF-UKS Final Energy:  -289.13912094949211
    Total Energy =                       -289.1391209494921100
  @DF-UKS Final Energy:  -289.20128949376539
    Total Energy =                       -289.2012894937653869
  @DF-UKS Final Energy:  -289.24625195307289
    Total Energy =                       -289.2462519530729423
  @DF-UKS Final Energy:  -289.28899666246161
    Total Energy =                       -289.2889966624616136
  @DF-UKS Final Energy:  -289.31393279319622
    Total Energy =                       -289.3139327931962157
  @DF-UKS Final Energy:  -289.32455392927540
    Total Energy =                       -289.3245539292753961
  @DF-UKS Final Energy:  -289.32674344483542
    Total Energy =                       -289.3267434448354152
  @DF-UKS Final Energy:  -289.32689700318605
    Total Energy =                       -289.3268970031860476
  Basis Set: (CC-PVDZ AUX)
    Blend: CC-PVDZ-JKFIT + DEF2-UNIVERSAL-JKFIT
  Basis Set: CC-PVDZ
    Blend: CC-PVDZ
  Basis Set: (CC-PVDZ AUX)
    Blend: CC-PVDZ-JKFIT + DEF2-UNIVERSAL-JKFIT
  @DF-UKS Final Energy:  -289.32689932140266
    Total Energy =                       -289.3268993214026068
  Basis Set: CC-PVDZ
    Blend: CC-PVDZ
  Basis Set: (CC-PVDZ AUX)
    Blend: CC-PVDZ-JKFIT + DEF2-UNIVERSAL-JKFIT
  Charge       = 1
  Multiplicity = 5
  Basis Set: CC-PVDZ
    Blend: CC-PVDZ
  Basis Set: (CC-PVDZ AUX)
    Blend: CC-PVDZ-JKFIT + DEF2-UNIVERSAL-JKFIT

    Orbital Energies [Eh]
    ---------------------

    Alpha Occupied:

       1A1   -38.914237     2A1   -32.385553     3A1    -2.629404
       4A1    -2.572139     1B2    -1.778281     5A1    -1.757526
       1B1    -1.662404     6A1    -1.524968     2B1    -1.494337
       2B2    -1.491837     7A1    -0.402059     3B2    -0.244168

    Alpha Virtual:

       3B1    -0.188738     8A1    -0.187494     9A1    -0.139435
       4B2    -0.068863     4B1    -0.061036    10A1    -0.047826
      11A1    -0.016921     5B2    -0.016362     5B1    -0.012492
       1A2    -0.004197    12A1     0.009595     6B2     0.543327
      13A1     0.560134     6B1     0.592987    14A1     1.250374
      15A1     3.482935     7B2     3.485204     2A2     3.550334
       7B1     3.567954    16A1     3.585690

    Beta Occupied:

       1A1   -38.903929     2A1   -32.306127     3A1    -2.545931
       4A1    -2.424839     1B1    -1.585801     2B1    -1.483890
       1B2    -1.478894     5A1    -1.453963

    Beta Virtual:

       6A1    -1.397933     2B2    -1.353333     7A1    -0.288054
       8A1    -0.179143     3B1    -0.153063     3B2    -0.137676
       9A1    -0.111564     4B1    -0.045619    10A1    -0.040810
       4B2    -0.038528     5B1    -0.010088     5B2     0.002030
      11A1     0.008635     1A2     0.035901    12A1     0.040020
       6B1     0.623865    13A1     0.653600     6B2     0.658935
      14A1     1.344111     7B1     3.679154     2A2     3.683138
      15A1     3.685244     7B2     3.710180    16A1     3.712805

    Final Occupation by Irrep:
             A1    A2    B1    B2
    DOCC [     5,    0,    2,    1 ]
    SOCC [     2,    0,    0,    2 ]
    NA   [     7,    0,    2,    3 ]
    NB   [     5,    0,    2,    1 ]

  @DF-UKS Final Energy:  -289.32689930207442

   => Energetics <=

    Nuclear Repulsion Energy =             22.9236240680470260
    One-Electron Energy =                -440.4936661414447485
    Two-Electron Energy =                 149.1507503969744164
    DFT Exchange-Correlation Energy =     -20.9076076256511634
    Empirical Dispersion Energy =           0.0000000000000000
    VV10 Nonlocal Energy =                  0.0000000000000000
    Total Energy =                       -289.3268993020744801

  UHF NO Occupations:
  HONO-2 :    3 B2 1.0000000
  HONO-1 :    6 A1 1.0000000
  HONO-0 :    7 A1 1.0000000
  LUNO+0 :    8 A1 0.0003990
  LUNO+1 :    9 A1 0.0003375
  LUNO+2 :    3 B1 0.0001196
  LUNO+3 :    4 B2 0.0000010

Computation Completed

Properties will be evaluated at   0.000000,   0.000000,   0.000000 [a0]

Properties computed using the SCF density matrix

 Multipole Moments:

 ------------------------------------------------------------------------------------
     Multipole            Electronic (a.u.)      Nuclear  (a.u.)        Total (a.u.)
 ------------------------------------------------------------------------------------

 L = 1.  Multiply by 2.5417464519 to convert [e a0] to [Debye]
 Dipole X            :          0.0000000            0.0000000            0.0000000
 Dipole Y            :          0.0000000            0.0000000            0.0000000
 Dipole Z            :          1.1374793            1.1142644            2.2517436
 Magnitude           :                                                    2.2517436

 ------------------------------------------------------------------------------------

*** tstop() called on Joses-MacBook-Pro-2.local at Thu Jul 17 14:38:06 2025
Module time:
	user time   =       2.95 seconds =       0.05 minutes
	system time =       2.64 seconds =       0.04 minutes
	total time  =          1 seconds =       0.02 minutes
Total time:
	user time   =      46.33 seconds =       0.77 minutes
	system time =      80.31 seconds =       1.34 minutes
	total time  =         13 seconds =       0.22 minutes

*** tstart() called on Joses-MacBook-Pro-2.local
*** at Thu Jul 17 14:38:06 2025

         ------------------------------------------------------------
                                   SCF GRAD
                          Rob Parrish, Justin Turney,
                       Andy Simmonett, and Alex Sokolov
         ------------------------------------------------------------

  ==> Geometry <==

    Molecular point group: c2v
    Full point group: C_inf_v

    Geometry (in Angstrom), charge = 1, multiplicity = 5:

       Center              X                  Y                   Z               Mass
    ------------   -----------------  -----------------  -----------------  -----------------
         NE           0.000000000000     0.000000000000     1.358177141389    19.992440176200
         NA           0.000000000000     0.000000000000    -1.181102555438    22.989769282000

  Nuclear repulsion =   22.923624068047026

  ==> Basis Set <==

  Basis Set: CC-PVDZ
    Blend: CC-PVDZ
    Number of shells: 14
    Number of basis functions: 32
    Number of Cartesian functions: 34
    Spherical Harmonics?: true
    Max angular momentum: 2

  ==> DFJKGrad: Density-Fitted SCF Gradients <==

    Gradient:                    1
    J tasked:                  Yes
    K tasked:                  Yes
    wK tasked:                  No
    OpenMP threads:              1
    Integrals threads:           1
    Memory [MiB]:              375
    Schwarz Cutoff:          1E-12
    Fitting Condition:       1E-10

   => Auxiliary Basis Set <=

  Basis Set: (CC-PVDZ AUX)
    Blend: CC-PVDZ-JKFIT + DEF2-UNIVERSAL-JKFIT
    Number of shells: 58
    Number of basis functions: 182
    Number of Cartesian functions: 218
    Spherical Harmonics?: true
    Max angular momentum: 4

  ==> DFT Potential <==

   => LibXC <=

    Version 6.2.2
    S. Lehtola, C. Steigemann, M. J.T. Oliveira, and M. A.L. Marques.,  SoftwareX 7, 1â€“5 (2018) (10.1016/j.softx.2017.11.002)

   => Composite Functional: B3LYP <=

    B3LYP Hyb-GGA Exchange-Correlation Functional

    P. J. Stephens, F. J. Devlin, C. F. Chabalowski, and M. J. Frisch.,  J. Phys. Chem. 98, 11623 (1994) (10.1021/j100096a001)

    Deriv               =              1
    GGA                 =           TRUE
    Meta                =          FALSE

    Exchange Hybrid     =           TRUE
    MP2 Hybrid          =          FALSE

   => Exchange Functionals <=

    0.0800   Slater exchange
    0.7200         Becke 88

   => Exact (HF) Exchange <=

    0.2000               HF

   => Correlation Functionals <=

    0.1900   Vosko, Wilk & Nusair (VWN5_RPA)
    0.8100   Lee, Yang & Parr

   => LibXC Density Thresholds  <==

    XC_HYB_GGA_XC_B3LYP:  1.00E-15

   => Molecular Quadrature <=

    Radial Scheme          =       TREUTLER
    Pruning Scheme         =           NONE
    Nuclear Scheme         =       TREUTLER

    Blocking Scheme        =         OCTREE
    BS radius alpha        =              1
    Pruning alpha          =              1
    Radial Points          =             75
    Spherical Points       =            302
    Total Points           =          43818
    Total Blocks           =            417
    Max Points             =            253
    Max Functions          =             32
    Weights Tolerance      =       1.00E-15

  -Total Gradient:
     Atom            X                  Y                   Z
    ------   -----------------  -----------------  -----------------
       1        0.000000000000    -0.000000000000    -0.000046734810
       2       -0.000000000000    -0.000000000000    -0.000030596143

*** tstop() called on Joses-MacBook-Pro-2.local at Thu Jul 17 14:38:06 2025
Module time:
	user time   =       1.03 seconds =       0.02 minutes
	system time =       1.78 seconds =       0.03 minutes
	total time  =          0 seconds =       0.00 minutes
Total time:
	user time   =      47.36 seconds =       0.79 minutes
	system time =      82.10 seconds =       1.37 minutes
	total time  =         13 seconds =       0.22 minutes

    			-----------------------------------------

    			 OPTKING 3.0: for geometry optimizations

    			     By R.A. King, Bethel University

    			        with contributions from

    			    A.V. Copan, J. Cayton, A. Heide

    			-----------------------------------------

	                            ===> Fragment 1 <==

	 Z (Atomic Numbers)          Masses                          Geom
	      10.000000            19.992440          0.00000000  0.00000000  2.56658283
	      11.000000            22.989769          0.00000000  0.00000000 -2.23196036

	 - Coordinate -           - BOHR/RAD -       - ANG/DEG -
	 R(1,2)           =         4.798543           2.539280

	        --- Internal Coordinate Step in ANG or DEG, aJ/ANG or AJ/DEG ---
	-------------------------------------------------------------------------------
	           Coordinate      Previous         Force          Change          New
	           ----------      --------        ------          ------        ------
	               R(1,2)       2.53928        0.00007        0.00009       2.53937
	-------------------------------------------------------------------------------

	                                 ==> Convergence Check <==

	Measures of convergence in internal coordinates in au.

	Criteria marked as inactive (o), active & met (*), and active & unmet ( ).

	----------------------------------------------------------------------------------------------
	   Step    Total Energy     Delta E     Max Force     RMS Force      Max Disp      RMS Disp
	----------------------------------------------------------------------------------------------
	  Convergence Criteria     1.00e-06 *    3.00e-04 *             o    1.20e-03 *             o
	----------------------------------------------------------------------------------------------
	    12    -289.32689930    1.93e-08 *    8.07e-06 *    8.07e-06 o    1.68e-04 *    1.68e-04 o  ~
	----------------------------------------------------------------------------------------------

Next Geometry in Ang
	Fragment 1 (Ang)

	   Ne   0.0000000000   0.0000000000   1.3582214770
	   Na   0.0000000000   0.0000000000  -1.1811468910

    Final optimized geometry and variables:
    Molecular point group: c2v
    Full point group: C_inf_v

    Geometry (in Angstrom), charge = 1, multiplicity = 5:

    NE           0.000000000000     0.000000000000     1.358177141389
    NA           0.000000000000     0.000000000000    -1.181102555438

    Psi4 stopped on: Thursday, 17 July 2025 02:38PM
    Psi4 wall time for execution: 0:00:13.66

*** Psi4 exiting successfully. Buy a developer a beer!
