                               Psi4 1.9.1 release

  ==> Input File <==

--------------------------------------------------------------------------
molecule {
1 5
Li   0.00000        0.60000        0.00000
C   0.00000       -0.60000        0.00000
}

set {
basis              cc-pvdz
reference          uks
maxiter            500
geom_maxiter       500
DAMPING_PERCENTAGE 1
guess              SAP
}

optimize('b3lyp')
--------------------------------------------------------------------------

    Molecular point group: c2v
  Charge       = 1
  Multiplicity = 5
  Basis Set: CC-PVDZ
    Blend: CC-PVDZ
  Basis Set: (CC-PVDZ AUX)
    Blend: CC-PVDZ-JKFIT + DEF2-UNIVERSAL-JKFIT
  @DF-UKS Final Energy:   -44.72641216900055
    Total Energy =                        -44.7264121690005538
 Dipole X            :          0.0000000            0.0000000            0.0000000
 Dipole Y            :          0.0000000            0.0000000            0.0000000
 Dipole Z            :          1.9515148           -0.7269546            1.2245602
 Magnitude           :                                                    1.2245602
    Molecular point group: c2v
  Basis Set: CC-PVDZ
    Blend: CC-PVDZ
  Basis Set: (CC-PVDZ AUX)
    Blend: CC-PVDZ-JKFIT + DEF2-UNIVERSAL-JKFIT
  Basis Set: CC-PVDZ
    Blend: CC-PVDZ
  Basis Set: (CC-PVDZ AUX)
    Blend: CC-PVDZ-JKFIT + DEF2-UNIVERSAL-JKFIT
  @DF-UKS Final Energy:   -44.85351479303338
    Total Energy =                        -44.8535147930333835
  Basis Set: CC-PVDZ
    Blend: CC-PVDZ
  Basis Set: (CC-PVDZ AUX)
    Blend: CC-PVDZ-JKFIT + DEF2-UNIVERSAL-JKFIT
  Basis Set: CC-PVDZ
    Blend: CC-PVDZ
  @DF-UKS Final Energy:   -44.90890678972710
    Total Energy =                        -44.9089067897271050
  @DF-UKS Final Energy:   -44.94091701802557
    Total Energy =                        -44.9409170180255728
  @DF-UKS Final Energy:   -44.95764484989553
    Total Energy =                        -44.9576448498955301
  @DF-UKS Final Energy:   -44.96627359821571
    Total Energy =                        -44.9662735982157145
  @DF-UKS Final Energy:   -44.97029113981458
    Total Energy =                        -44.9702911398145844
  @DF-UKS Final Energy:   -44.97187350989821
    Total Energy =                        -44.9718735098982094
  @DF-UKS Final Energy:   -44.97235274515187
    Total Energy =                        -44.9723527451518663
  @DF-UKS Final Energy:   -44.97243282234495
    Total Energy =                        -44.9724328223449490
  @DF-UKS Final Energy:   -44.97244982107362
    Total Energy =                        -44.9724498210736243
  Basis Set: (CC-PVDZ AUX)
    Blend: CC-PVDZ-JKFIT + DEF2-UNIVERSAL-JKFIT
  Basis Set: CC-PVDZ
    Blend: CC-PVDZ
  Basis Set: (CC-PVDZ AUX)
    Blend: CC-PVDZ-JKFIT + DEF2-UNIVERSAL-JKFIT
  @DF-UKS Final Energy:   -44.97245108837993
    Total Energy =                        -44.9724510883799269
  Basis Set: CC-PVDZ
    Blend: CC-PVDZ
  Basis Set: (CC-PVDZ AUX)
    Blend: CC-PVDZ-JKFIT + DEF2-UNIVERSAL-JKFIT
  Charge       = 1
  Multiplicity = 5
  Basis Set: CC-PVDZ
    Blend: CC-PVDZ
  Basis Set: (CC-PVDZ AUX)
    Blend: CC-PVDZ-JKFIT + DEF2-UNIVERSAL-JKFIT

    Orbital Energies [Eh]
    ---------------------

    Alpha Occupied:

       1A1   -10.530092     2A1    -2.332627     3A1    -0.848904
       4A1    -0.510924     1B1    -0.496387     1B2    -0.496387

    Alpha Virtual:

       5A1    -0.238303     2B1    -0.179345     2B2    -0.179345
       6A1    -0.149421     7A1    -0.065569     3B2    -0.063077
       3B1    -0.063077     8A1    -0.044529     4B1     0.061683
       4B2     0.061683     1A2     0.064287     9A1     0.064298
      10A1     0.121213     5B2     0.309002     5B1     0.309002
      11A1     0.336282    12A1     0.611246     2A2     0.881397
      13A1     0.881400     6B1     0.915009     6B2     0.915009
      14A1     1.002292

    Beta Occupied:

       1A1   -10.460774     2A1    -2.331996

    Beta Virtual:

       3A1    -0.485792     4A1    -0.262328     1B1    -0.211231
       1B2    -0.211231     5A1    -0.206514     2B1    -0.148253
       2B2    -0.148253     6A1    -0.108219     3B1    -0.062892
       3B2    -0.062892     7A1    -0.048784     8A1    -0.024925
       9A1     0.065852     1A2     0.065867     4B2     0.086627
       4B1     0.086627    10A1     0.149810     5B1     0.432491
       5B2     0.432491    11A1     0.460435    12A1     0.758419
      13A1     1.117582     2A2     1.117883     6B1     1.146399
       6B2     1.146399    14A1     1.216930

    Final Occupation by Irrep:
             A1    A2    B1    B2
    DOCC [     2,    0,    0,    0 ]
    SOCC [     2,    0,    1,    1 ]
    NA   [     4,    0,    1,    1 ]
    NB   [     2,    0,    0,    0 ]

  @DF-UKS Final Energy:   -44.97245114492012

   => Energetics <=

    Nuclear Repulsion Energy =              3.6432009835963455
    One-Electron Energy =                 -65.1619484282222174
    Two-Electron Energy =                  22.1901374792304971
    DFT Exchange-Correlation Energy =      -5.6438411795247498
    Empirical Dispersion Energy =           0.0000000000000000
    VV10 Nonlocal Energy =                  0.0000000000000000
    Total Energy =                        -44.9724511449201216

  UHF NO Occupations:
  HONO-2 :    1 B1 1.0000000
  HONO-1 :    4 A1 1.0000000
  HONO-0 :    1 B2 1.0000000
  LUNO+0 :    5 A1 0.0000013
  LUNO+1 :    6 A1 0.0000005
  LUNO+2 :    7 A1 0.0000000
  LUNO+3 :    2 B2 0.0000000

Computation Completed

Properties will be evaluated at   0.000000,   0.000000,   0.000000 [a0]

Properties computed using the SCF density matrix

 Multipole Moments:

 ------------------------------------------------------------------------------------
     Multipole            Electronic (a.u.)      Nuclear  (a.u.)        Total (a.u.)
 ------------------------------------------------------------------------------------

 L = 1.  Multiply by 2.5417464519 to convert [e a0] to [Debye]
 Dipole X            :          0.0000000            0.0000000            0.0000000
 Dipole Y            :          0.0000000            0.0000000            0.0000000
 Dipole Z            :          4.3190876           -1.5838591            2.7352285
 Magnitude           :                                                    2.7352285

 ------------------------------------------------------------------------------------

*** tstop() called on Joses-MacBook-Pro-2.local at Thu Jul 17 12:45:02 2025
Module time:
	user time   =       2.04 seconds =       0.03 minutes
	system time =       3.21 seconds =       0.05 minutes
	total time  =          1 seconds =       0.02 minutes
Total time:
	user time   =      36.87 seconds =       0.61 minutes
	system time =      67.53 seconds =       1.13 minutes
	total time  =         12 seconds =       0.20 minutes

*** tstart() called on Joses-MacBook-Pro-2.local
*** at Thu Jul 17 12:45:02 2025

         ------------------------------------------------------------
                                   SCF GRAD
                          Rob Parrish, Justin Turney,
                       Andy Simmonett, and Alex Sokolov
         ------------------------------------------------------------

  ==> Geometry <==

    Molecular point group: c2v
    Full point group: C_inf_v

    Geometry (in Angstrom), charge = 1, multiplicity = 5:

       Center              X                  Y                   Z               Mass
    ------------   -----------------  -----------------  -----------------  -----------------
         LI           0.000000000000     0.000000000000     1.649880562930     7.016003436600
         C            0.000000000000     0.000000000000    -0.964630641625    12.000000000000

  Nuclear repulsion =    3.643200983596345

  ==> Basis Set <==

  Basis Set: CC-PVDZ
    Blend: CC-PVDZ
    Number of shells: 12
    Number of basis functions: 28
    Number of Cartesian functions: 30
    Spherical Harmonics?: true
    Max angular momentum: 2

  ==> DFJKGrad: Density-Fitted SCF Gradients <==

    Gradient:                    1
    J tasked:                  Yes
    K tasked:                  Yes
    wK tasked:                  No
    OpenMP threads:              1
    Integrals threads:           1
    Memory [MiB]:              375
    Schwarz Cutoff:          1E-12
    Fitting Condition:       1E-10

   => Auxiliary Basis Set <=

  Basis Set: (CC-PVDZ AUX)
    Blend: CC-PVDZ-JKFIT + DEF2-UNIVERSAL-JKFIT
    Number of shells: 41
    Number of basis functions: 121
    Number of Cartesian functions: 141
    Spherical Harmonics?: true
    Max angular momentum: 3

  ==> DFT Potential <==

   => LibXC <=

    Version 6.2.2
    S. Lehtola, C. Steigemann, M. J.T. Oliveira, and M. A.L. Marques.,  SoftwareX 7, 1â€“5 (2018) (10.1016/j.softx.2017.11.002)

   => Composite Functional: B3LYP <=

    B3LYP Hyb-GGA Exchange-Correlation Functional

    P. J. Stephens, F. J. Devlin, C. F. Chabalowski, and M. J. Frisch.,  J. Phys. Chem. 98, 11623 (1994) (10.1021/j100096a001)

    Deriv               =              1
    GGA                 =           TRUE
    Meta                =          FALSE

    Exchange Hybrid     =           TRUE
    MP2 Hybrid          =          FALSE

   => Exchange Functionals <=

    0.0800   Slater exchange
    0.7200         Becke 88

   => Exact (HF) Exchange <=

    0.2000               HF

   => Correlation Functionals <=

    0.1900   Vosko, Wilk & Nusair (VWN5_RPA)
    0.8100   Lee, Yang & Parr

   => LibXC Density Thresholds  <==

    XC_HYB_GGA_XC_B3LYP:  1.00E-15

   => Molecular Quadrature <=

    Radial Scheme          =       TREUTLER
    Pruning Scheme         =           NONE
    Nuclear Scheme         =       TREUTLER

    Blocking Scheme        =         OCTREE
    BS radius alpha        =              1
    Pruning alpha          =              1
    Radial Points          =             75
    Spherical Points       =            302
    Total Points           =          44350
    Total Blocks           =            432
    Max Points             =            256
    Max Functions          =             28
    Weights Tolerance      =       1.00E-15

  -Total Gradient:
     Atom            X                  Y                   Z
    ------   -----------------  -----------------  -----------------
       1        0.000000000000     0.000000000000    -0.000004257459
       2        0.000000000000    -0.000000000000     0.000024382035

*** tstop() called on Joses-MacBook-Pro-2.local at Thu Jul 17 12:47:31 2025
Module time:
	user time   =       0.58 seconds =       0.01 minutes
	system time =       1.23 seconds =       0.02 minutes
	total time  =        149 seconds =       2.48 minutes
Total time:
	user time   =      37.45 seconds =       0.62 minutes
	system time =      68.77 seconds =       1.15 minutes
	total time  =        161 seconds =       2.68 minutes

    			-----------------------------------------

    			 OPTKING 3.0: for geometry optimizations

    			     By R.A. King, Bethel University

    			        with contributions from

    			    A.V. Copan, J. Cayton, A. Heide

    			-----------------------------------------

	                            ===> Fragment 1 <==

	 Z (Atomic Numbers)          Masses                          Geom
	       3.000000             7.016003          0.00000000  0.00000000  3.11782240
	       6.000000            12.000000          0.00000000  0.00000000 -1.82288772

	 - Coordinate -           - BOHR/RAD -       - ANG/DEG -
	 R(1,2)           =         4.940710           2.614511

	        --- Internal Coordinate Step in ANG or DEG, aJ/ANG or AJ/DEG ---
	-------------------------------------------------------------------------------
	           Coordinate      Previous         Force          Change          New
	           ----------      --------        ------          ------        ------
	               R(1,2)       2.61451        0.00012        0.00090       2.61541
	-------------------------------------------------------------------------------

	                                 ==> Convergence Check <==

	Measures of convergence in internal coordinates in au.

	Criteria marked as inactive (o), active & met (*), and active & unmet ( ).

	----------------------------------------------------------------------------------------------
	   Step    Total Energy     Delta E     Max Force     RMS Force      Max Disp      RMS Disp
	----------------------------------------------------------------------------------------------
	  Convergence Criteria     1.00e-06 *    3.00e-04 *             o    1.20e-03 *             o
	----------------------------------------------------------------------------------------------
	    13     -44.97245114   -5.65e-08 *    1.43e-05 *    1.43e-05 o    1.70e-03      1.70e-03 o  ~
	----------------------------------------------------------------------------------------------

Next Geometry in Ang
	Fragment 1 (Ang)

	   Li   0.0000000000   0.0000000000   1.6503296144
	    C   0.0000000000   0.0000000000  -0.9650796931

    Final optimized geometry and variables:
    Molecular point group: c2v
    Full point group: C_inf_v

    Geometry (in Angstrom), charge = 1, multiplicity = 5:

    LI           0.000000000000     0.000000000000     1.649880562930
    C            0.000000000000     0.000000000000    -0.964630641625

    Psi4 stopped on: Thursday, 17 July 2025 12:47PM
    Psi4 wall time for execution: 0:02:41.48

*** Psi4 exiting successfully. Buy a developer a beer!
