                               Psi4 1.9.1 release

  ==> Input File <==

--------------------------------------------------------------------------
molecule {
1 5
C   0.00000        0.60000        0.00000
P   0.00000       -0.60000        0.00000
}

set {
basis              cc-pvdz
reference          uks
maxiter            500
geom_maxiter       500
DAMPING_PERCENTAGE 1
guess              SAP
}

optimize('b3lyp')
--------------------------------------------------------------------------

    Molecular point group: c2v
  Charge       = 1
  Multiplicity = 5
  Basis Set: CC-PVDZ
    Blend: CC-PVDZ
  Basis Set: (CC-PVDZ AUX)
    Blend: CC-PVDZ-JKFIT
  @DF-UKS Final Energy:  -378.34433630633231
    Total Energy =                       -378.3443363063323091
 Dipole X            :          0.0000000            0.0000000            0.0000000
 Dipole Y            :          0.0000000            0.0000000            0.0000000
 Dipole Z            :         -0.6629292            0.3083052           -0.3546240
 Magnitude           :                                                    0.3546240
    Molecular point group: c2v
  Basis Set: CC-PVDZ
    Blend: CC-PVDZ
  Basis Set: (CC-PVDZ AUX)
    Blend: CC-PVDZ-JKFIT
  Basis Set: CC-PVDZ
    Blend: CC-PVDZ
  Basis Set: (CC-PVDZ AUX)
    Blend: CC-PVDZ-JKFIT
  @DF-UKS Final Energy:  -378.56582651656544
    Total Energy =                       -378.5658265165654370
  Basis Set: CC-PVDZ
    Blend: CC-PVDZ
  Basis Set: (CC-PVDZ AUX)
    Blend: CC-PVDZ-JKFIT
  Basis Set: CC-PVDZ
    Blend: CC-PVDZ
  @DF-UKS Final Energy:  -378.72699767234832
    Total Energy =                       -378.7269976723483182
  @DF-UKS Final Energy:  -378.79988521976679
    Total Energy =                       -378.7998852197667929
  @DF-UKS Final Energy:  -378.83272651231465
    Total Energy =                       -378.8327265123147072
  @DF-UKS Final Energy:  -378.83983544967862
    Total Energy =                       -378.8398354496786169
  @DF-UKS Final Energy:  -378.84317598380073
    Total Energy =                       -378.8431759838007338
  @DF-UKS Final Energy:  -378.84409356161228
    Total Energy =                       -378.8440935616122829
  @DF-UKS Final Energy:  -378.84446673920985
    Total Energy =                       -378.8444667392098495
  @DF-UKS Final Energy:  -378.84452975708939
    Total Energy =                       -378.8445297570893899
  Basis Set: (CC-PVDZ AUX)
    Blend: CC-PVDZ-JKFIT
  Basis Set: CC-PVDZ
    Blend: CC-PVDZ
  Basis Set: (CC-PVDZ AUX)
    Blend: CC-PVDZ-JKFIT
  @DF-UKS Final Energy:  -378.84454257787343
    Total Energy =                       -378.8445425778733693
  Basis Set: CC-PVDZ
    Blend: CC-PVDZ
  Basis Set: (CC-PVDZ AUX)
    Blend: CC-PVDZ-JKFIT
  Charge       = 1
  Multiplicity = 5
  Basis Set: CC-PVDZ
    Blend: CC-PVDZ
  Basis Set: (CC-PVDZ AUX)
    Blend: CC-PVDZ-JKFIT

    Orbital Energies [Eh]
    ---------------------

    Alpha Occupied:

       1A1   -77.481057     2A1   -10.613802     3A1    -6.942224
       1B1    -5.106956     1B2    -5.104278     4A1    -5.103933
       5A1    -1.018478     6A1    -0.820150     7A1    -0.625140
       2B2    -0.614652     2B1    -0.593915     3B2    -0.496757

    Alpha Virtual:

       3B1    -0.422421     8A1    -0.261383     9A1     0.057029
       4B2     0.111950     4B1     0.113039    10A1     0.125256
       1A2     0.125962    11A1     0.127150     5B2     0.145537
       5B1     0.150400    12A1     0.191828     6B2     0.263019
       6B1     0.269324    13A1     0.440974    14A1     0.544962
       2A2     0.826526    15A1     0.829025     7B2     0.960069
       7B1     0.961962    16A1     1.330342

    Beta Occupied:

       1A1   -77.471902     2A1   -10.579823     3A1    -6.932500
       1B1    -5.094055     4A1    -5.093501     1B2    -5.084512
       5A1    -0.921956     6A1    -0.706878

    Beta Virtual:

       2B1    -0.463806     7A1    -0.456439     2B2    -0.440136
       3B1    -0.334575     3B2    -0.305521     8A1    -0.193429
       9A1     0.096762    10A1     0.156675     4B1     0.157517
       4B2     0.172038     5B1     0.201503    11A1     0.209799
       1A2     0.209821     5B2     0.223874    12A1     0.250786
       6B1     0.306144     6B2     0.325246    13A1     0.495251
      14A1     0.600270     2A2     0.926738    15A1     0.926817
       7B1     1.041758     7B2     1.066260    16A1     1.412133

    Final Occupation by Irrep:
             A1    A2    B1    B2
    DOCC [     6,    0,    1,    1 ]
    SOCC [     1,    0,    1,    2 ]
    NA   [     7,    0,    2,    3 ]
    NB   [     6,    0,    1,    1 ]

  @DF-UKS Final Energy:  -378.84454400160774

   => Energetics <=

    Nuclear Repulsion Energy =             24.9985388441591638
    One-Electron Energy =                -565.0729454111308314
    Two-Electron Energy =                 183.9430496974860318
    DFT Exchange-Correlation Energy =     -22.7131871321221226
    Empirical Dispersion Energy =           0.0000000000000000
    VV10 Nonlocal Energy =                  0.0000000000000000
    Total Energy =                       -378.8445440016078010

  UHF NO Occupations:
  HONO-2 :    3 B2 1.0000000
  HONO-1 :    2 B1 1.0000000
  HONO-0 :    7 A1 1.0000000
  LUNO+0 :    8 A1 0.0008178
  LUNO+1 :    9 A1 0.0003369
  LUNO+2 :   10 A1 0.0000003
  LUNO+3 :    3 B1 0.0000000

Computation Completed

Properties will be evaluated at   0.000000,   0.000000,   0.000000 [a0]

Properties computed using the SCF density matrix

 Multipole Moments:

 ------------------------------------------------------------------------------------
     Multipole            Electronic (a.u.)      Nuclear  (a.u.)        Total (a.u.)
 ------------------------------------------------------------------------------------

 L = 1.  Multiply by 2.5417464519 to convert [e a0] to [Debye]
 Dipole X            :          0.0000000            0.0000000            0.0000000
 Dipole Y            :          0.0000000            0.0000000            0.0000000
 Dipole Z            :         -0.4779433            0.4894728            0.0115295
 Magnitude           :                                                    0.0115295

 ------------------------------------------------------------------------------------

*** tstop() called on Joses-MacBook-Pro-2.local at Thu Jul 17 13:45:43 2025
Module time:
	user time   =       2.89 seconds =       0.05 minutes
	system time =       4.99 seconds =       0.08 minutes
	total time  =          0 seconds =       0.00 minutes
Total time:
	user time   =      59.79 seconds =       1.00 minutes
	system time =      89.95 seconds =       1.50 minutes
	total time  =         15 seconds =       0.25 minutes

*** tstart() called on Joses-MacBook-Pro-2.local
*** at Thu Jul 17 13:45:43 2025

         ------------------------------------------------------------
                                   SCF GRAD
                          Rob Parrish, Justin Turney,
                       Andy Simmonett, and Alex Sokolov
         ------------------------------------------------------------

  ==> Geometry <==

    Molecular point group: c2v
    Full point group: C_inf_v

    Geometry (in Angstrom), charge = 1, multiplicity = 5:

       Center              X                  Y                   Z               Mass
    ------------   -----------------  -----------------  -----------------  -----------------
         C            0.000000000000     0.000000000000     1.373155117657    12.000000000000
         P            0.000000000000     0.000000000000    -0.531994189557    30.973761998420

  Nuclear repulsion =   24.998538844159164

  ==> Basis Set <==

  Basis Set: CC-PVDZ
    Blend: CC-PVDZ
    Number of shells: 14
    Number of basis functions: 32
    Number of Cartesian functions: 34
    Spherical Harmonics?: true
    Max angular momentum: 2

  ==> DFJKGrad: Density-Fitted SCF Gradients <==

    Gradient:                    1
    J tasked:                  Yes
    K tasked:                  Yes
    wK tasked:                  No
    OpenMP threads:              1
    Integrals threads:           1
    Memory [MiB]:              375
    Schwarz Cutoff:          1E-12
    Fitting Condition:       1E-10

   => Auxiliary Basis Set <=

  Basis Set: (CC-PVDZ AUX)
    Blend: CC-PVDZ-JKFIT
    Number of shells: 60
    Number of basis functions: 182
    Number of Cartesian functions: 211
    Spherical Harmonics?: true
    Max angular momentum: 3

  ==> DFT Potential <==

   => LibXC <=

    Version 6.2.2
    S. Lehtola, C. Steigemann, M. J.T. Oliveira, and M. A.L. Marques.,  SoftwareX 7, 1â€“5 (2018) (10.1016/j.softx.2017.11.002)

   => Composite Functional: B3LYP <=

    B3LYP Hyb-GGA Exchange-Correlation Functional

    P. J. Stephens, F. J. Devlin, C. F. Chabalowski, and M. J. Frisch.,  J. Phys. Chem. 98, 11623 (1994) (10.1021/j100096a001)

    Deriv               =              1
    GGA                 =           TRUE
    Meta                =          FALSE

    Exchange Hybrid     =           TRUE
    MP2 Hybrid          =          FALSE

   => Exchange Functionals <=

    0.0800   Slater exchange
    0.7200         Becke 88

   => Exact (HF) Exchange <=

    0.2000               HF

   => Correlation Functionals <=

    0.1900   Vosko, Wilk & Nusair (VWN5_RPA)
    0.8100   Lee, Yang & Parr

   => LibXC Density Thresholds  <==

    XC_HYB_GGA_XC_B3LYP:  1.00E-15

   => Molecular Quadrature <=

    Radial Scheme          =       TREUTLER
    Pruning Scheme         =           NONE
    Nuclear Scheme         =       TREUTLER

    Blocking Scheme        =         OCTREE
    BS radius alpha        =              1
    Pruning alpha          =              1
    Radial Points          =             75
    Spherical Points       =            302
    Total Points           =          41941
    Total Blocks           =            374
    Max Points             =            255
    Max Functions          =             32
    Weights Tolerance      =       1.00E-15

  -Total Gradient:
     Atom            X                  Y                   Z
    ------   -----------------  -----------------  -----------------
       1        0.000000000000     0.000000000000    -0.000129092567
       2       -0.000000000000     0.000000000000     0.000118293533

*** tstop() called on Joses-MacBook-Pro-2.local at Thu Jul 17 13:45:44 2025
Module time:
	user time   =       0.61 seconds =       0.01 minutes
	system time =       1.90 seconds =       0.03 minutes
	total time  =          1 seconds =       0.02 minutes
Total time:
	user time   =      60.40 seconds =       1.01 minutes
	system time =      91.86 seconds =       1.53 minutes
	total time  =         16 seconds =       0.27 minutes

    			-----------------------------------------

    			 OPTKING 3.0: for geometry optimizations

    			     By R.A. King, Bethel University

    			        with contributions from

    			    A.V. Copan, J. Cayton, A. Heide

    			-----------------------------------------

	                            ===> Fragment 1 <==

	 Z (Atomic Numbers)          Masses                          Geom
	       6.000000            12.000000          0.00000000  0.00000000  2.59488710
	      15.000000            30.973762          0.00000000  0.00000000 -1.00532332

	 - Coordinate -           - BOHR/RAD -       - ANG/DEG -
	 R(1,2)           =         3.600210           1.905149

	        --- Internal Coordinate Step in ANG or DEG, aJ/ANG or AJ/DEG ---
	-------------------------------------------------------------------------------
	           Coordinate      Previous         Force          Change          New
	           ----------      --------        ------          ------        ------
	               R(1,2)       1.90515        0.00102        0.00046       1.90561
	-------------------------------------------------------------------------------

	                                 ==> Convergence Check <==

	Measures of convergence in internal coordinates in au.

	Criteria marked as inactive (o), active & met (*), and active & unmet ( ).

	----------------------------------------------------------------------------------------------
	   Step    Total Energy     Delta E     Max Force     RMS Force      Max Disp      RMS Disp
	----------------------------------------------------------------------------------------------
	  Convergence Criteria     1.00e-06 *    3.00e-04 *             o    1.20e-03 *             o
	----------------------------------------------------------------------------------------------
	    12    -378.84454400   -1.42e-06      1.24e-04 *    1.24e-04 o    8.62e-04 *    8.62e-04 o  ~
	----------------------------------------------------------------------------------------------

Next Geometry in Ang
	Fragment 1 (Ang)

	    C   0.0000000000   0.0000000000   1.3733832956
	    P   0.0000000000   0.0000000000  -0.5322223675

    Final optimized geometry and variables:
    Molecular point group: c2v
    Full point group: C_inf_v

    Geometry (in Angstrom), charge = 1, multiplicity = 5:

    C            0.000000000000     0.000000000000     1.373155117657
    P            0.000000000000     0.000000000000    -0.531994189557

    Psi4 stopped on: Thursday, 17 July 2025 01:45PM
    Psi4 wall time for execution: 0:00:16.68

*** Psi4 exiting successfully. Buy a developer a beer!
