                               Psi4 1.9.1 release

  ==> Input File <==

--------------------------------------------------------------------------
molecule {
1 5
He   0.00000        0.60000        0.00000
Li   0.00000       -0.60000        0.00000
}

set {
basis              cc-pvdz
reference          uks
maxiter            500
geom_maxiter       500
DAMPING_PERCENTAGE 1
guess              SAP
}

optimize('b3lyp')
--------------------------------------------------------------------------

    Molecular point group: c2v
  Charge       = 1
  Multiplicity = 5
  Basis Set: CC-PVDZ
    Blend: CC-PVDZ
  Basis Set: (CC-PVDZ AUX)
    Blend: DEF2-UNIVERSAL-JKFIT
  @DF-UKS Final Energy:    -6.92573450078110
    Total Energy =                         -6.9257345007811004
 Dipole X            :          0.0000000            0.0000000            0.0000000
 Dipole Y            :          0.0000000            0.0000000            0.0000000
 Dipole Z            :          0.5579289            0.4165875            0.9745164
 Magnitude           :                                                    0.9745164
    Molecular point group: c2v
  Basis Set: CC-PVDZ
    Blend: CC-PVDZ
  Basis Set: (CC-PVDZ AUX)
    Blend: DEF2-UNIVERSAL-JKFIT
  Basis Set: CC-PVDZ
    Blend: CC-PVDZ
  Basis Set: (CC-PVDZ AUX)
    Blend: DEF2-UNIVERSAL-JKFIT
  @DF-UKS Final Energy:    -7.05648202398802
    Total Energy =                         -7.0564820239880186
  Basis Set: CC-PVDZ
    Blend: CC-PVDZ
  Basis Set: (CC-PVDZ AUX)
    Blend: DEF2-UNIVERSAL-JKFIT
  Basis Set: CC-PVDZ
    Blend: CC-PVDZ
  @DF-UKS Final Energy:    -7.16412760821082
    Total Energy =                         -7.1641276082108165
  @DF-UKS Final Energy:    -7.22134681699088
    Total Energy =                         -7.2213468169908817
  @DF-UKS Final Energy:    -7.24372785390332
    Total Energy =                         -7.2437278539033203
  @DF-UKS Final Energy:    -7.25651688690027
    Total Energy =                         -7.2565168869002710
  @DF-UKS Final Energy:    -7.26169607989666
    Total Energy =                         -7.2616960798966659
  @DF-UKS Final Energy:    -7.26359127048805
    Total Energy =                         -7.2635912704880568
  @DF-UKS Final Energy:    -7.26408358028741
    Total Energy =                         -7.2640835802874131
  @DF-UKS Final Energy:    -7.26414837185086
    Total Energy =                         -7.2641483718508564
  Basis Set: (CC-PVDZ AUX)
    Blend: DEF2-UNIVERSAL-JKFIT
  Basis Set: CC-PVDZ
    Blend: CC-PVDZ
  Basis Set: (CC-PVDZ AUX)
    Blend: DEF2-UNIVERSAL-JKFIT
  @DF-UKS Final Energy:    -7.26415834760289
    Total Energy =                         -7.2641583476028888
  Basis Set: CC-PVDZ
    Blend: CC-PVDZ
  Basis Set: (CC-PVDZ AUX)
    Blend: DEF2-UNIVERSAL-JKFIT
  Charge       = 1
  Multiplicity = 5
  Basis Set: CC-PVDZ
    Blend: CC-PVDZ
  Basis Set: (CC-PVDZ AUX)
    Blend: DEF2-UNIVERSAL-JKFIT

    Orbital Energies [Eh]
    ---------------------

    Alpha Occupied:

       1A1    -3.417656     2A1    -1.587951     3A1    -0.421052
       1B1    -0.321424

    Alpha Virtual:

       4A1    -0.273630     1B2    -0.255733     5A1    -0.125330
       2B1    -0.081001     2B2    -0.078966     6A1    -0.054424
       3B1    -0.011434     7A1    -0.006717     3B2     0.006393
       1A2     0.010582     8A1     0.021854     9A1     0.569952
       4B2     1.372775     4B1     1.373211    10A1     1.404011

    Beta Occupied:

    Beta Virtual:

       1A1    -2.412120     2A1    -0.917438     3A1    -0.240017
       4A1    -0.187160     1B2    -0.172864     1B1    -0.145380
       5A1    -0.086566     2B2    -0.057917     2B1    -0.047699
       6A1    -0.027024     3B2     0.074439     7A1     0.076770
       3B1     0.093120     1A2     0.110084     8A1     0.114154
       9A1     0.900486     4B2     1.724054     4B1     1.724537
      10A1     1.753159

    Final Occupation by Irrep:
             A1    A2    B1    B2
    DOCC [     0,    0,    0,    0 ]
    SOCC [     3,    0,    1,    0 ]
    NA   [     3,    0,    1,    0 ]
    NB   [     0,    0,    0,    0 ]

  @DF-UKS Final Energy:    -7.26415881604641

   => Energetics <=

    Nuclear Repulsion Energy =              1.0464897384249110
    One-Electron Energy =                  -9.8005900000115069
    Two-Electron Energy =                   2.9667482910458376
    DFT Exchange-Correlation Energy =      -1.4768068455056520
    Empirical Dispersion Energy =           0.0000000000000000
    VV10 Nonlocal Energy =                  0.0000000000000000
    Total Energy =                         -7.2641588160464101

  UHF NO Occupations:
  HONO-2 :    1 A1 1.0000000
  HONO-1 :    2 A1 1.0000000
  HONO-0 :    3 A1 1.0000000
  LUNO+0 :    4 A1 0.0000000
  LUNO+1 :    2 B1 0.0000000
  LUNO+2 :    5 A1 0.0000000
  LUNO+3 :    6 A1 0.0000000

Computation Completed

Properties will be evaluated at   0.000000,   0.000000,   0.000000 [a0]

Properties computed using the SCF density matrix

 Multipole Moments:

 ------------------------------------------------------------------------------------
     Multipole            Electronic (a.u.)      Nuclear  (a.u.)        Total (a.u.)
 ------------------------------------------------------------------------------------

 L = 1.  Multiply by 2.5417464519 to convert [e a0] to [Debye]
 Dipole X            :          0.0000000            0.0000000            0.0000000
 Dipole Y            :          0.0000000            0.0000000            0.0000000
 Dipole Z            :          0.8770431            1.0532765            1.9303196
 Magnitude           :                                                    1.9303196

 ------------------------------------------------------------------------------------

*** tstop() called on Joses-MacBook-Pro-2.local at Thu Jul 17 12:25:26 2025
Module time:
	user time   =       0.53 seconds =       0.01 minutes
	system time =       2.97 seconds =       0.05 minutes
	total time  =          1 seconds =       0.02 minutes
Total time:
	user time   =      12.72 seconds =       0.21 minutes
	system time =      48.87 seconds =       0.81 minutes
	total time  =          7 seconds =       0.12 minutes

*** tstart() called on Joses-MacBook-Pro-2.local
*** at Thu Jul 17 12:25:26 2025

         ------------------------------------------------------------
                                   SCF GRAD
                          Rob Parrish, Justin Turney,
                       Andy Simmonett, and Alex Sokolov
         ------------------------------------------------------------

  ==> Geometry <==

    Molecular point group: c2v
    Full point group: C_inf_v

    Geometry (in Angstrom), charge = 1, multiplicity = 5:

       Center              X                  Y                   Z               Mass
    ------------   -----------------  -----------------  -----------------  -----------------
         HE           0.000000000000     0.000000000000     1.931881665822     4.002603254130
         LI           0.000000000000     0.000000000000    -1.102131136634     7.016003436600

  Nuclear repulsion =    1.046489738424911

  ==> Basis Set <==

  Basis Set: CC-PVDZ
    Blend: CC-PVDZ
    Number of shells: 9
    Number of basis functions: 19
    Number of Cartesian functions: 20
    Spherical Harmonics?: true
    Max angular momentum: 2

  ==> DFJKGrad: Density-Fitted SCF Gradients <==

    Gradient:                    1
    J tasked:                  Yes
    K tasked:                  Yes
    wK tasked:                  No
    OpenMP threads:              1
    Integrals threads:           1
    Memory [MiB]:              375
    Schwarz Cutoff:          1E-12
    Fitting Condition:       1E-10

   => Auxiliary Basis Set <=

  Basis Set: (CC-PVDZ AUX)
    Blend: DEF2-UNIVERSAL-JKFIT
    Number of shells: 26
    Number of basis functions: 74
    Number of Cartesian functions: 85
    Spherical Harmonics?: true
    Max angular momentum: 3

  ==> DFT Potential <==

   => LibXC <=

    Version 6.2.2
    S. Lehtola, C. Steigemann, M. J.T. Oliveira, and M. A.L. Marques.,  SoftwareX 7, 1â€“5 (2018) (10.1016/j.softx.2017.11.002)

   => Composite Functional: B3LYP <=

    B3LYP Hyb-GGA Exchange-Correlation Functional

    P. J. Stephens, F. J. Devlin, C. F. Chabalowski, and M. J. Frisch.,  J. Phys. Chem. 98, 11623 (1994) (10.1021/j100096a001)

    Deriv               =              1
    GGA                 =           TRUE
    Meta                =          FALSE

    Exchange Hybrid     =           TRUE
    MP2 Hybrid          =          FALSE

   => Exchange Functionals <=

    0.0800   Slater exchange
    0.7200         Becke 88

   => Exact (HF) Exchange <=

    0.2000               HF

   => Correlation Functionals <=

    0.1900   Vosko, Wilk & Nusair (VWN5_RPA)
    0.8100   Lee, Yang & Parr

   => LibXC Density Thresholds  <==

    XC_HYB_GGA_XC_B3LYP:  1.00E-15

   => Molecular Quadrature <=

    Radial Scheme          =       TREUTLER
    Pruning Scheme         =           NONE
    Nuclear Scheme         =       TREUTLER

    Blocking Scheme        =         OCTREE
    BS radius alpha        =              1
    Pruning alpha          =              1
    Radial Points          =             75
    Spherical Points       =            302
    Total Points           =          44368
    Total Blocks           =            408
    Max Points             =            255
    Max Functions          =             19
    Weights Tolerance      =       1.00E-15

  -Total Gradient:
     Atom            X                  Y                   Z
    ------   -----------------  -----------------  -----------------
       1        0.000000000000     0.000000000000    -0.000024521674
       2        0.000000000000    -0.000000000000     0.000023492629

*** tstop() called on Joses-MacBook-Pro-2.local at Thu Jul 17 12:25:26 2025
Module time:
	user time   =       0.38 seconds =       0.01 minutes
	system time =       0.70 seconds =       0.01 minutes
	total time  =          0 seconds =       0.00 minutes
Total time:
	user time   =      13.10 seconds =       0.22 minutes
	system time =      49.57 seconds =       0.83 minutes
	total time  =          7 seconds =       0.12 minutes

    			-----------------------------------------

    			 OPTKING 3.0: for geometry optimizations

    			     By R.A. King, Bethel University

    			        with contributions from

    			    A.V. Copan, J. Cayton, A. Heide

    			-----------------------------------------

	                            ===> Fragment 1 <==

	 Z (Atomic Numbers)          Masses                          Geom
	       2.000000             4.002603          0.00000000  0.00000000  3.65072726
	       3.000000             7.016003          0.00000000  0.00000000 -2.08272600

	 - Coordinate -           - BOHR/RAD -       - ANG/DEG -
	 R(1,2)           =         5.733453           3.034013

	        --- Internal Coordinate Step in ANG or DEG, aJ/ANG or AJ/DEG ---
	-------------------------------------------------------------------------------
	           Coordinate      Previous         Force          Change          New
	           ----------      --------        ------          ------        ------
	               R(1,2)       3.03401        0.00020        0.00104       3.03505
	-------------------------------------------------------------------------------

	                                 ==> Convergence Check <==

	Measures of convergence in internal coordinates in au.

	Criteria marked as inactive (o), active & met (*), and active & unmet ( ).

	----------------------------------------------------------------------------------------------
	   Step    Total Energy     Delta E     Max Force     RMS Force      Max Disp      RMS Disp
	----------------------------------------------------------------------------------------------
	  Convergence Criteria     1.00e-06 *    3.00e-04 *             o    1.20e-03 *             o
	----------------------------------------------------------------------------------------------
	    12      -7.26415882   -4.68e-07 *    2.40e-05 *    2.40e-05 o    1.96e-03      1.96e-03 o  ~
	----------------------------------------------------------------------------------------------

Next Geometry in Ang
	Fragment 1 (Ang)

	   He   0.0000000000   0.0000000000   1.9323998258
	   Li   0.0000000000   0.0000000000  -1.1026492966

    Final optimized geometry and variables:
    Molecular point group: c2v
    Full point group: C_inf_v

    Geometry (in Angstrom), charge = 1, multiplicity = 5:

    HE           0.000000000000     0.000000000000     1.931881665822
    LI           0.000000000000     0.000000000000    -1.102131136634

    Psi4 stopped on: Thursday, 17 July 2025 12:25PM
    Psi4 wall time for execution: 0:00:06.97

*** Psi4 exiting successfully. Buy a developer a beer!
