                               Psi4 1.9.1 release

  ==> Input File <==

--------------------------------------------------------------------------
molecule {
1 5
He   0.00000        0.60000        0.00000
B   0.00000       -0.60000        0.00000
}

set {
basis              cc-pvdz
reference          uks
maxiter            500
geom_maxiter       500
DAMPING_PERCENTAGE 1
guess              SAP
}

optimize('b3lyp')
--------------------------------------------------------------------------

    Molecular point group: c2v
  Charge       = 1
  Multiplicity = 5
  Basis Set: CC-PVDZ
    Blend: CC-PVDZ
  Basis Set: (CC-PVDZ AUX)
    Blend: CC-PVDZ-JKFIT + DEF2-UNIVERSAL-JKFIT
  @DF-UKS Final Energy:   -26.29159373695366
    Total Energy =                        -26.2915937369536650
 Dipole X            :          0.0000000            0.0000000            0.0000000
 Dipole Y            :          0.0000000            0.0000000            0.0000000
 Dipole Z            :          1.0316590            0.3029614            1.3346204
 Magnitude           :                                                    1.3346204
    Molecular point group: c2v
  Basis Set: CC-PVDZ
    Blend: CC-PVDZ
  Basis Set: (CC-PVDZ AUX)
    Blend: CC-PVDZ-JKFIT + DEF2-UNIVERSAL-JKFIT
  Basis Set: CC-PVDZ
    Blend: CC-PVDZ
  Basis Set: (CC-PVDZ AUX)
    Blend: CC-PVDZ-JKFIT + DEF2-UNIVERSAL-JKFIT
  @DF-UKS Final Energy:   -26.40488210809865
    Total Energy =                        -26.4048821080986471
  Basis Set: CC-PVDZ
    Blend: CC-PVDZ
  Basis Set: (CC-PVDZ AUX)
    Blend: CC-PVDZ-JKFIT + DEF2-UNIVERSAL-JKFIT
  Basis Set: CC-PVDZ
    Blend: CC-PVDZ
  @DF-UKS Final Energy:   -26.45512625427936
    Total Energy =                        -26.4551262542793566
  @DF-UKS Final Energy:   -26.48140164440856
    Total Energy =                        -26.4814016444085674
  @DF-UKS Final Energy:   -26.49571203258634
    Total Energy =                        -26.4957120325863364
  @DF-UKS Final Energy:   -26.50389889516075
    Total Energy =                        -26.5038988951607521
  @DF-UKS Final Energy:   -26.50877057505856
    Total Energy =                        -26.5087705750585592
  @DF-UKS Final Energy:   -26.51183409250840
    Total Energy =                        -26.5118340925084013
  @DF-UKS Final Energy:   -26.51392094309178
    Total Energy =                        -26.5139209430917830
  @DF-UKS Final Energy:   -26.51403993348853
    Total Energy =                        -26.5140399334885331
  @DF-UKS Final Energy:   -26.51575042446164
    Total Energy =                        -26.5157504244616362
  @DF-UKS Final Energy:   -26.51580614620206
    Total Energy =                        -26.5158061462020633
  @DF-UKS Final Energy:   -26.51704044405971
    Total Energy =                        -26.5170404440597132
  @DF-UKS Final Energy:   -26.51707040801975
    Total Energy =                        -26.5170704080197552
  @DF-UKS Final Energy:   -26.51796238223457
    Total Energy =                        -26.5179623822345683
  @DF-UKS Final Energy:   -26.51797939101493
    Total Energy =                        -26.5179793910149293
  @DF-UKS Final Energy:   -26.51862732798198
    Total Energy =                        -26.5186273279819780
  @DF-UKS Final Energy:   -26.51863725036451
    Total Energy =                        -26.5186372503645096
  @DF-UKS Final Energy:   -26.51864707891728
    Total Energy =                        -26.5186470789172795
  @DF-UKS Final Energy:   -26.51911922274049
    Total Energy =                        -26.5191192227404926
  @DF-UKS Final Energy:   -26.51913104636875
    Total Energy =                        -26.5191310463687522
  @DF-UKS Final Energy:   -26.51948363828250
    Total Energy =                        -26.5194836382825017
  @DF-UKS Final Energy:   -26.51948727914153
    Total Energy =                        -26.5194872791415328
  @DF-UKS Final Energy:   -26.51949090108518
    Total Energy =                        -26.5194909010851774
  @DF-UKS Final Energy:   -26.51949450315141
    Total Energy =                        -26.5194945031514138
  @DF-UKS Final Energy:   -26.51976101766004
    Total Energy =                        -26.5197610176600378
  @DF-UKS Final Energy:   -26.51976330748814
    Total Energy =                        -26.5197633074881374
  @DF-UKS Final Energy:   -26.51976558427328
    Total Energy =                        -26.5197655842732765
  @DF-UKS Final Energy:   -26.51976785155205
    Total Energy =                        -26.5197678515520536
  @DF-UKS Final Energy:   -26.51977010941936
    Total Energy =                        -26.5197701094193619
  @DF-UKS Final Energy:   -26.51977235795329
    Total Energy =                        -26.5197723579532862
  @DF-UKS Final Energy:   -26.51997724719027
    Total Energy =                        -26.5199772471902691
  @DF-UKS Final Energy:   -26.51997871798583
    Total Energy =                        -26.5199787179858291
  @DF-UKS Final Energy:   -26.51998018164739
    Total Energy =                        -26.5199801816473943
  @DF-UKS Final Energy:   -26.51998164036947
    Total Energy =                        -26.5199816403694726
  @DF-UKS Final Energy:   -26.51998309417864
    Total Energy =                        -26.5199830941786416
  @DF-UKS Final Energy:   -26.51998454309141
    Total Energy =                        -26.5199845430914039
  @DF-UKS Final Energy:   -26.51998598712053
    Total Energy =                        -26.5199859871205277
  Basis Set: (CC-PVDZ AUX)
    Blend: CC-PVDZ-JKFIT + DEF2-UNIVERSAL-JKFIT
  Basis Set: CC-PVDZ
    Blend: CC-PVDZ
  Basis Set: (CC-PVDZ AUX)
    Blend: CC-PVDZ-JKFIT + DEF2-UNIVERSAL-JKFIT
  @DF-UKS Final Energy:   -26.52014467585551
    Total Energy =                        -26.5201446758555015
  Basis Set: CC-PVDZ
    Blend: CC-PVDZ
  Basis Set: (CC-PVDZ AUX)
    Blend: CC-PVDZ-JKFIT + DEF2-UNIVERSAL-JKFIT
  Charge       = 1
  Multiplicity = 5
  Basis Set: CC-PVDZ
    Blend: CC-PVDZ
  Basis Set: (CC-PVDZ AUX)
    Blend: CC-PVDZ-JKFIT + DEF2-UNIVERSAL-JKFIT

    Orbital Energies [Eh]
    ---------------------

    Alpha Occupied:

       1A1    -6.949035     2A1    -1.632782     3A1    -0.511914
       1B1    -0.282624     1B2    -0.282624

    Alpha Virtual:

       4A1    -0.192008     2B1     0.190787     2B2     0.190787
       5A1     0.209195     6A1     0.255984     7A1     0.387840
       1A2     0.580727     8A1     0.580727     3B2     0.585816
       3B1     0.585816     9A1     0.599119    10A1     1.324040
       4B2     1.324054     4B1     1.324054

    Beta Occupied:

       1A1    -6.909709

    Beta Virtual:

       2A1    -0.957756     3A1    -0.266503     4A1    -0.101406
       1B1    -0.054718     1B2    -0.054718     5A1     0.250955
       2B1     0.289559     2B2     0.289559     6A1     0.347754
       7A1     0.710312     3B1     0.724008     3B2     0.724008
       8A1     0.735307     1A2     0.761178     9A1     0.761345
      10A1     1.677418     4B1     1.677435     4B2     1.677435

    Final Occupation by Irrep:
             A1    A2    B1    B2
    DOCC [     1,    0,    0,    0 ]
    SOCC [     2,    0,    1,    1 ]
    NA   [     3,    0,    1,    1 ]
    NB   [     1,    0,    0,    0 ]

  @DF-UKS Final Energy:   -26.52014562718281

   => Energetics <=

    Nuclear Repulsion Energy =              0.7450752989577101
    One-Electron Energy =                 -35.3045076593636509
    Two-Electron Energy =                  11.7162223482193752
    DFT Exchange-Correlation Energy =      -3.6769356149962444
    Empirical Dispersion Energy =           0.0000000000000000
    VV10 Nonlocal Energy =                  0.0000000000000000
    Total Energy =                        -26.5201456271828135

  UHF NO Occupations:
  HONO-2 :    1 B2 1.0000000
  HONO-1 :    2 A1 1.0000000
  HONO-0 :    3 A1 1.0000000
  LUNO+0 :    4 A1 0.0000007
  LUNO+1 :    5 A1 0.0000000
  LUNO+2 :    2 B1 0.0000000
  LUNO+3 :    2 B2 0.0000000

Computation Completed

Properties will be evaluated at   0.000000,   0.000000,   0.000000 [a0]

Properties computed using the SCF density matrix

 Multipole Moments:

 ------------------------------------------------------------------------------------
     Multipole            Electronic (a.u.)      Nuclear  (a.u.)        Total (a.u.)
 ------------------------------------------------------------------------------------

 L = 1.  Multiply by 2.5417464519 to convert [e a0] to [Debye]
 Dipole X            :          0.0000000            0.0000000            0.0000000
 Dipole Y            :          0.0000000            0.0000000            0.0000000
 Dipole Z            :          7.9899924            1.7931104            9.7831029
 Magnitude           :                                                    9.7831029

 ------------------------------------------------------------------------------------

*** tstop() called on Joses-MacBook-Pro-2.local at Thu Jul 17 12:26:41 2025
Module time:
	user time   =       0.43 seconds =       0.01 minutes
	system time =       2.27 seconds =       0.04 minutes
	total time  =          0 seconds =       0.00 minutes
Total time:
	user time   =      38.77 seconds =       0.65 minutes
	system time =     154.65 seconds =       2.58 minutes
	total time  =         19 seconds =       0.32 minutes

*** tstart() called on Joses-MacBook-Pro-2.local
*** at Thu Jul 17 12:26:41 2025

         ------------------------------------------------------------
                                   SCF GRAD
                          Rob Parrish, Justin Turney,
                       Andy Simmonett, and Alex Sokolov
         ------------------------------------------------------------

  ==> Geometry <==

    Molecular point group: c2v
    Full point group: C_inf_v

    Geometry (in Angstrom), charge = 1, multiplicity = 5:

       Center              X                  Y                   Z               Mass
    ------------   -----------------  -----------------  -----------------  -----------------
         HE           0.000000000000     0.000000000000     5.208647567778     4.002603254130
         B            0.000000000000     0.000000000000    -1.893684389948    11.009305360000

  Nuclear repulsion =    0.745075298957710

  ==> Basis Set <==

  Basis Set: CC-PVDZ
    Blend: CC-PVDZ
    Number of shells: 9
    Number of basis functions: 19
    Number of Cartesian functions: 20
    Spherical Harmonics?: true
    Max angular momentum: 2

  ==> DFJKGrad: Density-Fitted SCF Gradients <==

    Gradient:                    1
    J tasked:                  Yes
    K tasked:                  Yes
    wK tasked:                  No
    OpenMP threads:              1
    Integrals threads:           1
    Memory [MiB]:              375
    Schwarz Cutoff:          1E-12
    Fitting Condition:       1E-10

   => Auxiliary Basis Set <=

  Basis Set: (CC-PVDZ AUX)
    Blend: CC-PVDZ-JKFIT + DEF2-UNIVERSAL-JKFIT
    Number of shells: 33
    Number of basis functions: 93
    Number of Cartesian functions: 106
    Spherical Harmonics?: true
    Max angular momentum: 3

  ==> DFT Potential <==

   => LibXC <=

    Version 6.2.2
    S. Lehtola, C. Steigemann, M. J.T. Oliveira, and M. A.L. Marques.,  SoftwareX 7, 1â€“5 (2018) (10.1016/j.softx.2017.11.002)

   => Composite Functional: B3LYP <=

    B3LYP Hyb-GGA Exchange-Correlation Functional

    P. J. Stephens, F. J. Devlin, C. F. Chabalowski, and M. J. Frisch.,  J. Phys. Chem. 98, 11623 (1994) (10.1021/j100096a001)

    Deriv               =              1
    GGA                 =           TRUE
    Meta                =          FALSE

    Exchange Hybrid     =           TRUE
    MP2 Hybrid          =          FALSE

   => Exchange Functionals <=

    0.0800   Slater exchange
    0.7200         Becke 88

   => Exact (HF) Exchange <=

    0.2000               HF

   => Correlation Functionals <=

    0.1900   Vosko, Wilk & Nusair (VWN5_RPA)
    0.8100   Lee, Yang & Parr

   => LibXC Density Thresholds  <==

    XC_HYB_GGA_XC_B3LYP:  1.00E-15

   => Molecular Quadrature <=

    Radial Scheme          =       TREUTLER
    Pruning Scheme         =           NONE
    Nuclear Scheme         =       TREUTLER

    Blocking Scheme        =         OCTREE
    BS radius alpha        =              1
    Pruning alpha          =              1
    Radial Points          =             75
    Spherical Points       =            302
    Total Points           =          43725
    Total Blocks           =            443
    Max Points             =            254
    Max Functions          =             19
    Weights Tolerance      =       1.00E-15

  -Total Gradient:
     Atom            X                  Y                   Z
    ------   -----------------  -----------------  -----------------
       1        0.000000000000    -0.000000000000    -0.000163018170
       2        0.000000000000    -0.000000000000     0.000160295604

*** tstop() called on Joses-MacBook-Pro-2.local at Thu Jul 17 12:26:41 2025
Module time:
	user time   =       0.27 seconds =       0.00 minutes
	system time =       0.66 seconds =       0.01 minutes
	total time  =          0 seconds =       0.00 minutes
Total time:
	user time   =      39.04 seconds =       0.65 minutes
	system time =     155.32 seconds =       2.59 minutes
	total time  =         19 seconds =       0.32 minutes

    			-----------------------------------------

    			 OPTKING 3.0: for geometry optimizations

    			     By R.A. King, Bethel University

    			        with contributions from

    			    A.V. Copan, J. Cayton, A. Heide

    			-----------------------------------------

	                            ===> Fragment 1 <==

	 Z (Atomic Numbers)          Masses                          Geom
	       2.000000             4.002603          0.00000000  0.00000000  9.84291739
	       5.000000            11.009305          0.00000000  0.00000000 -3.57854487

	 - Coordinate -           - BOHR/RAD -       - ANG/DEG -
	 R(1,2)           =        13.421462           7.102332

	        --- Internal Coordinate Step in ANG or DEG, aJ/ANG or AJ/DEG ---
	-------------------------------------------------------------------------------
	           Coordinate      Previous         Force          Change          New
	           ----------      --------        ------          ------        ------
	               R(1,2)       7.10233        0.00133        0.00308       7.10542
	-------------------------------------------------------------------------------

	                                 ==> Convergence Check <==

	Measures of convergence in internal coordinates in au.

	Criteria marked as inactive (o), active & met (*), and active & unmet ( ).

	----------------------------------------------------------------------------------------------
	   Step    Total Energy     Delta E     Max Force     RMS Force      Max Disp      RMS Disp
	----------------------------------------------------------------------------------------------
	  Convergence Criteria     1.00e-06 *    3.00e-04 *             o    1.20e-03 *             o
	----------------------------------------------------------------------------------------------
	    41     -26.52014563   -9.51e-07 *    1.62e-04 *    1.62e-04 o    5.83e-03      5.83e-03 o  ~
	----------------------------------------------------------------------------------------------

Next Geometry in Ang
	Fragment 1 (Ang)

	   He   0.0000000000   0.0000000000   5.2101896273
	    B   0.0000000000   0.0000000000  -1.8952264495

    Final optimized geometry and variables:
    Molecular point group: c2v
    Full point group: C_inf_v

    Geometry (in Angstrom), charge = 1, multiplicity = 5:

    HE           0.000000000000     0.000000000000     5.208647567778
    B            0.000000000000     0.000000000000    -1.893684389948

    Psi4 stopped on: Thursday, 17 July 2025 12:26PM
    Psi4 wall time for execution: 0:00:19.71

*** Psi4 exiting successfully. Buy a developer a beer!
