                               Psi4 1.9.1 release

  ==> Input File <==

--------------------------------------------------------------------------
molecule {
1 5
Na   0.00000        0.60000        0.00000
Si   0.00000       -0.60000        0.00000
}

set {
basis              cc-pvdz
reference          uks
maxiter            500
geom_maxiter       500
DAMPING_PERCENTAGE 1
guess              SAP
}

optimize('b3lyp')
--------------------------------------------------------------------------

    Molecular point group: c2v
  Charge       = 1
  Multiplicity = 5
  Basis Set: CC-PVDZ
    Blend: CC-PVDZ
  Basis Set: (CC-PVDZ AUX)
    Blend: CC-PVDZ-JKFIT + DEF2-UNIVERSAL-JKFIT
  @DF-UKS Final Energy:  -450.46324962679319
    Total Energy =                       -450.4632496267931856
 Dipole X            :          0.0000000            0.0000000            0.0000000
 Dipole Y            :          0.0000000            0.0000000            0.0000000
 Dipole Z            :          1.3698186           -0.6278248            0.7419939
 Magnitude           :                                                    0.7419939
    Molecular point group: c2v
  Basis Set: CC-PVDZ
    Blend: CC-PVDZ
  Basis Set: (CC-PVDZ AUX)
    Blend: CC-PVDZ-JKFIT + DEF2-UNIVERSAL-JKFIT
  Basis Set: CC-PVDZ
    Blend: CC-PVDZ
  Basis Set: (CC-PVDZ AUX)
    Blend: CC-PVDZ-JKFIT + DEF2-UNIVERSAL-JKFIT
  @DF-UKS Final Energy:  -450.47210709309377
    Total Energy =                       -450.4721070930937685
  Basis Set: CC-PVDZ
    Blend: CC-PVDZ
  Basis Set: (CC-PVDZ AUX)
    Blend: CC-PVDZ-JKFIT + DEF2-UNIVERSAL-JKFIT
  Basis Set: CC-PVDZ
    Blend: CC-PVDZ
  @DF-UKS Final Energy:  -450.48924820507426
    Total Energy =                       -450.4892482050742615
  @DF-UKS Final Energy:  -450.55188438056905
    Total Energy =                       -450.5518843805690494
  @DF-UKS Final Energy:  -450.84543571104183
    Total Energy =                       -450.8454357110418300
  @DF-UKS Final Energy:  -451.02770437257863
    Total Energy =                       -451.0277043725785688
  @DF-UKS Final Energy:  -451.16442777232999
    Total Energy =                       -451.1644277723299297
  @DF-UKS Final Energy:  -451.24358838157633
    Total Energy =                       -451.2435883815763304
  @DF-UKS Final Energy:  -451.28430738148268
    Total Energy =                       -451.2843073814825630
  @DF-UKS Final Energy:  -451.30540968034131
    Total Energy =                       -451.3054096803413131
  @DF-UKS Final Energy:  -451.31672858149801
    Total Energy =                       -451.3167285814980119
  @DF-UKS Final Energy:  -451.32220659951463
    Total Energy =                       -451.3222065995146295
  @DF-UKS Final Energy:  -451.32444387363415
    Total Energy =                       -451.3244438736341522
  @DF-UKS Final Energy:  -451.32517008552372
    Total Energy =                       -451.3251700855237800
  @DF-UKS Final Energy:  -451.32531927326625
    Total Energy =                       -451.3253192732662455
  Basis Set: (CC-PVDZ AUX)
    Blend: CC-PVDZ-JKFIT + DEF2-UNIVERSAL-JKFIT
  Basis Set: CC-PVDZ
    Blend: CC-PVDZ
  Basis Set: (CC-PVDZ AUX)
    Blend: CC-PVDZ-JKFIT + DEF2-UNIVERSAL-JKFIT
  @DF-UKS Final Energy:  -451.32533153549025
    Total Energy =                       -451.3253315354902497
  Basis Set: CC-PVDZ
    Blend: CC-PVDZ
  Basis Set: (CC-PVDZ AUX)
    Blend: CC-PVDZ-JKFIT + DEF2-UNIVERSAL-JKFIT
  Charge       = 1
  Multiplicity = 5
  Basis Set: CC-PVDZ
    Blend: CC-PVDZ
  Basis Set: (CC-PVDZ AUX)
    Blend: CC-PVDZ-JKFIT + DEF2-UNIVERSAL-JKFIT

    Orbital Energies [Eh]
    ---------------------

    Alpha Occupied:

       1A1   -66.382764     2A1   -38.745047     3A1    -5.526112
       4A1    -3.886583     1B1    -3.885641     1B2    -3.885641
       5A1    -2.483416     6A1    -1.414564     2B1    -1.414558
       2B2    -1.414558     7A1    -0.676764     8A1    -0.406063
       3B1    -0.387060     3B2    -0.387060

    Alpha Virtual:

       9A1    -0.233645     4B1    -0.148698     4B2    -0.148698
      10A1    -0.129991    11A1    -0.080839     5B1    -0.050225
       5B2    -0.050225    12A1    -0.047977     6B2    -0.007043
       6B1    -0.007043    13A1     0.010539     1A2     0.010539
      14A1     0.023349     7B1     0.140124     7B2     0.140124
      15A1     0.146332     2A2     0.146341    16A1     0.154082
      17A1     0.163756     8B2     0.210088     8B1     0.210088
      18A1     0.382063

    Beta Occupied:

       1A1   -66.366674     2A1   -38.744718     3A1    -5.505036
       4A1    -3.864940     1B1    -3.862661     1B2    -3.862661
       5A1    -2.482806     2B2    -1.414233     2B1    -1.414233
       6A1    -1.413912

    Beta Virtual:

       7A1    -0.449463     8A1    -0.263942     3B2    -0.203783
       3B1    -0.203783     9A1    -0.197010     4B2    -0.137432
       4B1    -0.137432    10A1    -0.109328    11A1    -0.061146
       5B2    -0.044812     5B1    -0.044812    12A1    -0.036481
      13A1     0.009450     1A2     0.009452     6B2     0.014711
       6B1     0.014711    14A1     0.055134     7B1     0.224077
       7B2     0.224077    15A1     0.224418    16A1     0.254463
       2A2     0.287980    17A1     0.288101     8B1     0.321299
       8B2     0.321299    18A1     0.464091

    Final Occupation by Irrep:
             A1    A2    B1    B2
    DOCC [     6,    0,    2,    2 ]
    SOCC [     2,    0,    1,    1 ]
    NA   [     8,    0,    3,    3 ]
    NB   [     6,    0,    2,    2 ]

  @DF-UKS Final Energy:  -451.32533236435387

   => Energetics <=

    Nuclear Repulsion Energy =             24.5273949024485169
    One-Electron Energy =                -671.6888306392420418
    Two-Electron Energy =                 224.1449409569835609
    DFT Exchange-Correlation Energy =     -28.3088375845438023
    Empirical Dispersion Energy =           0.0000000000000000
    VV10 Nonlocal Energy =                  0.0000000000000000
    Total Energy =                       -451.3253323643538693

  UHF NO Occupations:
  HONO-2 :    7 A1 1.0000000
  HONO-1 :    3 B2 1.0000000
  HONO-0 :    8 A1 1.0000000
  LUNO+0 :    9 A1 0.0000009
  LUNO+1 :    4 B1 0.0000002
  LUNO+2 :    4 B2 0.0000002
  LUNO+3 :   10 A1 0.0000001

Computation Completed

Properties will be evaluated at   0.000000,   0.000000,   0.000000 [a0]

Properties computed using the SCF density matrix

 Multipole Moments:

 ------------------------------------------------------------------------------------
     Multipole            Electronic (a.u.)      Nuclear  (a.u.)        Total (a.u.)
 ------------------------------------------------------------------------------------

 L = 1.  Multiply by 2.5417464519 to convert [e a0] to [Debye]
 Dipole X            :          0.0000000            0.0000000            0.0000000
 Dipole Y            :          0.0000000            0.0000000            0.0000000
 Dipole Z            :          4.2585158           -1.7383116            2.5202042
 Magnitude           :                                                    2.5202042

 ------------------------------------------------------------------------------------

*** tstop() called on Joses-MacBook-Pro-2.local at Thu Jul 17 14:53:55 2025
Module time:
	user time   =       7.55 seconds =       0.13 minutes
	system time =       2.52 seconds =       0.04 minutes
	total time  =          1 seconds =       0.02 minutes
Total time:
	user time   =     213.91 seconds =       3.57 minutes
	system time =      58.77 seconds =       0.98 minutes
	total time  =         27 seconds =       0.45 minutes

*** tstart() called on Joses-MacBook-Pro-2.local
*** at Thu Jul 17 14:53:55 2025

         ------------------------------------------------------------
                                   SCF GRAD
                          Rob Parrish, Justin Turney,
                       Andy Simmonett, and Alex Sokolov
         ------------------------------------------------------------

  ==> Geometry <==

    Molecular point group: c2v
    Full point group: C_inf_v

    Geometry (in Angstrom), charge = 1, multiplicity = 5:

       Center              X                  Y                   Z               Mass
    ------------   -----------------  -----------------  -----------------  -----------------
         NA           0.000000000000     0.000000000000     1.823828313337    22.989769282000
         SI           0.000000000000     0.000000000000    -1.498713308686    27.976926534650

  Nuclear repulsion =   24.527394902448517

  ==> Basis Set <==

  Basis Set: CC-PVDZ
    Blend: CC-PVDZ
    Number of shells: 16
    Number of basis functions: 36
    Number of Cartesian functions: 38
    Spherical Harmonics?: true
    Max angular momentum: 2

  ==> DFJKGrad: Density-Fitted SCF Gradients <==

    Gradient:                    1
    J tasked:                  Yes
    K tasked:                  Yes
    wK tasked:                  No
    OpenMP threads:              1
    Integrals threads:           1
    Memory [MiB]:              375
    Schwarz Cutoff:          1E-12
    Fitting Condition:       1E-10

   => Auxiliary Basis Set <=

  Basis Set: (CC-PVDZ AUX)
    Blend: CC-PVDZ-JKFIT + DEF2-UNIVERSAL-JKFIT
    Number of shells: 70
    Number of basis functions: 224
    Number of Cartesian functions: 267
    Spherical Harmonics?: true
    Max angular momentum: 4

  ==> DFT Potential <==

   => LibXC <=

    Version 6.2.2
    S. Lehtola, C. Steigemann, M. J.T. Oliveira, and M. A.L. Marques.,  SoftwareX 7, 1â€“5 (2018) (10.1016/j.softx.2017.11.002)

   => Composite Functional: B3LYP <=

    B3LYP Hyb-GGA Exchange-Correlation Functional

    P. J. Stephens, F. J. Devlin, C. F. Chabalowski, and M. J. Frisch.,  J. Phys. Chem. 98, 11623 (1994) (10.1021/j100096a001)

    Deriv               =              1
    GGA                 =           TRUE
    Meta                =          FALSE

    Exchange Hybrid     =           TRUE
    MP2 Hybrid          =          FALSE

   => Exchange Functionals <=

    0.0800   Slater exchange
    0.7200         Becke 88

   => Exact (HF) Exchange <=

    0.2000               HF

   => Correlation Functionals <=

    0.1900   Vosko, Wilk & Nusair (VWN5_RPA)
    0.8100   Lee, Yang & Parr

   => LibXC Density Thresholds  <==

    XC_HYB_GGA_XC_B3LYP:  1.00E-15

   => Molecular Quadrature <=

    Radial Scheme          =       TREUTLER
    Pruning Scheme         =           NONE
    Nuclear Scheme         =       TREUTLER

    Blocking Scheme        =         OCTREE
    BS radius alpha        =              1
    Pruning alpha          =              1
    Radial Points          =             75
    Spherical Points       =            302
    Total Points           =          43872
    Total Blocks           =            452
    Max Points             =            254
    Max Functions          =             36
    Weights Tolerance      =       1.00E-15

  -Total Gradient:
     Atom            X                  Y                   Z
    ------   -----------------  -----------------  -----------------
       1       -0.000000000000     0.000000000000    -0.000015237715
       2        0.000000000000    -0.000000000000     0.000072010847

*** tstop() called on Joses-MacBook-Pro-2.local at Thu Jul 17 14:53:56 2025
Module time:
	user time   =       2.52 seconds =       0.04 minutes
	system time =       1.43 seconds =       0.02 minutes
	total time  =          1 seconds =       0.02 minutes
Total time:
	user time   =     216.43 seconds =       3.61 minutes
	system time =      60.21 seconds =       1.00 minutes
	total time  =         28 seconds =       0.47 minutes

    			-----------------------------------------

    			 OPTKING 3.0: for geometry optimizations

    			     By R.A. King, Bethel University

    			        with contributions from

    			    A.V. Copan, J. Cayton, A. Heide

    			-----------------------------------------

	                            ===> Fragment 1 <==

	 Z (Atomic Numbers)          Masses                          Geom
	      11.000000            22.989769          0.00000000  0.00000000  3.44653601
	      14.000000            27.976927          0.00000000  0.00000000 -2.83215769

	 - Coordinate -           - BOHR/RAD -       - ANG/DEG -
	 R(1,2)           =         6.278694           3.322542

	        --- Internal Coordinate Step in ANG or DEG, aJ/ANG or AJ/DEG ---
	-------------------------------------------------------------------------------
	           Coordinate      Previous         Force          Change          New
	           ----------      --------        ------          ------        ------
	               R(1,2)       3.32254        0.00036        0.00249       3.32503
	-------------------------------------------------------------------------------

	                                 ==> Convergence Check <==

	Measures of convergence in internal coordinates in au.

	Criteria marked as inactive (o), active & met (*), and active & unmet ( ).

	----------------------------------------------------------------------------------------------
	   Step    Total Energy     Delta E     Max Force     RMS Force      Max Disp      RMS Disp
	----------------------------------------------------------------------------------------------
	  Convergence Criteria     1.00e-06 *    3.00e-04 *             o    1.20e-03 *             o
	----------------------------------------------------------------------------------------------
	    17    -451.32533236   -8.29e-07 *    4.36e-05 *    4.36e-05 o    4.71e-03      4.71e-03 o  ~
	----------------------------------------------------------------------------------------------

Next Geometry in Ang
	Fragment 1 (Ang)

	   Na   0.0000000000   0.0000000000   1.8250733859
	   Si   0.0000000000   0.0000000000  -1.4999583813

    Final optimized geometry and variables:
    Molecular point group: c2v
    Full point group: C_inf_v

    Geometry (in Angstrom), charge = 1, multiplicity = 5:

    NA           0.000000000000     0.000000000000     1.823828313337
    SI           0.000000000000     0.000000000000    -1.498713308686

    Psi4 stopped on: Thursday, 17 July 2025 02:53PM
    Psi4 wall time for execution: 0:00:28.21

*** Psi4 exiting successfully. Buy a developer a beer!
