                               Psi4 1.9.1 release

  ==> Input File <==

--------------------------------------------------------------------------
molecule {
1 5
Be   0.00000        0.60000        0.00000
Cl   0.00000       -0.60000        0.00000
}

set {
basis              cc-pvdz
reference          uks
maxiter            500
geom_maxiter       500
DAMPING_PERCENTAGE 1
guess              SAP
}

optimize('b3lyp')
--------------------------------------------------------------------------

    Molecular point group: c2v
  Charge       = 1
  Multiplicity = 5
  Basis Set: CC-PVDZ
    Blend: CC-PVDZ
  Basis Set: (CC-PVDZ AUX)
    Blend: CC-PVDZ-JKFIT + DEF2-UNIVERSAL-JKFIT
  @DF-UKS Final Energy:  -473.58396999510950
    Total Energy =                       -473.5839699951094985
 Dipole X            :          0.0000000            0.0000000            0.0000000
 Dipole Y            :          0.0000000            0.0000000            0.0000000
 Dipole Z            :         -0.6263381           -0.6873853           -1.3137234
 Magnitude           :                                                    1.3137234
    Molecular point group: c2v
  Basis Set: CC-PVDZ
    Blend: CC-PVDZ
  Basis Set: (CC-PVDZ AUX)
    Blend: CC-PVDZ-JKFIT + DEF2-UNIVERSAL-JKFIT
  Basis Set: CC-PVDZ
    Blend: CC-PVDZ
  Basis Set: (CC-PVDZ AUX)
    Blend: CC-PVDZ-JKFIT + DEF2-UNIVERSAL-JKFIT
  @DF-UKS Final Energy:  -473.80504343984501
    Total Energy =                       -473.8050434398450079
  Basis Set: CC-PVDZ
    Blend: CC-PVDZ
  Basis Set: (CC-PVDZ AUX)
    Blend: CC-PVDZ-JKFIT + DEF2-UNIVERSAL-JKFIT
  Basis Set: CC-PVDZ
    Blend: CC-PVDZ
  @DF-UKS Final Energy:  -473.95436703068862
    Total Energy =                       -473.9543670306886156
  @DF-UKS Final Energy:  -474.04922435452107
    Total Energy =                       -474.0492243545210158
  @DF-UKS Final Energy:  -474.11817859150688
    Total Energy =                       -474.1181785915068190
  @DF-UKS Final Energy:  -474.17494966880508
    Total Energy =                       -474.1749496688050840
  @DF-UKS Final Energy:  -474.18773707149404
    Total Energy =                       -474.1877370714940412
  @DF-UKS Final Energy:  -474.22538472959332
    Total Energy =                       -474.2253847295933156
  @DF-UKS Final Energy:  -474.22929900506932
    Total Energy =                       -474.2292990050692651
  @DF-UKS Final Energy:  -474.24506509881968
    Total Energy =                       -474.2450650988197367
  @DF-UKS Final Energy:  -474.24608158331000
    Total Energy =                       -474.2460815833100014
  @DF-UKS Final Energy:  -474.25296504206523
    Total Energy =                       -474.2529650420651706
  @DF-UKS Final Energy:  -474.25321643183059
    Total Energy =                       -474.2532164318305945
  @DF-UKS Final Energy:  -474.25626666989342
    Total Energy =                       -474.2562666698934208
  @DF-UKS Final Energy:  -474.25632652948894
    Total Energy =                       -474.2563265294889447
  @DF-UKS Final Energy:  -474.25766818906555
    Total Energy =                       -474.2576681890655550
  @DF-UKS Final Energy:  -474.25816358999867
    Total Energy =                       -474.2581635899986168
  @DF-UKS Final Energy:  -474.25843718011731
    Total Energy =                       -474.2584371801172551
  @DF-UKS Final Energy:  -474.25857687221065
    Total Energy =                       -474.2585768722105968
  @DF-UKS Final Energy:  -474.25865524600943
    Total Energy =                       -474.2586552460094254
  Basis Set: (CC-PVDZ AUX)
    Blend: CC-PVDZ-JKFIT + DEF2-UNIVERSAL-JKFIT
  Basis Set: CC-PVDZ
    Blend: CC-PVDZ
  Basis Set: (CC-PVDZ AUX)
    Blend: CC-PVDZ-JKFIT + DEF2-UNIVERSAL-JKFIT
  @DF-UKS Final Energy:  -474.25870705772525
    Total Energy =                       -474.2587070577251893
  Basis Set: CC-PVDZ
    Blend: CC-PVDZ
  Basis Set: (CC-PVDZ AUX)
    Blend: CC-PVDZ-JKFIT + DEF2-UNIVERSAL-JKFIT
  Charge       = 1
  Multiplicity = 5
  Basis Set: CC-PVDZ
    Blend: CC-PVDZ
  Basis Set: (CC-PVDZ AUX)
    Blend: CC-PVDZ-JKFIT + DEF2-UNIVERSAL-JKFIT

    Orbital Energies [Eh]
    ---------------------

    Alpha Occupied:

       1A1  -102.078765     2A1    -9.984624     1B1    -7.754043
       3A1    -7.754042     1B2    -7.727560     4A1    -4.220157
       5A1    -1.291620     6A1    -0.814049     2B1    -0.814041
       2B2    -0.754764     7A1    -0.375163     3B2    -0.241371

    Alpha Virtual:

       8A1    -0.176429     3B1    -0.168401     9A1     0.036257
       4B2     0.064953     4B1     0.083901    10A1     0.092131
       5B1     0.163530    11A1     0.181787     5B2     0.193693
      12A1     0.213310     6B1     0.213928    13A1     0.231062
       1A2     0.259255     6B2     0.259333    14A1     0.277059
       7B2     0.335808     2A2     0.339305    15A1     0.343948
       7B1     0.354501    16A1     0.354959

    Beta Occupied:

       1A1  -102.063570     2A1    -9.969728     1B1    -7.724932
       3A1    -7.724926     1B2    -7.718671     4A1    -4.201647
       5A1    -1.178935     2B2    -0.720349

    Beta Virtual:

       6A1    -0.622388     2B1    -0.622284     7A1    -0.222719
       8A1    -0.114191     3B1    -0.104831     3B2    -0.075229
       9A1     0.077042     4B1     0.110247    10A1     0.131442
       4B2     0.135619     5B2     0.206402     5B1     0.210692
      11A1     0.227341    12A1     0.269808     1A2     0.327776
       6B2     0.327857    13A1     0.331891     6B1     0.341898
      14A1     0.343187    15A1     0.420864     7B1     0.421095
       7B2     0.449887     2A2     0.452594    16A1     0.458951

    Final Occupation by Irrep:
             A1    A2    B1    B2
    DOCC [     5,    0,    1,    2 ]
    SOCC [     2,    0,    1,    1 ]
    NA   [     7,    0,    2,    3 ]
    NB   [     5,    0,    1,    2 ]

  @DF-UKS Final Energy:  -474.25875514833740

   => Energetics <=

    Nuclear Repulsion Energy =              7.1006815498340341
    One-Electron Energy =                -660.0316776711204056
    Two-Electron Energy =                 203.3599425205435693
    DFT Exchange-Correlation Energy =     -24.6877015475945498
    Empirical Dispersion Energy =           0.0000000000000000
    VV10 Nonlocal Energy =                  0.0000000000000000
    Total Energy =                       -474.2587551483374000

  UHF NO Occupations:
  HONO-2 :    2 B1 1.0000000
  HONO-1 :    3 B2 1.0000000
  HONO-0 :    7 A1 1.0000000
  LUNO+0 :    8 A1 0.0009950
  LUNO+1 :    4 B2 0.0001031
  LUNO+2 :    9 A1 0.0000007
  LUNO+3 :   10 A1 0.0000000

Computation Completed

Properties will be evaluated at   0.000000,   0.000000,   0.000000 [a0]

Properties computed using the SCF density matrix

 Multipole Moments:

 ------------------------------------------------------------------------------------
     Multipole            Electronic (a.u.)      Nuclear  (a.u.)        Total (a.u.)
 ------------------------------------------------------------------------------------

 L = 1.  Multiply by 2.5417464519 to convert [e a0] to [Debye]
 Dipole X            :          0.0000000            0.0000000            0.0000000
 Dipole Y            :          0.0000000            0.0000000            0.0000000
 Dipole Z            :          1.2711453           -2.9028795           -1.6317342
 Magnitude           :                                                    1.6317342

 ------------------------------------------------------------------------------------

*** tstop() called on Joses-MacBook-Pro-2.local at Thu Jul 17 13:28:38 2025
Module time:
	user time   =       1.78 seconds =       0.03 minutes
	system time =       4.69 seconds =       0.08 minutes
	total time  =          1 seconds =       0.02 minutes
Total time:
	user time   =      89.83 seconds =       1.50 minutes
	system time =     154.02 seconds =       2.57 minutes
	total time  =         25 seconds =       0.42 minutes

*** tstart() called on Joses-MacBook-Pro-2.local
*** at Thu Jul 17 13:28:38 2025

         ------------------------------------------------------------
                                   SCF GRAD
                          Rob Parrish, Justin Turney,
                       Andy Simmonett, and Alex Sokolov
         ------------------------------------------------------------

  ==> Geometry <==

    Molecular point group: c2v
    Full point group: C_inf_v

    Geometry (in Angstrom), charge = 1, multiplicity = 5:

       Center              X                  Y                   Z               Mass
    ------------   -----------------  -----------------  -----------------  -----------------
         BE           0.000000000000     0.000000000000     4.029266010728     9.012183065000
         CL           0.000000000000     0.000000000000    -1.038423629064    34.968852682000

  Nuclear repulsion =    7.100681549834034

  ==> Basis Set <==

  Basis Set: CC-PVDZ
    Blend: CC-PVDZ
    Number of shells: 14
    Number of basis functions: 32
    Number of Cartesian functions: 34
    Spherical Harmonics?: true
    Max angular momentum: 2

  ==> DFJKGrad: Density-Fitted SCF Gradients <==

    Gradient:                    1
    J tasked:                  Yes
    K tasked:                  Yes
    wK tasked:                  No
    OpenMP threads:              1
    Integrals threads:           1
    Memory [MiB]:              375
    Schwarz Cutoff:          1E-12
    Fitting Condition:       1E-10

   => Auxiliary Basis Set <=

  Basis Set: (CC-PVDZ AUX)
    Blend: CC-PVDZ-JKFIT + DEF2-UNIVERSAL-JKFIT
    Number of shells: 53
    Number of basis functions: 163
    Number of Cartesian functions: 190
    Spherical Harmonics?: true
    Max angular momentum: 3

  ==> DFT Potential <==

   => LibXC <=

    Version 6.2.2
    S. Lehtola, C. Steigemann, M. J.T. Oliveira, and M. A.L. Marques.,  SoftwareX 7, 1â€“5 (2018) (10.1016/j.softx.2017.11.002)

   => Composite Functional: B3LYP <=

    B3LYP Hyb-GGA Exchange-Correlation Functional

    P. J. Stephens, F. J. Devlin, C. F. Chabalowski, and M. J. Frisch.,  J. Phys. Chem. 98, 11623 (1994) (10.1021/j100096a001)

    Deriv               =              1
    GGA                 =           TRUE
    Meta                =          FALSE

    Exchange Hybrid     =           TRUE
    MP2 Hybrid          =          FALSE

   => Exchange Functionals <=

    0.0800   Slater exchange
    0.7200         Becke 88

   => Exact (HF) Exchange <=

    0.2000               HF

   => Correlation Functionals <=

    0.1900   Vosko, Wilk & Nusair (VWN5_RPA)
    0.8100   Lee, Yang & Parr

   => LibXC Density Thresholds  <==

    XC_HYB_GGA_XC_B3LYP:  1.00E-15

   => Molecular Quadrature <=

    Radial Scheme          =       TREUTLER
    Pruning Scheme         =           NONE
    Nuclear Scheme         =       TREUTLER

    Blocking Scheme        =         OCTREE
    BS radius alpha        =              1
    Pruning alpha          =              1
    Radial Points          =             75
    Spherical Points       =            302
    Total Points           =          42936
    Total Blocks           =            447
    Max Points             =            255
    Max Functions          =             32
    Weights Tolerance      =       1.00E-15

  -Total Gradient:
     Atom            X                  Y                   Z
    ------   -----------------  -----------------  -----------------
       1        0.000000000000    -0.000000000000    -0.000080962714
       2        0.000000000000     0.000000000000     0.000079456582

*** tstop() called on Joses-MacBook-Pro-2.local at Thu Jul 17 13:28:38 2025
Module time:
	user time   =       0.54 seconds =       0.01 minutes
	system time =       1.67 seconds =       0.03 minutes
	total time  =          0 seconds =       0.00 minutes
Total time:
	user time   =      90.37 seconds =       1.51 minutes
	system time =     155.70 seconds =       2.60 minutes
	total time  =         25 seconds =       0.42 minutes

    			-----------------------------------------

    			 OPTKING 3.0: for geometry optimizations

    			     By R.A. King, Bethel University

    			        with contributions from

    			    A.V. Copan, J. Cayton, A. Heide

    			-----------------------------------------

	                            ===> Fragment 1 <==

	 Z (Atomic Numbers)          Masses                          Geom
	       4.000000             9.012183          0.00000000  0.00000000  7.61420925
	      17.000000            34.968853          0.00000000  0.00000000 -1.96233626

	 - Coordinate -           - BOHR/RAD -       - ANG/DEG -
	 R(1,2)           =         9.576546           5.067690

	        --- Internal Coordinate Step in ANG or DEG, aJ/ANG or AJ/DEG ---
	-------------------------------------------------------------------------------
	           Coordinate      Previous         Force          Change          New
	           ----------      --------        ------          ------        ------
	               R(1,2)       5.06769        0.00066        0.00028       5.06797
	-------------------------------------------------------------------------------

	                                 ==> Convergence Check <==

	Measures of convergence in internal coordinates in au.

	Criteria marked as inactive (o), active & met (*), and active & unmet ( ).

	----------------------------------------------------------------------------------------------
	   Step    Total Energy     Delta E     Max Force     RMS Force      Max Disp      RMS Disp
	----------------------------------------------------------------------------------------------
	  Convergence Criteria     1.00e-06 *    3.00e-04 *             o    1.20e-03 *             o
	----------------------------------------------------------------------------------------------
	    22    -474.25875515   -4.81e-05      8.02e-05 *    8.02e-05 o    5.21e-04 *    5.21e-04 o  ~
	----------------------------------------------------------------------------------------------

Next Geometry in Ang
	Fragment 1 (Ang)

	   Be   0.0000000000   0.0000000000   4.0294038861
	   Cl   0.0000000000   0.0000000000  -1.0385615045

    Final optimized geometry and variables:
    Molecular point group: c2v
    Full point group: C_inf_v

    Geometry (in Angstrom), charge = 1, multiplicity = 5:

    BE           0.000000000000     0.000000000000     4.029266010728
    CL           0.000000000000     0.000000000000    -1.038423629064

    Psi4 stopped on: Thursday, 17 July 2025 01:28PM
    Psi4 wall time for execution: 0:00:26.26

*** Psi4 exiting successfully. Buy a developer a beer!
