                               Psi4 1.9.1 release

  ==> Input File <==

--------------------------------------------------------------------------
molecule {
1 5
F   0.00000        0.60000        0.00000
S   0.00000       -0.60000        0.00000
}

set {
basis              cc-pvdz
reference          uks
maxiter            500
geom_maxiter       500
DAMPING_PERCENTAGE 1
guess              SAP
}

optimize('b3lyp')
--------------------------------------------------------------------------

    Molecular point group: c2v
  Charge       = 1
  Multiplicity = 5
  Basis Set: CC-PVDZ
    Blend: CC-PVDZ
  Basis Set: (CC-PVDZ AUX)
    Blend: CC-PVDZ-JKFIT
  @DF-UKS Final Energy:  -496.92766577359765
    Total Energy =                       -496.9276657735976528
 Dipole X            :          0.0000000            0.0000000            0.0000000
 Dipole Y            :          0.0000000            0.0000000            0.0000000
 Dipole Z            :          0.3339935           -0.7218847           -0.3878911
 Magnitude           :                                                    0.3878911
    Molecular point group: c2v
  Basis Set: CC-PVDZ
    Blend: CC-PVDZ
  Basis Set: (CC-PVDZ AUX)
    Blend: CC-PVDZ-JKFIT
  Basis Set: CC-PVDZ
    Blend: CC-PVDZ
  Basis Set: (CC-PVDZ AUX)
    Blend: CC-PVDZ-JKFIT
  @DF-UKS Final Energy:  -497.09889053562853
    Total Energy =                       -497.0988905356285272
  Basis Set: CC-PVDZ
    Blend: CC-PVDZ
  Basis Set: (CC-PVDZ AUX)
    Blend: CC-PVDZ-JKFIT
  Basis Set: CC-PVDZ
    Blend: CC-PVDZ
  @DF-UKS Final Energy:  -497.21609940505334
    Total Energy =                       -497.2160994050533418
  @DF-UKS Final Energy:  -497.29491793430981
    Total Energy =                       -497.2949179343098081
  @DF-UKS Final Energy:  -497.38630424132947
    Total Energy =                       -497.3863042413295261
  @DF-UKS Final Energy:  -497.42831927473065
    Total Energy =                       -497.4283192747307112
  @DF-UKS Final Energy:  -497.44709182585166
    Total Energy =                       -497.4470918258516576
  @DF-UKS Final Energy:  -497.45617105123762
    Total Energy =                       -497.4561710512376180
  @DF-UKS Final Energy:  -497.46060394019901
    Total Energy =                       -497.4606039401990074
  @DF-UKS Final Energy:  -497.46276542535520
    Total Energy =                       -497.4627654253552009
  @DF-UKS Final Energy:  -497.46380976065205
    Total Energy =                       -497.4638097606520546
  @DF-UKS Final Energy:  -497.46431977878888
    Total Energy =                       -497.4643197787888766
  @DF-UKS Final Energy:  -497.46459099901460
    Total Energy =                       -497.4645909990146606
  @DF-UKS Final Energy:  -497.46476908478706
    Total Energy =                       -497.4647690847870649
  @DF-UKS Final Energy:  -497.46494667454334
    Total Energy =                       -497.4649466745433415
  @DF-UKS Final Energy:  -497.46522405778154
    Total Energy =                       -497.4652240577815405
  @DF-UKS Final Energy:  -497.46522476402964
    Total Energy =                       -497.4652247640296423
  @DF-UKS Final Energy:  -497.46522544576794
    Total Energy =                       -497.4652254457679987
  @DF-UKS Final Energy:  -497.46522612416311
    Total Energy =                       -497.4652261241631095
  @DF-UKS Final Energy:  -497.46522680361863
    Total Energy =                       -497.4652268036186342
  @DF-UKS Final Energy:  -497.46676268400296
    Total Energy =                       -497.4667626840029584
  @DF-UKS Final Energy:  -497.46676373788239
    Total Energy =                       -497.4667637378823883
  @DF-UKS Final Energy:  -497.46676479448917
    Total Energy =                       -497.4667647944891655
  @DF-UKS Final Energy:  -497.46676585081298
    Total Energy =                       -497.4667658508129193
  @DF-UKS Final Energy:  -497.46676690680829
    Total Energy =                       -497.4667669068082887
  @DF-UKS Final Energy:  -497.46676796281798
    Total Energy =                       -497.4667679628180395
  @DF-UKS Final Energy:  -497.46676901827124
    Total Energy =                       -497.4667690182712363
  @DF-UKS Final Energy:  -497.46677007386859
    Total Energy =                       -497.4667700738685312
  @DF-UKS Final Energy:  -497.46677112880172
    Total Energy =                       -497.4667711288017244
  @DF-UKS Final Energy:  -497.46677218393665
    Total Energy =                       -497.4667721839367118
  @DF-UKS Final Energy:  -497.46677323838452
    Total Energy =                       -497.4667732383845760
  @DF-UKS Final Energy:  -497.46677429303571
    Total Energy =                       -497.4667742930357122
  @DF-UKS Final Energy:  -497.46677534699307
    Total Energy =                       -497.4667753469930744
  @DF-UKS Final Energy:  -497.46677640116701
    Total Energy =                       -497.4667764011670101
  @DF-UKS Final Energy:  -497.46677745464041
    Total Energy =                       -497.4667774546404075
  @DF-UKS Final Energy:  -497.46677850833231
    Total Energy =                       -497.4667785083323679
  @DF-UKS Final Energy:  -497.46677956133777
    Total Energy =                       -497.4667795613377734
  @DF-UKS Final Energy:  -497.46678061453264
    Total Energy =                       -497.4667806145326381
  Basis Set: (CC-PVDZ AUX)
    Blend: CC-PVDZ-JKFIT
  Basis Set: CC-PVDZ
    Blend: CC-PVDZ
  Basis Set: (CC-PVDZ AUX)
    Blend: CC-PVDZ-JKFIT
  @DF-UKS Final Energy:  -497.46707618651845
    Total Energy =                       -497.4670761865184545
  Basis Set: CC-PVDZ
    Blend: CC-PVDZ
  Basis Set: (CC-PVDZ AUX)
    Blend: CC-PVDZ-JKFIT
  Charge       = 1
  Multiplicity = 5
  Basis Set: CC-PVDZ
    Blend: CC-PVDZ
  Basis Set: (CC-PVDZ AUX)
    Blend: CC-PVDZ-JKFIT

    Orbital Energies [Eh]
    ---------------------

    Alpha Occupied:

       1A1   -89.353723     2A1   -24.894695     3A1    -8.405967
       4A1    -6.371068     1B2    -6.370495     1B1    -6.370495
       5A1    -1.320890     6A1    -1.111332     7A1    -0.684529
       2B2    -0.683123     2B1    -0.683123     8A1    -0.646442
       3B1    -0.558828     3B2    -0.558828

    Alpha Virtual:

       9A1     0.126799    10A1     0.154961     4B2     0.155807
       4B1     0.155807    11A1     0.167077     5B2     0.167433
       5B1     0.167433     1A2     0.168495    12A1     0.168496
      13A1     0.933691     6B1     0.988234     6B2     0.988234
      14A1     1.319476    15A1     3.330488     7B1     3.351975
       7B2     3.351976     2A2     3.419851    16A1     3.419852

    Beta Occupied:

       1A1   -89.335391     2A1   -24.862210     3A1    -8.387470
       4A1    -6.343160     1B2    -6.343023     1B1    -6.343023
       5A1    -1.225185     6A1    -0.967446     2B2    -0.519258
       2B1    -0.519258

    Beta Virtual:

       3B1    -0.503912     3B2    -0.503912     7A1    -0.501797
       8A1    -0.349112     9A1     0.174663     4B2     0.204462
       4B1     0.204462    10A1     0.204651     1A2     0.283552
      11A1     0.283553     5B2     0.284033     5B1     0.284033
      12A1     0.284206     6B2     1.009282     6B1     1.009282
      13A1     1.045761    14A1     1.368976     2A2     3.439861
      15A1     3.439862     7B1     3.450379     7B2     3.450379
      16A1     3.469391

    Final Occupation by Irrep:
             A1    A2    B1    B2
    DOCC [     6,    0,    2,    2 ]
    SOCC [     2,    0,    1,    1 ]
    NA   [     8,    0,    3,    3 ]
    NB   [     6,    0,    2,    2 ]

  @DF-UKS Final Energy:  -497.46707714739614

   => Energetics <=

    Nuclear Repulsion Energy =             11.1290925401968561
    One-Electron Energy =                -703.8097672056082956
    Two-Electron Energy =                 223.9948198723638768
    DFT Exchange-Correlation Energy =     -28.7812223543486709
    Empirical Dispersion Energy =           0.0000000000000000
    VV10 Nonlocal Energy =                  0.0000000000000000
    Total Energy =                       -497.4670771473961395

  UHF NO Occupations:
  HONO-2 :    3 B2 1.0000000
  HONO-1 :    7 A1 1.0000000
  HONO-0 :    8 A1 1.0000000
  LUNO+0 :    9 A1 0.0003067
  LUNO+1 :   10 A1 0.0001826
  LUNO+2 :    4 B1 0.0001389
  LUNO+3 :    4 B2 0.0001389

Computation Completed

Properties will be evaluated at   0.000000,   0.000000,   0.000000 [a0]

Properties computed using the SCF density matrix

 Multipole Moments:

 ------------------------------------------------------------------------------------
     Multipole            Electronic (a.u.)      Nuclear  (a.u.)        Total (a.u.)
 ------------------------------------------------------------------------------------

 L = 1.  Multiply by 2.5417464519 to convert [e a0] to [Debye]
 Dipole X            :          0.0000000            0.0000000            0.0000000
 Dipole Y            :          0.0000000            0.0000000            0.0000000
 Dipole Z            :         -0.0110050           -4.1189873           -4.1299923
 Magnitude           :                                                    4.1299923

 ------------------------------------------------------------------------------------

*** tstop() called on Joses-MacBook-Pro-2.local at Thu Jul 17 14:31:57 2025
Module time:
	user time   =       1.70 seconds =       0.03 minutes
	system time =       3.18 seconds =       0.05 minutes
	total time  =          0 seconds =       0.00 minutes
Total time:
	user time   =     551.53 seconds =       9.19 minutes
	system time =     695.53 seconds =      11.59 minutes
	total time  =        117 seconds =       1.95 minutes

*** tstart() called on Joses-MacBook-Pro-2.local
*** at Thu Jul 17 14:31:57 2025

         ------------------------------------------------------------
                                   SCF GRAD
                          Rob Parrish, Justin Turney,
                       Andy Simmonett, and Alex Sokolov
         ------------------------------------------------------------

  ==> Geometry <==

    Molecular point group: c2v
    Full point group: C_inf_v

    Geometry (in Angstrom), charge = 1, multiplicity = 5:

       Center              X                  Y                   Z               Mass
    ------------   -----------------  -----------------  -----------------  -----------------
         F            0.000000000000     0.000000000000     4.294928784958    18.998403162730
         S            0.000000000000     0.000000000000    -2.552127078873    31.972071174400

  Nuclear repulsion =   11.129092540196856

  ==> Basis Set <==

  Basis Set: CC-PVDZ
    Blend: CC-PVDZ
    Number of shells: 14
    Number of basis functions: 32
    Number of Cartesian functions: 34
    Spherical Harmonics?: true
    Max angular momentum: 2

  ==> DFJKGrad: Density-Fitted SCF Gradients <==

    Gradient:                    1
    J tasked:                  Yes
    K tasked:                  Yes
    wK tasked:                  No
    OpenMP threads:              1
    Integrals threads:           1
    Memory [MiB]:              375
    Schwarz Cutoff:          1E-12
    Fitting Condition:       1E-10

   => Auxiliary Basis Set <=

  Basis Set: (CC-PVDZ AUX)
    Blend: CC-PVDZ-JKFIT
    Number of shells: 60
    Number of basis functions: 182
    Number of Cartesian functions: 211
    Spherical Harmonics?: true
    Max angular momentum: 3

  ==> DFT Potential <==

   => LibXC <=

    Version 6.2.2
    S. Lehtola, C. Steigemann, M. J.T. Oliveira, and M. A.L. Marques.,  SoftwareX 7, 1â€“5 (2018) (10.1016/j.softx.2017.11.002)

   => Composite Functional: B3LYP <=

    B3LYP Hyb-GGA Exchange-Correlation Functional

    P. J. Stephens, F. J. Devlin, C. F. Chabalowski, and M. J. Frisch.,  J. Phys. Chem. 98, 11623 (1994) (10.1021/j100096a001)

    Deriv               =              1
    GGA                 =           TRUE
    Meta                =          FALSE

    Exchange Hybrid     =           TRUE
    MP2 Hybrid          =          FALSE

   => Exchange Functionals <=

    0.0800   Slater exchange
    0.7200         Becke 88

   => Exact (HF) Exchange <=

    0.2000               HF

   => Correlation Functionals <=

    0.1900   Vosko, Wilk & Nusair (VWN5_RPA)
    0.8100   Lee, Yang & Parr

   => LibXC Density Thresholds  <==

    XC_HYB_GGA_XC_B3LYP:  1.00E-15

   => Molecular Quadrature <=

    Radial Scheme          =       TREUTLER
    Pruning Scheme         =           NONE
    Nuclear Scheme         =       TREUTLER

    Blocking Scheme        =         OCTREE
    BS radius alpha        =              1
    Pruning alpha          =              1
    Radial Points          =             75
    Spherical Points       =            302
    Total Points           =          42372
    Total Blocks           =            433
    Max Points             =            256
    Max Functions          =             31
    Weights Tolerance      =       1.00E-15

  -Total Gradient:
     Atom            X                  Y                   Z
    ------   -----------------  -----------------  -----------------
       1        0.000000000000     0.000000000000    -0.000304191277
       2        0.000000000000    -0.000000000000     0.000295511488

*** tstop() called on Joses-MacBook-Pro-2.local at Thu Jul 17 14:31:57 2025
Module time:
	user time   =       0.84 seconds =       0.01 minutes
	system time =       1.13 seconds =       0.02 minutes
	total time  =          0 seconds =       0.00 minutes
Total time:
	user time   =     552.37 seconds =       9.21 minutes
	system time =     696.66 seconds =      11.61 minutes
	total time  =        117 seconds =       1.95 minutes

    			-----------------------------------------

    			 OPTKING 3.0: for geometry optimizations

    			     By R.A. King, Bethel University

    			        with contributions from

    			    A.V. Copan, J. Cayton, A. Heide

    			-----------------------------------------

	                            ===> Fragment 1 <==

	 Z (Atomic Numbers)          Masses                          Geom
	       9.000000            18.998403          0.00000000  0.00000000  8.11623913
	      16.000000            31.972071          0.00000000  0.00000000 -4.82282122

	 - Coordinate -           - BOHR/RAD -       - ANG/DEG -
	 R(1,2)           =        12.939060           6.847056

	        --- Internal Coordinate Step in ANG or DEG, aJ/ANG or AJ/DEG ---
	-------------------------------------------------------------------------------
	           Coordinate      Previous         Force          Change          New
	           ----------      --------        ------          ------        ------
	               R(1,2)       6.84706        0.00247        0.00171       6.84876
	-------------------------------------------------------------------------------

	                                 ==> Convergence Check <==

	Measures of convergence in internal coordinates in au.

	Criteria marked as inactive (o), active & met (*), and active & unmet ( ).

	----------------------------------------------------------------------------------------------
	   Step    Total Energy     Delta E     Max Force     RMS Force      Max Disp      RMS Disp
	----------------------------------------------------------------------------------------------
	  Convergence Criteria     1.00e-06 *    3.00e-04 *             o    1.20e-03 *             o
	----------------------------------------------------------------------------------------------
	   168    -497.46707715   -9.61e-07 *    3.00e-04 *    3.00e-04 o    3.22e-03      3.22e-03 o  ~
	----------------------------------------------------------------------------------------------

Next Geometry in Ang
	Fragment 1 (Ang)

	    F   0.0000000000   0.0000000000   4.2957814229
	    S   0.0000000000   0.0000000000  -2.5529797168

    Final optimized geometry and variables:
    Molecular point group: c2v
    Full point group: C_inf_v

    Geometry (in Angstrom), charge = 1, multiplicity = 5:

    F            0.000000000000     0.000000000000     4.294928784958
    S            0.000000000000     0.000000000000    -2.552127078873

    Psi4 stopped on: Thursday, 17 July 2025 02:31PM
    Psi4 wall time for execution: 0:01:58.48

*** Psi4 exiting successfully. Buy a developer a beer!
