                               Psi4 1.9.1 release

  ==> Input File <==

--------------------------------------------------------------------------
molecule {
1 5
Ne   0.00000        0.60000        0.00000
P   0.00000       -0.60000        0.00000
}

set {
basis              cc-pvdz
reference          uks
maxiter            500
geom_maxiter       500
DAMPING_PERCENTAGE 1
guess              SAP
}

optimize('b3lyp')
--------------------------------------------------------------------------

    Molecular point group: c2v
  Charge       = 1
  Multiplicity = 5
  Basis Set: CC-PVDZ
    Blend: CC-PVDZ
  Basis Set: (CC-PVDZ AUX)
    Blend: CC-PVDZ-JKFIT
  @DF-UKS Final Energy:  -469.01286551829173
    Total Energy =                       -469.0128655182917328
 Dipole X            :          0.0000000            0.0000000            0.0000000
 Dipole Y            :          0.0000000            0.0000000            0.0000000
 Dipole Z            :         -0.1377284            0.4383075            0.3005791
 Magnitude           :                                                    0.3005791
    Molecular point group: c2v
  Basis Set: CC-PVDZ
    Blend: CC-PVDZ
  Basis Set: (CC-PVDZ AUX)
    Blend: CC-PVDZ-JKFIT
  Basis Set: CC-PVDZ
    Blend: CC-PVDZ
  Basis Set: (CC-PVDZ AUX)
    Blend: CC-PVDZ-JKFIT
  @DF-UKS Final Energy:  -469.25593042940301
    Total Energy =                       -469.2559304294030085
  Basis Set: CC-PVDZ
    Blend: CC-PVDZ
  Basis Set: (CC-PVDZ AUX)
    Blend: CC-PVDZ-JKFIT
  Basis Set: CC-PVDZ
    Blend: CC-PVDZ
  @DF-UKS Final Energy:  -469.40716533835064
    Total Energy =                       -469.4071653383506941
  @DF-UKS Final Energy:  -469.50163031128687
    Total Energy =                       -469.5016303112868741
  @DF-UKS Final Energy:  -469.55433729873454
    Total Energy =                       -469.5543372987344810
  @DF-UKS Final Energy:  -469.57856425591444
    Total Energy =                       -469.5785642559143866
  @DF-UKS Final Energy:  -469.58941362973320
    Total Energy =                       -469.5894136297332011
  @DF-UKS Final Energy:  -469.59389766448805
    Total Energy =                       -469.5938976644880540
  @DF-UKS Final Energy:  -469.59550210847169
    Total Energy =                       -469.5955021084716918
  @DF-UKS Final Energy:  -469.59586867132970
    Total Energy =                       -469.5958686713296970
  @DF-UKS Final Energy:  -469.59598987844117
    Total Energy =                       -469.5959898784411735
  @DF-UKS Final Energy:  -469.59600919706872
    Total Energy =                       -469.5960091970687813
  Basis Set: (CC-PVDZ AUX)
    Blend: CC-PVDZ-JKFIT
  Basis Set: CC-PVDZ
    Blend: CC-PVDZ
  Basis Set: (CC-PVDZ AUX)
    Blend: CC-PVDZ-JKFIT
  @DF-UKS Final Energy:  -469.59601248338646
    Total Energy =                       -469.5960124833864597
  Basis Set: CC-PVDZ
    Blend: CC-PVDZ
  Basis Set: (CC-PVDZ AUX)
    Blend: CC-PVDZ-JKFIT
  Charge       = 1
  Multiplicity = 5
  Basis Set: CC-PVDZ
    Blend: CC-PVDZ
  Basis Set: (CC-PVDZ AUX)
    Blend: CC-PVDZ-JKFIT

    Orbital Energies [Eh]
    ---------------------

    Alpha Occupied:

       1A1   -77.526035     2A1   -31.273356     3A1    -6.989451
       1B1    -5.153752     1B2    -5.153752     4A1    -5.153440
       5A1    -1.725159     6A1    -0.964274     7A1    -0.846673
       2B1    -0.823392     2B2    -0.823392     3B1    -0.595659
       3B2    -0.595659     8A1    -0.586750

    Alpha Virtual:

       9A1     0.052673    10A1     0.079953     4B2     0.086451
       4B1     0.086451    11A1     0.087968     1A2     0.087968
       5B1     0.114829     5B2     0.114829    12A1     0.145288
       6B2     1.112315     6B1     1.112315    13A1     1.191016
      14A1     1.699650    15A1     4.425167     7B2     4.426882
       7B1     4.426882     2A2     4.442146    16A1     4.442238

    Beta Occupied:

       1A1   -77.503177     2A1   -31.266458     3A1    -6.961767
       1B1    -5.122249     1B2    -5.122249     4A1    -5.121801
       5A1    -1.708718     2B1    -0.816724     2B2    -0.816724
       6A1    -0.814462

    Beta Virtual:

       7A1    -0.697275     3B1    -0.385562     3B2    -0.385562
       8A1    -0.379920     9A1     0.115353     4B1     0.179968
       4B2     0.179968    10A1     0.190197    11A1     0.232335
       5B2     0.233048     5B1     0.233048     1A2     0.237042
      12A1     0.237042     6B2     1.115833     6B1     1.115833
      13A1     1.210863    14A1     1.712515     7B2     4.444934
       7B1     4.444934     2A2     4.445897    15A1     4.445985
      16A1     4.448106

    Final Occupation by Irrep:
             A1    A2    B1    B2
    DOCC [     6,    0,    2,    2 ]
    SOCC [     2,    0,    1,    1 ]
    NA   [     8,    0,    3,    3 ]
    NB   [     6,    0,    2,    2 ]

  @DF-UKS Final Energy:  -469.59601307465465

   => Energetics <=

    Nuclear Repulsion Energy =             31.2657986725247454
    One-Electron Energy =                -707.9075056408014461
    Two-Electron Energy =                 235.5865450291902619
    DFT Exchange-Correlation Energy =     -28.5408511355681540
    Empirical Dispersion Energy =           0.0000000000000000
    VV10 Nonlocal Energy =                  0.0000000000000000
    Total Energy =                       -469.5960130746546497

  UHF NO Occupations:
  HONO-2 :    3 B2 1.0000000
  HONO-1 :    3 B1 1.0000000
  HONO-0 :    8 A1 1.0000000
  LUNO+0 :    9 A1 0.0003310
  LUNO+1 :   10 A1 0.0000064
  LUNO+2 :    4 B2 0.0000048
  LUNO+3 :    4 B1 0.0000048

Computation Completed

Properties will be evaluated at   0.000000,   0.000000,   0.000000 [a0]

Properties computed using the SCF density matrix

 Multipole Moments:

 ------------------------------------------------------------------------------------
     Multipole            Electronic (a.u.)      Nuclear  (a.u.)        Total (a.u.)
 ------------------------------------------------------------------------------------

 L = 1.  Multiply by 2.5417464519 to convert [e a0] to [Debye]
 Dipole X            :          0.0000000            0.0000000            0.0000000
 Dipole Y            :          0.0000000            0.0000000            0.0000000
 Dipole Z            :         -2.1053014            0.9273006           -1.1780008
 Magnitude           :                                                    1.1780008

 ------------------------------------------------------------------------------------

*** tstop() called on Joses-MacBook-Pro-2.local at Thu Jul 17 14:41:50 2025
Module time:
	user time   =       3.79 seconds =       0.06 minutes
	system time =       2.89 seconds =       0.05 minutes
	total time  =          1 seconds =       0.02 minutes
Total time:
	user time   =      63.25 seconds =       1.05 minutes
	system time =      71.73 seconds =       1.20 minutes
	total time  =         14 seconds =       0.23 minutes

*** tstart() called on Joses-MacBook-Pro-2.local
*** at Thu Jul 17 14:41:50 2025

         ------------------------------------------------------------
                                   SCF GRAD
                          Rob Parrish, Justin Turney,
                       Andy Simmonett, and Alex Sokolov
         ------------------------------------------------------------

  ==> Geometry <==

    Molecular point group: c2v
    Full point group: C_inf_v

    Geometry (in Angstrom), charge = 1, multiplicity = 5:

       Center              X                  Y                   Z               Mass
    ------------   -----------------  -----------------  -----------------  -----------------
         NE           0.000000000000     0.000000000000     1.542888524938    19.992440176200
         P            0.000000000000     0.000000000000    -0.995878593467    30.973761998420

  Nuclear repulsion =   31.265798672524745

  ==> Basis Set <==

  Basis Set: CC-PVDZ
    Blend: CC-PVDZ
    Number of shells: 14
    Number of basis functions: 32
    Number of Cartesian functions: 34
    Spherical Harmonics?: true
    Max angular momentum: 2

  ==> DFJKGrad: Density-Fitted SCF Gradients <==

    Gradient:                    1
    J tasked:                  Yes
    K tasked:                  Yes
    wK tasked:                  No
    OpenMP threads:              1
    Integrals threads:           1
    Memory [MiB]:              375
    Schwarz Cutoff:          1E-12
    Fitting Condition:       1E-10

   => Auxiliary Basis Set <=

  Basis Set: (CC-PVDZ AUX)
    Blend: CC-PVDZ-JKFIT
    Number of shells: 60
    Number of basis functions: 182
    Number of Cartesian functions: 211
    Spherical Harmonics?: true
    Max angular momentum: 3

  ==> DFT Potential <==

   => LibXC <=

    Version 6.2.2
    S. Lehtola, C. Steigemann, M. J.T. Oliveira, and M. A.L. Marques.,  SoftwareX 7, 1â€“5 (2018) (10.1016/j.softx.2017.11.002)

   => Composite Functional: B3LYP <=

    B3LYP Hyb-GGA Exchange-Correlation Functional

    P. J. Stephens, F. J. Devlin, C. F. Chabalowski, and M. J. Frisch.,  J. Phys. Chem. 98, 11623 (1994) (10.1021/j100096a001)

    Deriv               =              1
    GGA                 =           TRUE
    Meta                =          FALSE

    Exchange Hybrid     =           TRUE
    MP2 Hybrid          =          FALSE

   => Exchange Functionals <=

    0.0800   Slater exchange
    0.7200         Becke 88

   => Exact (HF) Exchange <=

    0.2000               HF

   => Correlation Functionals <=

    0.1900   Vosko, Wilk & Nusair (VWN5_RPA)
    0.8100   Lee, Yang & Parr

   => LibXC Density Thresholds  <==

    XC_HYB_GGA_XC_B3LYP:  1.00E-15

   => Molecular Quadrature <=

    Radial Scheme          =       TREUTLER
    Pruning Scheme         =           NONE
    Nuclear Scheme         =       TREUTLER

    Blocking Scheme        =         OCTREE
    BS radius alpha        =              1
    Pruning alpha          =              1
    Radial Points          =             75
    Spherical Points       =            302
    Total Points           =          42771
    Total Blocks           =            384
    Max Points             =            254
    Max Functions          =             32
    Weights Tolerance      =       1.00E-15

  -Total Gradient:
     Atom            X                  Y                   Z
    ------   -----------------  -----------------  -----------------
       1        0.000000000000    -0.000000000000    -0.000049058152
       2       -0.000000000000    -0.000000000000     0.000035673264

*** tstop() called on Joses-MacBook-Pro-2.local at Thu Jul 17 14:41:50 2025
Module time:
	user time   =       1.15 seconds =       0.02 minutes
	system time =       1.73 seconds =       0.03 minutes
	total time  =          0 seconds =       0.00 minutes
Total time:
	user time   =      64.41 seconds =       1.07 minutes
	system time =      73.46 seconds =       1.22 minutes
	total time  =         14 seconds =       0.23 minutes

    			-----------------------------------------

    			 OPTKING 3.0: for geometry optimizations

    			     By R.A. King, Bethel University

    			        with contributions from

    			    A.V. Copan, J. Cayton, A. Heide

    			-----------------------------------------

	                            ===> Fragment 1 <==

	 Z (Atomic Numbers)          Masses                          Geom
	      10.000000            19.992440          0.00000000  0.00000000  2.91563675
	      15.000000            30.973762          0.00000000  0.00000000 -1.88193780

	 - Coordinate -           - BOHR/RAD -       - ANG/DEG -
	 R(1,2)           =         4.797575           2.538767

	        --- Internal Coordinate Step in ANG or DEG, aJ/ANG or AJ/DEG ---
	-------------------------------------------------------------------------------
	           Coordinate      Previous         Force          Change          New
	           ----------      --------        ------          ------        ------
	               R(1,2)       2.53877        0.00035        0.00128       2.54005
	-------------------------------------------------------------------------------

	                                 ==> Convergence Check <==

	Measures of convergence in internal coordinates in au.

	Criteria marked as inactive (o), active & met (*), and active & unmet ( ).

	----------------------------------------------------------------------------------------------
	   Step    Total Energy     Delta E     Max Force     RMS Force      Max Disp      RMS Disp
	----------------------------------------------------------------------------------------------
	  Convergence Criteria     1.00e-06 *    3.00e-04 *             o    1.20e-03 *             o
	----------------------------------------------------------------------------------------------
	    14    -469.59601307   -5.91e-07 *    4.24e-05 *    4.24e-05 o    2.42e-03      2.42e-03 o  ~
	----------------------------------------------------------------------------------------------

Next Geometry in Ang
	Fragment 1 (Ang)

	   Ne   0.0000000000   0.0000000000   1.5435288365
	    P   0.0000000000   0.0000000000  -0.9965189050

    Final optimized geometry and variables:
    Molecular point group: c2v
    Full point group: C_inf_v

    Geometry (in Angstrom), charge = 1, multiplicity = 5:

    NE           0.000000000000     0.000000000000     1.542888524938
    P            0.000000000000     0.000000000000    -0.995878593467

    Psi4 stopped on: Thursday, 17 July 2025 02:41PM
    Psi4 wall time for execution: 0:00:14.48

*** Psi4 exiting successfully. Buy a developer a beer!
