                               Psi4 1.9.1 release

  ==> Input File <==

--------------------------------------------------------------------------
molecule {
1 5
Li   0.00000        0.60000        0.00000
Ar   0.00000       -0.60000        0.00000
}

set {
basis              cc-pvdz
reference          uks
maxiter            500
geom_maxiter       500
DAMPING_PERCENTAGE 1
guess              SAP
}

optimize('b3lyp')
--------------------------------------------------------------------------

    Molecular point group: c2v
  Charge       = 1
  Multiplicity = 5
  Basis Set: CC-PVDZ
    Blend: CC-PVDZ
  Basis Set: (CC-PVDZ AUX)
    Blend: CC-PVDZ-JKFIT + DEF2-UNIVERSAL-JKFIT
  @DF-UKS Final Energy:  -533.21477108560032
    Total Energy =                       -533.2147710856003187
 Dipole X            :          0.0000000            0.0000000            0.0000000
 Dipole Y            :          0.0000000            0.0000000            0.0000000
 Dipole Z            :         -1.4601903           -0.3089754           -1.7691657
 Magnitude           :                                                    1.7691657
    Molecular point group: c2v
  Basis Set: CC-PVDZ
    Blend: CC-PVDZ
  Basis Set: (CC-PVDZ AUX)
    Blend: CC-PVDZ-JKFIT + DEF2-UNIVERSAL-JKFIT
  Basis Set: CC-PVDZ
    Blend: CC-PVDZ
  Basis Set: (CC-PVDZ AUX)
    Blend: CC-PVDZ-JKFIT + DEF2-UNIVERSAL-JKFIT
  @DF-UKS Final Energy:  -533.37624251272177
    Total Energy =                       -533.3762425127217739
  Basis Set: CC-PVDZ
    Blend: CC-PVDZ
  Basis Set: (CC-PVDZ AUX)
    Blend: CC-PVDZ-JKFIT + DEF2-UNIVERSAL-JKFIT
  Basis Set: CC-PVDZ
    Blend: CC-PVDZ
  @DF-UKS Final Energy:  -533.50995683078838
    Total Energy =                       -533.5099568307883828
  @DF-UKS Final Energy:  -533.60273579919976
    Total Energy =                       -533.6027357991998770
  @DF-UKS Final Energy:  -533.68033062997995
    Total Energy =                       -533.6803306299799488
  @DF-UKS Final Energy:  -533.73284131899504
    Total Energy =                       -533.7328413189951561
  @DF-UKS Final Energy:  -533.76403851192174
    Total Energy =                       -533.7640385119217399
  @DF-UKS Final Energy:  -533.76782722078372
    Total Energy =                       -533.7678272207837153
  @DF-UKS Final Energy:  -533.77676389270994
    Total Energy =                       -533.7767638927099370
  @DF-UKS Final Energy:  -533.77794456084985
    Total Energy =                       -533.7779445608498463
  Basis Set: (CC-PVDZ AUX)
    Blend: CC-PVDZ-JKFIT + DEF2-UNIVERSAL-JKFIT
  Basis Set: CC-PVDZ
    Blend: CC-PVDZ
  Basis Set: (CC-PVDZ AUX)
    Blend: CC-PVDZ-JKFIT + DEF2-UNIVERSAL-JKFIT
  @DF-UKS Final Energy:  -533.77803159018754
    Total Energy =                       -533.7780315901875383
  Basis Set: CC-PVDZ
    Blend: CC-PVDZ
  Basis Set: (CC-PVDZ AUX)
    Blend: CC-PVDZ-JKFIT + DEF2-UNIVERSAL-JKFIT
  Charge       = 1
  Multiplicity = 5
  Basis Set: CC-PVDZ
    Blend: CC-PVDZ
  Basis Set: (CC-PVDZ AUX)
    Blend: CC-PVDZ-JKFIT + DEF2-UNIVERSAL-JKFIT

    Orbital Energies [Eh]
    ---------------------

    Alpha Occupied:

       1A1  -115.968965     2A1   -11.971787     3A1    -9.539705
       1B1    -9.539588     1B2    -9.506693     4A1    -2.143458
       5A1    -1.715565     2B1    -1.155075     6A1    -1.153157
       2B2    -1.083640     7A1    -0.335998     3B2    -0.225949

    Alpha Virtual:

       3B1    -0.179730     8A1    -0.165874     9A1    -0.130819
       4B2    -0.063232     4B1    -0.056448    10A1    -0.004079
      11A1     0.021155     5B2     0.022054     5B1     0.022520
       6B1     0.073840     1A2     0.075718    12A1     0.082974
       6B2     0.114492    13A1     0.134058     2A2     0.139087
      14A1     0.155205    15A1     0.192977     7B1     0.230342
       7B2     0.249729    16A1     0.575533

    Beta Occupied:

       1A1  -115.948389     2A1   -11.951922     1B1    -9.502741
       3A1    -9.502609     1B2    -9.493834     4A1    -2.136003
       5A1    -1.579848     2B2    -1.036140

    Beta Virtual:

       2B1    -0.928860     6A1    -0.925465     7A1    -0.231295
       8A1    -0.139830     3B1    -0.136632     3B2    -0.122775
       9A1    -0.092288     4B1    -0.035882     4B2    -0.024467
      10A1     0.002602     5B1     0.051667     5B2     0.058560
      11A1     0.079088     1A2     0.136101    12A1     0.137196
       6B2     0.157632     6B1     0.157794    13A1     0.204883
       2A2     0.218561    14A1     0.225295    15A1     0.268183
       7B1     0.310994     7B2     0.311351    16A1     0.628857

    Final Occupation by Irrep:
             A1    A2    B1    B2
    DOCC [     5,    0,    1,    2 ]
    SOCC [     2,    0,    1,    1 ]
    NA   [     7,    0,    2,    3 ]
    NB   [     5,    0,    1,    2 ]

  @DF-UKS Final Energy:  -533.77803247639122

   => Energetics <=

    Nuclear Repulsion Energy =             10.3294984297099930
    One-Electron Energy =                -744.3150236231620056
    Two-Electron Energy =                 226.1045512793538990
    DFT Exchange-Correlation Energy =     -25.8970585622931466
    Empirical Dispersion Energy =           0.0000000000000000
    VV10 Nonlocal Energy =                  0.0000000000000000
    Total Energy =                       -533.7780324763912176

  UHF NO Occupations:
  HONO-2 :    3 B2 1.0000000
  HONO-1 :    7 A1 1.0000000
  HONO-0 :    2 B1 1.0000000
  LUNO+0 :    8 A1 0.0008817
  LUNO+1 :    4 B2 0.0001066
  LUNO+2 :    9 A1 0.0000011
  LUNO+3 :   10 A1 0.0000000

Computation Completed

Properties will be evaluated at   0.000000,   0.000000,   0.000000 [a0]

Properties computed using the SCF density matrix

 Multipole Moments:

 ------------------------------------------------------------------------------------
     Multipole            Electronic (a.u.)      Nuclear  (a.u.)        Total (a.u.)
 ------------------------------------------------------------------------------------

 L = 1.  Multiply by 2.5417464519 to convert [e a0] to [Debye]
 Dipole X            :          0.0000000            0.0000000            0.0000000
 Dipole Y            :          0.0000000            0.0000000            0.0000000
 Dipole Z            :         -1.5453196           -0.7122924           -2.2576120
 Magnitude           :                                                    2.2576120

 ------------------------------------------------------------------------------------

*** tstop() called on Joses-MacBook-Pro-2.local at Thu Jul 17 12:58:51 2025
Module time:
	user time   =       3.91 seconds =       0.07 minutes
	system time =       2.74 seconds =       0.05 minutes
	total time  =          0 seconds =       0.00 minutes
Total time:
	user time   =      60.82 seconds =       1.01 minutes
	system time =      60.20 seconds =       1.00 minutes
	total time  =         11 seconds =       0.18 minutes

*** tstart() called on Joses-MacBook-Pro-2.local
*** at Thu Jul 17 12:58:51 2025

         ------------------------------------------------------------
                                   SCF GRAD
                          Rob Parrish, Justin Turney,
                       Andy Simmonett, and Alex Sokolov
         ------------------------------------------------------------

  ==> Geometry <==

    Molecular point group: c2v
    Full point group: C_inf_v

    Geometry (in Angstrom), charge = 1, multiplicity = 5:

       Center              X                  Y                   Z               Mass
    ------------   -----------------  -----------------  -----------------  -----------------
         LI           0.000000000000     0.000000000000     2.353254731668     7.016003436600
         AR           0.000000000000     0.000000000000    -0.413149617065    39.962383123700

  Nuclear repulsion =   10.329498429709993

  ==> Basis Set <==

  Basis Set: CC-PVDZ
    Blend: CC-PVDZ
    Number of shells: 14
    Number of basis functions: 32
    Number of Cartesian functions: 34
    Spherical Harmonics?: true
    Max angular momentum: 2

  ==> DFJKGrad: Density-Fitted SCF Gradients <==

    Gradient:                    1
    J tasked:                  Yes
    K tasked:                  Yes
    wK tasked:                  No
    OpenMP threads:              1
    Integrals threads:           1
    Memory [MiB]:              375
    Schwarz Cutoff:          1E-12
    Fitting Condition:       1E-10

   => Auxiliary Basis Set <=

  Basis Set: (CC-PVDZ AUX)
    Blend: CC-PVDZ-JKFIT + DEF2-UNIVERSAL-JKFIT
    Number of shells: 53
    Number of basis functions: 163
    Number of Cartesian functions: 190
    Spherical Harmonics?: true
    Max angular momentum: 3

  ==> DFT Potential <==

   => LibXC <=

    Version 6.2.2
    S. Lehtola, C. Steigemann, M. J.T. Oliveira, and M. A.L. Marques.,  SoftwareX 7, 1â€“5 (2018) (10.1016/j.softx.2017.11.002)

   => Composite Functional: B3LYP <=

    B3LYP Hyb-GGA Exchange-Correlation Functional

    P. J. Stephens, F. J. Devlin, C. F. Chabalowski, and M. J. Frisch.,  J. Phys. Chem. 98, 11623 (1994) (10.1021/j100096a001)

    Deriv               =              1
    GGA                 =           TRUE
    Meta                =          FALSE

    Exchange Hybrid     =           TRUE
    MP2 Hybrid          =          FALSE

   => Exchange Functionals <=

    0.0800   Slater exchange
    0.7200         Becke 88

   => Exact (HF) Exchange <=

    0.2000               HF

   => Correlation Functionals <=

    0.1900   Vosko, Wilk & Nusair (VWN5_RPA)
    0.8100   Lee, Yang & Parr

   => LibXC Density Thresholds  <==

    XC_HYB_GGA_XC_B3LYP:  1.00E-15

   => Molecular Quadrature <=

    Radial Scheme          =       TREUTLER
    Pruning Scheme         =           NONE
    Nuclear Scheme         =       TREUTLER

    Blocking Scheme        =         OCTREE
    BS radius alpha        =              1
    Pruning alpha          =              1
    Radial Points          =             75
    Spherical Points       =            302
    Total Points           =          44349
    Total Blocks           =            444
    Max Points             =            256
    Max Functions          =             32
    Weights Tolerance      =       1.00E-15

  -Total Gradient:
     Atom            X                  Y                   Z
    ------   -----------------  -----------------  -----------------
       1        0.000000000000     0.000000000000    -0.000005439658
       2        0.000000000000     0.000000000000     0.000061935943

*** tstop() called on Joses-MacBook-Pro-2.local at Thu Jul 17 12:58:52 2025
Module time:
	user time   =       0.96 seconds =       0.02 minutes
	system time =       1.67 seconds =       0.03 minutes
	total time  =          1 seconds =       0.02 minutes
Total time:
	user time   =      61.78 seconds =       1.03 minutes
	system time =      61.87 seconds =       1.03 minutes
	total time  =         12 seconds =       0.20 minutes

    			-----------------------------------------

    			 OPTKING 3.0: for geometry optimizations

    			     By R.A. King, Bethel University

    			        with contributions from

    			    A.V. Copan, J. Cayton, A. Heide

    			-----------------------------------------

	                            ===> Fragment 1 <==

	 Z (Atomic Numbers)          Masses                          Geom
	       3.000000             7.016003          0.00000000  0.00000000  4.44700695
	      18.000000            39.962383          0.00000000  0.00000000 -0.78073963

	 - Coordinate -           - BOHR/RAD -       - ANG/DEG -
	 R(1,2)           =         5.227747           2.766404

	        --- Internal Coordinate Step in ANG or DEG, aJ/ANG or AJ/DEG ---
	-------------------------------------------------------------------------------
	           Coordinate      Previous         Force          Change          New
	           ----------      --------        ------          ------        ------
	               R(1,2)       2.76640        0.00028        0.00042       2.76682
	-------------------------------------------------------------------------------

	                                 ==> Convergence Check <==

	Measures of convergence in internal coordinates in au.

	Criteria marked as inactive (o), active & met (*), and active & unmet ( ).

	----------------------------------------------------------------------------------------------
	   Step    Total Energy     Delta E     Max Force     RMS Force      Max Disp      RMS Disp
	----------------------------------------------------------------------------------------------
	  Convergence Criteria     1.00e-06 *    3.00e-04 *             o    1.20e-03 *             o
	----------------------------------------------------------------------------------------------
	    12    -533.77803248   -8.86e-07 *    3.37e-05 *    3.37e-05 o    7.86e-04 *    7.86e-04 o  ~
	----------------------------------------------------------------------------------------------

Next Geometry in Ang
	Fragment 1 (Ang)

	   Li   0.0000000000   0.0000000000   2.3534626181
	   Ar   0.0000000000   0.0000000000  -0.4133575035

    Final optimized geometry and variables:
    Molecular point group: c2v
    Full point group: C_inf_v

    Geometry (in Angstrom), charge = 1, multiplicity = 5:

    LI           0.000000000000     0.000000000000     2.353254731668
    AR           0.000000000000     0.000000000000    -0.413149617065

    Psi4 stopped on: Thursday, 17 July 2025 12:58PM
    Psi4 wall time for execution: 0:00:12.60

*** Psi4 exiting successfully. Buy a developer a beer!
