                               Psi4 1.9.1 release

  ==> Input File <==

--------------------------------------------------------------------------
molecule {
1 5
F   0.00000        0.60000        0.00000
Ne   0.00000       -0.60000        0.00000
}

set {
basis              cc-pvdz
reference          uks
maxiter            500
geom_maxiter       500
DAMPING_PERCENTAGE 1
guess              SAP
}

optimize('b3lyp')
--------------------------------------------------------------------------

    Molecular point group: c2v
  Charge       = 1
  Multiplicity = 5
  Basis Set: CC-PVDZ
    Blend: CC-PVDZ
  Basis Set: (CC-PVDZ AUX)
    Blend: CC-PVDZ-JKFIT
  @DF-UKS Final Energy:  -226.41717037700829
    Total Energy =                       -226.4171703770082900
 Dipole X            :          0.0000000            0.0000000            0.0000000
 Dipole Y            :          0.0000000            0.0000000            0.0000000
 Dipole Z            :          0.3902623           -0.5846191           -0.1943567
 Magnitude           :                                                    0.1943567
    Molecular point group: c2v
  Basis Set: CC-PVDZ
    Blend: CC-PVDZ
  Basis Set: (CC-PVDZ AUX)
    Blend: CC-PVDZ-JKFIT
  Basis Set: CC-PVDZ
    Blend: CC-PVDZ
  Basis Set: (CC-PVDZ AUX)
    Blend: CC-PVDZ-JKFIT
  @DF-UKS Final Energy:  -226.63668503857315
    Total Energy =                       -226.6366850385731482
  Basis Set: CC-PVDZ
    Blend: CC-PVDZ
  Basis Set: (CC-PVDZ AUX)
    Blend: CC-PVDZ-JKFIT
  Basis Set: CC-PVDZ
    Blend: CC-PVDZ
  @DF-UKS Final Energy:  -226.66367928290157
    Total Energy =                       -226.6636792829015690
  @DF-UKS Final Energy:  -226.68118374121011
    Total Energy =                       -226.6811837412101056
  @DF-UKS Final Energy:  -226.68519628215446
    Total Energy =                       -226.6851962821544646
  @DF-UKS Final Energy:  -226.68655255066221
    Total Energy =                       -226.6865525506622134
  @DF-UKS Final Energy:  -226.68685821906070
    Total Energy =                       -226.6868582190606674
  @DF-UKS Final Energy:  -226.68693634574365
    Total Energy =                       -226.6869363457436748
  @DF-UKS Final Energy:  -226.68696250103517
    Total Energy =                       -226.6869625010351683
  Basis Set: (CC-PVDZ AUX)
    Blend: CC-PVDZ-JKFIT
  Basis Set: CC-PVDZ
    Blend: CC-PVDZ
  Basis Set: (CC-PVDZ AUX)
    Blend: CC-PVDZ-JKFIT
  @DF-UKS Final Energy:  -226.68696602588972
    Total Energy =                       -226.6869660258897170
  Basis Set: CC-PVDZ
    Blend: CC-PVDZ
  Basis Set: (CC-PVDZ AUX)
    Blend: CC-PVDZ-JKFIT
  Charge       = 1
  Multiplicity = 5
  Basis Set: CC-PVDZ
    Blend: CC-PVDZ
  Basis Set: (CC-PVDZ AUX)
    Blend: CC-PVDZ-JKFIT

    Orbital Energies [Eh]
    ---------------------

    Alpha Occupied:

       1A1   -31.524231     2A1   -25.541769     3A1    -1.967440
       4A1    -1.911378     1B1    -1.209228     1B2    -1.201327
       5A1    -1.194463     6A1    -1.055524     2B2    -1.033642
       2B1    -1.033210     3B1     0.392512

    Alpha Virtual:

       3B2     0.505055     7A1     0.565656     8A1     0.748217
       4B1     0.959899     4B2     0.963386     9A1     1.104410
      10A1     1.649845    11A1     2.778472     1A2     2.778823
       5B2     2.786699     5B1     2.808863    12A1     2.903192
       6B2     4.190132     6B1     4.192274    13A1     4.221775
       2A2     4.232518    14A1     4.232622

    Beta Occupied:

       1A1   -31.502143     2A1   -25.430632     3A1    -1.904151
       4A1    -1.661036     5A1    -1.015170     1B2    -1.012712
       1B1    -1.008754

    Beta Virtual:

       2B2    -0.814336     6A1    -0.813879     2B1    -0.767455
       3B2     0.637922     7A1     0.666644     3B1     0.680076
       8A1     0.877305     4B2     0.983942     4B1     0.993809
       9A1     1.168309    10A1     1.713396     5B2     2.958935
       5B1     2.989441    11A1     3.000488     1A2     3.004757
      12A1     3.066174     6B2     4.245466    13A1     4.246185
       2A2     4.246235     6B1     4.248405    14A1     4.293346

    Final Occupation by Irrep:
             A1    A2    B1    B2
    DOCC [     5,    0,    1,    1 ]
    SOCC [     1,    0,    2,    1 ]
    NA   [     6,    0,    3,    2 ]
    NB   [     5,    0,    1,    1 ]

  @DF-UKS Final Energy:  -226.68696623613579

   => Energetics <=

    Nuclear Repulsion Energy =             26.1534453935491875
    One-Electron Energy =                -361.9485541365038443
    Two-Electron Energy =                 127.1364119745669257
    DFT Exchange-Correlation Energy =     -18.0282694677480713
    Empirical Dispersion Energy =           0.0000000000000000
    VV10 Nonlocal Energy =                  0.0000000000000000
    Total Energy =                       -226.6869662361357882

  UHF NO Occupations:
  HONO-2 :    2 B2 1.0000000
  HONO-1 :    2 B1 1.0000000
  HONO-0 :    3 B1 1.0000000
  LUNO+0 :    7 A1 0.0013865
  LUNO+1 :    8 A1 0.0006767
  LUNO+2 :    3 B2 0.0000664
  LUNO+3 :    9 A1 0.0000555

Computation Completed

Properties will be evaluated at   0.000000,   0.000000,   0.000000 [a0]

Properties computed using the SCF density matrix

 Multipole Moments:

 ------------------------------------------------------------------------------------
     Multipole            Electronic (a.u.)      Nuclear  (a.u.)        Total (a.u.)
 ------------------------------------------------------------------------------------

 L = 1.  Multiply by 2.5417464519 to convert [e a0] to [Debye]
 Dipole X            :          0.0000000            0.0000000            0.0000000
 Dipole Y            :          0.0000000            0.0000000            0.0000000
 Dipole Z            :          1.1209683           -0.8871692            0.2337991
 Magnitude           :                                                    0.2337991

 ------------------------------------------------------------------------------------

*** tstop() called on Joses-MacBook-Pro-2.local at Thu Jul 17 14:25:26 2025
Module time:
	user time   =       2.63 seconds =       0.04 minutes
	system time =       3.03 seconds =       0.05 minutes
	total time  =          0 seconds =       0.00 minutes
Total time:
	user time   =      46.06 seconds =       0.77 minutes
	system time =      47.87 seconds =       0.80 minutes
	total time  =          8 seconds =       0.13 minutes

*** tstart() called on Joses-MacBook-Pro-2.local
*** at Thu Jul 17 14:25:26 2025

         ------------------------------------------------------------
                                   SCF GRAD
                          Rob Parrish, Justin Turney,
                       Andy Simmonett, and Alex Sokolov
         ------------------------------------------------------------

  ==> Geometry <==

    Molecular point group: c2v
    Full point group: C_inf_v

    Geometry (in Angstrom), charge = 1, multiplicity = 5:

       Center              X                  Y                   Z               Mass
    ------------   -----------------  -----------------  -----------------  -----------------
         F            0.000000000000     0.000000000000     0.933722681808    18.998403162730
         NE           0.000000000000     0.000000000000    -0.887297388154    19.992440176200

  Nuclear repulsion =   26.153445393549188

  ==> Basis Set <==

  Basis Set: CC-PVDZ
    Blend: CC-PVDZ
    Number of shells: 12
    Number of basis functions: 28
    Number of Cartesian functions: 30
    Spherical Harmonics?: true
    Max angular momentum: 2

  ==> DFJKGrad: Density-Fitted SCF Gradients <==

    Gradient:                    1
    J tasked:                  Yes
    K tasked:                  Yes
    wK tasked:                  No
    OpenMP threads:              1
    Integrals threads:           1
    Memory [MiB]:              375
    Schwarz Cutoff:          1E-12
    Fitting Condition:       1E-10

   => Auxiliary Basis Set <=

  Basis Set: (CC-PVDZ AUX)
    Blend: CC-PVDZ-JKFIT
    Number of shells: 48
    Number of basis functions: 140
    Number of Cartesian functions: 162
    Spherical Harmonics?: true
    Max angular momentum: 3

  ==> DFT Potential <==

   => LibXC <=

    Version 6.2.2
    S. Lehtola, C. Steigemann, M. J.T. Oliveira, and M. A.L. Marques.,  SoftwareX 7, 1â€“5 (2018) (10.1016/j.softx.2017.11.002)

   => Composite Functional: B3LYP <=

    B3LYP Hyb-GGA Exchange-Correlation Functional

    P. J. Stephens, F. J. Devlin, C. F. Chabalowski, and M. J. Frisch.,  J. Phys. Chem. 98, 11623 (1994) (10.1021/j100096a001)

    Deriv               =              1
    GGA                 =           TRUE
    Meta                =          FALSE

    Exchange Hybrid     =           TRUE
    MP2 Hybrid          =          FALSE

   => Exchange Functionals <=

    0.0800   Slater exchange
    0.7200         Becke 88

   => Exact (HF) Exchange <=

    0.2000               HF

   => Correlation Functionals <=

    0.1900   Vosko, Wilk & Nusair (VWN5_RPA)
    0.8100   Lee, Yang & Parr

   => LibXC Density Thresholds  <==

    XC_HYB_GGA_XC_B3LYP:  1.00E-15

   => Molecular Quadrature <=

    Radial Scheme          =       TREUTLER
    Pruning Scheme         =           NONE
    Nuclear Scheme         =       TREUTLER

    Blocking Scheme        =         OCTREE
    BS radius alpha        =              1
    Pruning alpha          =              1
    Radial Points          =             75
    Spherical Points       =            302
    Total Points           =          42317
    Total Blocks           =            372
    Max Points             =            250
    Max Functions          =             28
    Weights Tolerance      =       1.00E-15

  -Total Gradient:
     Atom            X                  Y                   Z
    ------   -----------------  -----------------  -----------------
       1        0.000000000000     0.000000000000    -0.000033390060
       2        0.000000000000    -0.000000000000     0.000017418143

*** tstop() called on Joses-MacBook-Pro-2.local at Thu Jul 17 14:25:27 2025
Module time:
	user time   =       0.50 seconds =       0.01 minutes
	system time =       1.20 seconds =       0.02 minutes
	total time  =          1 seconds =       0.02 minutes
Total time:
	user time   =      46.56 seconds =       0.78 minutes
	system time =      49.08 seconds =       0.82 minutes
	total time  =          9 seconds =       0.15 minutes

    			-----------------------------------------

    			 OPTKING 3.0: for geometry optimizations

    			     By R.A. King, Bethel University

    			        with contributions from

    			    A.V. Copan, J. Cayton, A. Heide

    			-----------------------------------------

	                            ===> Fragment 1 <==

	 Z (Atomic Numbers)          Masses                          Geom
	       9.000000            18.998403          0.00000000  0.00000000  1.76448015
	      10.000000            19.992440          0.00000000  0.00000000 -1.67674906

	 - Coordinate -           - BOHR/RAD -       - ANG/DEG -
	 R(1,2)           =         3.441229           1.821020

	        --- Internal Coordinate Step in ANG or DEG, aJ/ANG or AJ/DEG ---
	-------------------------------------------------------------------------------
	           Coordinate      Previous         Force          Change          New
	           ----------      --------        ------          ------        ------
	               R(1,2)       1.82102        0.00021        0.00012       1.82114
	-------------------------------------------------------------------------------

	                                 ==> Convergence Check <==

	Measures of convergence in internal coordinates in au.

	Criteria marked as inactive (o), active & met (*), and active & unmet ( ).

	----------------------------------------------------------------------------------------------
	   Step    Total Energy     Delta E     Max Force     RMS Force      Max Disp      RMS Disp
	----------------------------------------------------------------------------------------------
	  Convergence Criteria     1.00e-06 *    3.00e-04 *             o    1.20e-03 *             o
	----------------------------------------------------------------------------------------------
	    11    -226.68696624   -2.10e-07 *    2.54e-05 *    2.54e-05 o    2.20e-04 *    2.20e-04 o  ~
	----------------------------------------------------------------------------------------------

Next Geometry in Ang
	Fragment 1 (Ang)

	    F   0.0000000000   0.0000000000   0.9337810036
	   Ne   0.0000000000   0.0000000000  -0.8873557100

    Final optimized geometry and variables:
    Molecular point group: c2v
    Full point group: C_inf_v

    Geometry (in Angstrom), charge = 1, multiplicity = 5:

    F            0.000000000000     0.000000000000     0.933722681808
    NE           0.000000000000     0.000000000000    -0.887297388154

    Psi4 stopped on: Thursday, 17 July 2025 02:25PM
    Psi4 wall time for execution: 0:00:09.57

*** Psi4 exiting successfully. Buy a developer a beer!
