                               Psi4 1.9.1 release

  ==> Input File <==

--------------------------------------------------------------------------
molecule {
1 5
Mg   0.00000        0.60000        0.00000
Al   0.00000       -0.60000        0.00000
}

set {
basis              cc-pvdz
reference          uks
maxiter            500
geom_maxiter       500
DAMPING_PERCENTAGE 1
guess              SAP
}

optimize('b3lyp')
--------------------------------------------------------------------------

    Molecular point group: c2v
  Charge       = 1
  Multiplicity = 5
  Basis Set: CC-PVDZ
    Blend: CC-PVDZ
  Basis Set: (CC-PVDZ AUX)
    Blend: CC-PVDZ-JKFIT + DEF2-UNIVERSAL-JKFIT
  @DF-UKS Final Energy:  -441.18110803898662
    Total Energy =                       -441.1811080389866220
 Dipole X            :          0.0000000            0.0000000            0.0000000
 Dipole Y            :          0.0000000            0.0000000            0.0000000
 Dipole Z            :         -0.1550453            0.5327147            0.3776695
 Magnitude           :                                                    0.3776695
    Molecular point group: c2v
  Basis Set: CC-PVDZ
    Blend: CC-PVDZ
  Basis Set: (CC-PVDZ AUX)
    Blend: CC-PVDZ-JKFIT + DEF2-UNIVERSAL-JKFIT
  Basis Set: CC-PVDZ
    Blend: CC-PVDZ
  Basis Set: (CC-PVDZ AUX)
    Blend: CC-PVDZ-JKFIT + DEF2-UNIVERSAL-JKFIT
  @DF-UKS Final Energy:  -441.19031796715507
    Total Energy =                       -441.1903179671550674
  Basis Set: CC-PVDZ
    Blend: CC-PVDZ
  Basis Set: (CC-PVDZ AUX)
    Blend: CC-PVDZ-JKFIT + DEF2-UNIVERSAL-JKFIT
  Basis Set: CC-PVDZ
    Blend: CC-PVDZ
  @DF-UKS Final Energy:  -441.20815030593167
    Total Energy =                       -441.2081503059316674
  @DF-UKS Final Energy:  -441.27340989726684
    Total Energy =                       -441.2734098972668448
  @DF-UKS Final Energy:  -441.58170356939797
    Total Energy =                       -441.5817035693979733
  @DF-UKS Final Energy:  -441.78101808419166
    Total Energy =                       -441.7810180841916576
  @DF-UKS Final Energy:  -441.92565519800007
    Total Energy =                       -441.9256551980000722
  @DF-UKS Final Energy:  -442.00046610374181
    Total Energy =                       -442.0004661037418714
  @DF-UKS Final Energy:  -442.03539701957681
    Total Energy =                       -442.0353970195768056
  @DF-UKS Final Energy:  -442.05050225818229
    Total Energy =                       -442.0505022581822914
  @DF-UKS Final Energy:  -442.05634883517126
    Total Energy =                       -442.0563488351712635
  @DF-UKS Final Energy:  -442.05822673203170
    Total Energy =                       -442.0582267320316987
  @DF-UKS Final Energy:  -442.05865925358938
    Total Energy =                       -442.0586592535893828
  @DF-UKS Final Energy:  -442.05870850338636
    Total Energy =                       -442.0587085033864128
  Basis Set: (CC-PVDZ AUX)
    Blend: CC-PVDZ-JKFIT + DEF2-UNIVERSAL-JKFIT
  Basis Set: CC-PVDZ
    Blend: CC-PVDZ
  Basis Set: (CC-PVDZ AUX)
    Blend: CC-PVDZ-JKFIT + DEF2-UNIVERSAL-JKFIT
  @DF-UKS Final Energy:  -442.05871490746870
    Total Energy =                       -442.0587149074686408
  Basis Set: CC-PVDZ
    Blend: CC-PVDZ
  Basis Set: (CC-PVDZ AUX)
    Blend: CC-PVDZ-JKFIT + DEF2-UNIVERSAL-JKFIT
  Charge       = 1
  Multiplicity = 5
  Basis Set: CC-PVDZ
    Blend: CC-PVDZ
  Basis Set: (CC-PVDZ AUX)
    Blend: CC-PVDZ-JKFIT + DEF2-UNIVERSAL-JKFIT

    Orbital Energies [Eh]
    ---------------------

    Alpha Occupied:

       1A1   -56.315270     2A1   -47.136234     3A1    -4.393794
       4A1    -3.409579     5A1    -2.948778     1B2    -2.945555
       1B1    -2.945555     6A1    -2.153641     2B2    -2.152433
       2B1    -2.152433     7A1    -0.585035     8A1    -0.439362
       3B1    -0.348333     3B2    -0.348333

    Alpha Virtual:

       9A1    -0.303721     4B2    -0.226257     4B1    -0.226257
      10A1    -0.148421    11A1    -0.092650    12A1    -0.041145
       5B2    -0.035474     5B1    -0.035474     6B2     0.007986
       6B1     0.007986    13A1     0.015591     1A2     0.029671
      14A1     0.029672     7B2     0.050106     7B1     0.050106
       2A2     0.094286    15A1     0.094286    16A1     0.101000
      17A1     0.171955     8B2     0.207265     8B1     0.207265
      18A1     0.378296

    Beta Occupied:

       1A1   -56.306173     2A1   -47.132608     3A1    -4.380472
       4A1    -3.403309     5A1    -2.939406     1B2    -2.931283
       1B1    -2.931283     6A1    -2.149331     2B2    -2.147359
       2B1    -2.147359

    Beta Virtual:

       7A1    -0.420835     8A1    -0.333963     9A1    -0.232972
       3B2    -0.219955     3B1    -0.219955     4B2    -0.160435
       4B1    -0.160435    10A1    -0.107447    11A1    -0.054156
      12A1    -0.010126     5B2    -0.004025     5B1    -0.004025
      13A1     0.052838     6B2     0.072045     6B1     0.072045
       7B2     0.101343     7B1     0.101343    14A1     0.104132
       1A2     0.104142    15A1     0.148949    16A1     0.171112
       2A2     0.171139    17A1     0.222842     8B2     0.267806
       8B1     0.267806    18A1     0.426638

    Final Occupation by Irrep:
             A1    A2    B1    B2
    DOCC [     6,    0,    2,    2 ]
    SOCC [     2,    0,    1,    1 ]
    NA   [     8,    0,    3,    3 ]
    NB   [     6,    0,    2,    2 ]

  @DF-UKS Final Energy:  -442.05871578460352

   => Energetics <=

    Nuclear Repulsion Energy =             29.2700252070238776
    One-Electron Energy =                -667.8719303306697839
    Two-Electron Energy =                 224.6384179815637196
    DFT Exchange-Correlation Energy =     -28.0952286425213522
    Empirical Dispersion Energy =           0.0000000000000000
    VV10 Nonlocal Energy =                  0.0000000000000000
    Total Energy =                       -442.0587157846035211

  UHF NO Occupations:
  HONO-2 :    3 B1 1.0000000
  HONO-1 :    3 B2 1.0000000
  HONO-0 :    8 A1 1.0000000
  LUNO+0 :    9 A1 0.0000015
  LUNO+1 :    4 B2 0.0000008
  LUNO+2 :    4 B1 0.0000008
  LUNO+3 :   10 A1 0.0000005

Computation Completed

Properties will be evaluated at   0.000000,   0.000000,   0.000000 [a0]

Properties computed using the SCF density matrix

 Multipole Moments:

 ------------------------------------------------------------------------------------
     Multipole            Electronic (a.u.)      Nuclear  (a.u.)        Total (a.u.)
 ------------------------------------------------------------------------------------

 L = 1.  Multiply by 2.5417464519 to convert [e a0] to [Debye]
 Dipole X            :          0.0000000            0.0000000            0.0000000
 Dipole Y            :          0.0000000            0.0000000            0.0000000
 Dipole Z            :          0.2510620            1.2520339            1.5030960
 Magnitude           :                                                    1.5030960

 ------------------------------------------------------------------------------------

*** tstop() called on Joses-MacBook-Pro-2.local at Thu Jul 17 15:05:27 2025
Module time:
	user time   =       6.83 seconds =       0.11 minutes
	system time =       2.48 seconds =       0.04 minutes
	total time  =          1 seconds =       0.02 minutes
Total time:
	user time   =     175.22 seconds =       2.92 minutes
	system time =      55.53 seconds =       0.93 minutes
	total time  =         22 seconds =       0.37 minutes

*** tstart() called on Joses-MacBook-Pro-2.local
*** at Thu Jul 17 15:05:27 2025

         ------------------------------------------------------------
                                   SCF GRAD
                          Rob Parrish, Justin Turney,
                       Andy Simmonett, and Alex Sokolov
         ------------------------------------------------------------

  ==> Geometry <==

    Molecular point group: c2v
    Full point group: C_inf_v

    Geometry (in Angstrom), charge = 1, multiplicity = 5:

       Center              X                  Y                   Z               Mass
    ------------   -----------------  -----------------  -----------------  -----------------
         MG           0.000000000000     0.000000000000     1.493082656438    23.985041697000
         AL           0.000000000000     0.000000000000    -1.327264927162    26.981538530000

  Nuclear repulsion =   29.270025207023878

  ==> Basis Set <==

  Basis Set: CC-PVDZ
    Blend: CC-PVDZ
    Number of shells: 16
    Number of basis functions: 36
    Number of Cartesian functions: 38
    Spherical Harmonics?: true
    Max angular momentum: 2

  ==> DFJKGrad: Density-Fitted SCF Gradients <==

    Gradient:                    1
    J tasked:                  Yes
    K tasked:                  Yes
    wK tasked:                  No
    OpenMP threads:              1
    Integrals threads:           1
    Memory [MiB]:              375
    Schwarz Cutoff:          1E-12
    Fitting Condition:       1E-10

   => Auxiliary Basis Set <=

  Basis Set: (CC-PVDZ AUX)
    Blend: CC-PVDZ-JKFIT + DEF2-UNIVERSAL-JKFIT
    Number of shells: 70
    Number of basis functions: 224
    Number of Cartesian functions: 267
    Spherical Harmonics?: true
    Max angular momentum: 4

  ==> DFT Potential <==

   => LibXC <=

    Version 6.2.2
    S. Lehtola, C. Steigemann, M. J.T. Oliveira, and M. A.L. Marques.,  SoftwareX 7, 1â€“5 (2018) (10.1016/j.softx.2017.11.002)

   => Composite Functional: B3LYP <=

    B3LYP Hyb-GGA Exchange-Correlation Functional

    P. J. Stephens, F. J. Devlin, C. F. Chabalowski, and M. J. Frisch.,  J. Phys. Chem. 98, 11623 (1994) (10.1021/j100096a001)

    Deriv               =              1
    GGA                 =           TRUE
    Meta                =          FALSE

    Exchange Hybrid     =           TRUE
    MP2 Hybrid          =          FALSE

   => Exchange Functionals <=

    0.0800   Slater exchange
    0.7200         Becke 88

   => Exact (HF) Exchange <=

    0.2000               HF

   => Correlation Functionals <=

    0.1900   Vosko, Wilk & Nusair (VWN5_RPA)
    0.8100   Lee, Yang & Parr

   => LibXC Density Thresholds  <==

    XC_HYB_GGA_XC_B3LYP:  1.00E-15

   => Molecular Quadrature <=

    Radial Scheme          =       TREUTLER
    Pruning Scheme         =           NONE
    Nuclear Scheme         =       TREUTLER

    Blocking Scheme        =         OCTREE
    BS radius alpha        =              1
    Pruning alpha          =              1
    Radial Points          =             75
    Spherical Points       =            302
    Total Points           =          42936
    Total Blocks           =            420
    Max Points             =            256
    Max Functions          =             36
    Weights Tolerance      =       1.00E-15

  -Total Gradient:
     Atom            X                  Y                   Z
    ------   -----------------  -----------------  -----------------
       1        0.000000000000     0.000000000000    -0.000071765706
       2        0.000000000000    -0.000000000000     0.000078660088

*** tstop() called on Joses-MacBook-Pro-2.local at Thu Jul 17 15:05:27 2025
Module time:
	user time   =       2.62 seconds =       0.04 minutes
	system time =       1.40 seconds =       0.02 minutes
	total time  =          0 seconds =       0.00 minutes
Total time:
	user time   =     177.85 seconds =       2.96 minutes
	system time =      56.93 seconds =       0.95 minutes
	total time  =         22 seconds =       0.37 minutes

    			-----------------------------------------

    			 OPTKING 3.0: for geometry optimizations

    			     By R.A. King, Bethel University

    			        with contributions from

    			    A.V. Copan, J. Cayton, A. Heide

    			-----------------------------------------

	                            ===> Fragment 1 <==

	 Z (Atomic Numbers)          Masses                          Geom
	      12.000000            23.985042          0.00000000  0.00000000  2.82151730
	      13.000000            26.981539          0.00000000  0.00000000 -2.50816721

	 - Coordinate -           - BOHR/RAD -       - ANG/DEG -
	 R(1,2)           =         5.329685           2.820348

	        --- Internal Coordinate Step in ANG or DEG, aJ/ANG or AJ/DEG ---
	-------------------------------------------------------------------------------
	           Coordinate      Previous         Force          Change          New
	           ----------      --------        ------          ------        ------
	               R(1,2)       2.82035        0.00062        0.00167       2.82201
	-------------------------------------------------------------------------------

	                                 ==> Convergence Check <==

	Measures of convergence in internal coordinates in au.

	Criteria marked as inactive (o), active & met (*), and active & unmet ( ).

	----------------------------------------------------------------------------------------------
	   Step    Total Energy     Delta E     Max Force     RMS Force      Max Disp      RMS Disp
	----------------------------------------------------------------------------------------------
	  Convergence Criteria     1.00e-06 *    3.00e-04 *             o    1.20e-03 *             o
	----------------------------------------------------------------------------------------------
	    16    -442.05871578   -8.77e-07 *    7.52e-05 *    7.52e-05 o    3.15e-03      3.15e-03 o  ~
	----------------------------------------------------------------------------------------------

Next Geometry in Ang
	Fragment 1 (Ang)

	   Mg   0.0000000000   0.0000000000   1.4939155456
	   Al   0.0000000000   0.0000000000  -1.3280978163

    Final optimized geometry and variables:
    Molecular point group: c2v
    Full point group: C_inf_v

    Geometry (in Angstrom), charge = 1, multiplicity = 5:

    MG           0.000000000000     0.000000000000     1.493082656438
    AL           0.000000000000     0.000000000000    -1.327264927162

    Psi4 stopped on: Thursday, 17 July 2025 03:05PM
    Psi4 wall time for execution: 0:00:22.66

*** Psi4 exiting successfully. Buy a developer a beer!
