                               Psi4 1.9.1 release

  ==> Input File <==

--------------------------------------------------------------------------
molecule {
1 5
B   0.00000        0.60000        0.00000
Ne   0.00000       -0.60000        0.00000
}

set {
basis              cc-pvdz
reference          uks
maxiter            500
geom_maxiter       500
DAMPING_PERCENTAGE 1
guess              SAP
}

optimize('b3lyp')
--------------------------------------------------------------------------

    Molecular point group: c2v
  Charge       = 1
  Multiplicity = 5
  Basis Set: CC-PVDZ
    Blend: CC-PVDZ
  Basis Set: (CC-PVDZ AUX)
    Blend: CC-PVDZ-JKFIT
  @DF-UKS Final Energy:  -152.29995172002910
    Total Energy =                       -152.2999517200290995
 Dipole X            :          0.0000000            0.0000000            0.0000000
 Dipole Y            :          0.0000000            0.0000000            0.0000000
 Dipole Z            :         -0.4109134           -0.7410371           -1.1519505
 Magnitude           :                                                    1.1519505
    Molecular point group: c2v
  Basis Set: CC-PVDZ
    Blend: CC-PVDZ
  Basis Set: (CC-PVDZ AUX)
    Blend: CC-PVDZ-JKFIT
  Basis Set: CC-PVDZ
    Blend: CC-PVDZ
  Basis Set: (CC-PVDZ AUX)
    Blend: CC-PVDZ-JKFIT
  @DF-UKS Final Energy:  -152.47460639915758
    Total Energy =                       -152.4746063991575795
  Basis Set: CC-PVDZ
    Blend: CC-PVDZ
  Basis Set: (CC-PVDZ AUX)
    Blend: CC-PVDZ-JKFIT
  Basis Set: CC-PVDZ
    Blend: CC-PVDZ
  @DF-UKS Final Energy:  -152.54489858604518
    Total Energy =                       -152.5448985860451785
  @DF-UKS Final Energy:  -152.59367002198164
    Total Energy =                       -152.5936700219816373
  @DF-UKS Final Energy:  -152.61860513464887
    Total Energy =                       -152.6186051346489307
  @DF-UKS Final Energy:  -152.63186278907872
    Total Energy =                       -152.6318627890787241
  @DF-UKS Final Energy:  -152.63910467445942
    Total Energy =                       -152.6391046744594178
  @DF-UKS Final Energy:  -152.64330302516512
    Total Energy =                       -152.6433030251650962
  @DF-UKS Final Energy:  -152.64586572511286
    Total Energy =                       -152.6458657251128557
  @DF-UKS Final Energy:  -152.64754180934560
    Total Energy =                       -152.6475418093455687
  @DF-UKS Final Energy:  -152.64876486182831
    Total Energy =                       -152.6487648618283117
  @DF-UKS Final Energy:  -152.64879001832750
    Total Energy =                       -152.6487900183275315
  @DF-UKS Final Energy:  -152.64990435392616
    Total Energy =                       -152.6499043539261606
  @DF-UKS Final Energy:  -152.64991789865059
    Total Energy =                       -152.6499178986505854
  @DF-UKS Final Energy:  -152.64993135220769
    Total Energy =                       -152.6499313522076875
  @DF-UKS Final Energy:  -152.65079376584802
    Total Energy =                       -152.6507937658480216
  @DF-UKS Final Energy:  -152.65080216414293
    Total Energy =                       -152.6508021641429593
  @DF-UKS Final Energy:  -152.65081051674562
    Total Energy =                       -152.6508105167456222
  @DF-UKS Final Energy:  -152.65145646310697
    Total Energy =                       -152.6514564631069391
  @DF-UKS Final Energy:  -152.65146176209541
    Total Energy =                       -152.6514617620954084
  @DF-UKS Final Energy:  -152.65195842130765
    Total Energy =                       -152.6519584213076541
  @DF-UKS Final Energy:  -152.65196164125041
    Total Energy =                       -152.6519616412504092
  @DF-UKS Final Energy:  -152.65232032603203
    Total Energy =                       -152.6523203260320258
  @DF-UKS Final Energy:  -152.65232233559090
    Total Energy =                       -152.6523223355908954
  @DF-UKS Final Energy:  -152.65232433528664
    Total Energy =                       -152.6523243352866359
  @DF-UKS Final Energy:  -152.65232632880745
    Total Energy =                       -152.6523263288074475
  @DF-UKS Final Energy:  -152.65232831616274
    Total Energy =                       -152.6523283161627376
  @DF-UKS Final Energy:  -152.65233029738201
    Total Energy =                       -152.6523302973820080
  @DF-UKS Final Energy:  -152.65233227251179
    Total Energy =                       -152.6523322725117850
  @DF-UKS Final Energy:  -152.65260025451224
    Total Energy =                       -152.6526002545122083
  @DF-UKS Final Energy:  -152.65260151995429
    Total Energy =                       -152.6526015199543167
  @DF-UKS Final Energy:  -152.65260278085620
    Total Energy =                       -152.6526027808562276
  @DF-UKS Final Energy:  -152.65260403937540
    Total Energy =                       -152.6526040393753760
  @DF-UKS Final Energy:  -152.65260529550031
    Total Energy =                       -152.6526052955002797
  @DF-UKS Final Energy:  -152.65260654923591
    Total Energy =                       -152.6526065492359123
  @DF-UKS Final Energy:  -152.65260780059725
    Total Energy =                       -152.6526078005972238
  @DF-UKS Final Energy:  -152.65260904960502
    Total Energy =                       -152.6526090496050188
  @DF-UKS Final Energy:  -152.65261029627075
    Total Energy =                       -152.6526102962707512
  Basis Set: (CC-PVDZ AUX)
    Blend: CC-PVDZ-JKFIT
  Basis Set: CC-PVDZ
    Blend: CC-PVDZ
  Basis Set: (CC-PVDZ AUX)
    Blend: CC-PVDZ-JKFIT
  @DF-UKS Final Energy:  -152.65281810874197
    Total Energy =                       -152.6528181087419682
  Basis Set: CC-PVDZ
    Blend: CC-PVDZ
  Basis Set: (CC-PVDZ AUX)
    Blend: CC-PVDZ-JKFIT
  Charge       = 1
  Multiplicity = 5
  Basis Set: CC-PVDZ
    Blend: CC-PVDZ
  Basis Set: (CC-PVDZ AUX)
    Blend: CC-PVDZ-JKFIT

    Orbital Energies [Eh]
    ---------------------

    Alpha Occupied:

       1A1   -31.854746     2A1    -6.954639     3A1    -2.220512
       1B2    -1.393273     4A1    -1.282950     1B1    -1.282930
       5A1    -0.517637     2B2    -0.288222     2B1    -0.288217

    Alpha Virtual:

       6A1    -0.197968     3B2     0.185316     3B1     0.185326
       7A1     0.202620     8A1     0.250680     1A2     0.575164
       9A1     0.575164     4B2     0.580043     4B1     0.580047
      10A1     0.593248     5B2     0.699469    11A1     0.758071
       5B1     0.758125    12A1     1.160816    13A1     3.877618
       6B2     3.903976     2A2     3.903987    14A1     3.987211
       6B1     3.987215

    Beta Occupied:

       1A1   -31.814805     2A1    -6.915308     3A1    -2.112588
       4A1    -1.243437     1B1    -1.243416

    Beta Virtual:

       1B2    -1.030976     5A1    -0.271966     6A1    -0.106828
       2B2    -0.060077     2B1    -0.060070     7A1     0.245003
       3B2     0.284133     3B1     0.284142     8A1     0.342538
       9A1     0.704754     4B2     0.718830     4B1     0.718834
       1A2     0.755753    10A1     0.755830    11A1     0.776314
       5B1     0.776368     5B2     0.813296    12A1     1.212337
      13A1     4.006029     6B1     4.006033     6B2     4.018055
       2A2     4.018066    14A1     4.041646

    Final Occupation by Irrep:
             A1    A2    B1    B2
    DOCC [     4,    0,    1,    0 ]
    SOCC [     1,    0,    1,    2 ]
    NA   [     5,    0,    2,    2 ]
    NB   [     4,    0,    1,    0 ]

  @DF-UKS Final Energy:  -152.65281892212187

   => Energetics <=

    Nuclear Repulsion Energy =              4.0188612666489805
    One-Electron Energy =                -214.7165168346577389
    Two-Electron Energy =                  70.8810590007874595
    DFT Exchange-Correlation Energy =     -12.8362223549005634
    Empirical Dispersion Energy =           0.0000000000000000
    VV10 Nonlocal Energy =                  0.0000000000000000
    Total Energy =                       -152.6528189221218952

  UHF NO Occupations:
  HONO-2 :    2 B1 1.0000000
  HONO-1 :    2 B2 1.0000000
  HONO-0 :    5 A1 1.0000000
  LUNO+0 :    6 A1 0.0002592
  LUNO+1 :    7 A1 0.0000415
  LUNO+2 :    3 B1 0.0000415
  LUNO+3 :    8 A1 0.0000007

Computation Completed

Properties will be evaluated at   0.000000,   0.000000,   0.000000 [a0]

Properties computed using the SCF density matrix

 Multipole Moments:

 ------------------------------------------------------------------------------------
     Multipole            Electronic (a.u.)      Nuclear  (a.u.)        Total (a.u.)
 ------------------------------------------------------------------------------------

 L = 1.  Multiply by 2.5417464519 to convert [e a0] to [Debye]
 Dipole X            :          0.0000000            0.0000000            0.0000000
 Dipole Y            :          0.0000000            0.0000000            0.0000000
 Dipole Z            :         -0.2832500           -4.0656206           -4.3488705
 Magnitude           :                                                    4.3488705

 ------------------------------------------------------------------------------------

*** tstop() called on Joses-MacBook-Pro-2.local at Thu Jul 17 13:32:42 2025
Module time:
	user time   =       0.86 seconds =       0.01 minutes
	system time =       2.44 seconds =       0.04 minutes
	total time  =          0 seconds =       0.00 minutes
Total time:
	user time   =     113.29 seconds =       1.89 minutes
	system time =     168.59 seconds =       2.81 minutes
	total time  =         28 seconds =       0.47 minutes

*** tstart() called on Joses-MacBook-Pro-2.local
*** at Thu Jul 17 13:32:42 2025

         ------------------------------------------------------------
                                   SCF GRAD
                          Rob Parrish, Justin Turney,
                       Andy Simmonett, and Alex Sokolov
         ------------------------------------------------------------

  ==> Geometry <==

    Molecular point group: c2v
    Full point group: C_inf_v

    Geometry (in Angstrom), charge = 1, multiplicity = 5:

       Center              X                  Y                   Z               Mass
    ------------   -----------------  -----------------  -----------------  -----------------
         B            0.000000000000     0.000000000000     4.245685109755    11.009305360000
         NE           0.000000000000     0.000000000000    -2.337985929869    19.992440176200

  Nuclear repulsion =    4.018861266648980

  ==> Basis Set <==

  Basis Set: CC-PVDZ
    Blend: CC-PVDZ
    Number of shells: 12
    Number of basis functions: 28
    Number of Cartesian functions: 30
    Spherical Harmonics?: true
    Max angular momentum: 2

  ==> DFJKGrad: Density-Fitted SCF Gradients <==

    Gradient:                    1
    J tasked:                  Yes
    K tasked:                  Yes
    wK tasked:                  No
    OpenMP threads:              1
    Integrals threads:           1
    Memory [MiB]:              375
    Schwarz Cutoff:          1E-12
    Fitting Condition:       1E-10

   => Auxiliary Basis Set <=

  Basis Set: (CC-PVDZ AUX)
    Blend: CC-PVDZ-JKFIT
    Number of shells: 48
    Number of basis functions: 140
    Number of Cartesian functions: 162
    Spherical Harmonics?: true
    Max angular momentum: 3

  ==> DFT Potential <==

   => LibXC <=

    Version 6.2.2
    S. Lehtola, C. Steigemann, M. J.T. Oliveira, and M. A.L. Marques.,  SoftwareX 7, 1â€“5 (2018) (10.1016/j.softx.2017.11.002)

   => Composite Functional: B3LYP <=

    B3LYP Hyb-GGA Exchange-Correlation Functional

    P. J. Stephens, F. J. Devlin, C. F. Chabalowski, and M. J. Frisch.,  J. Phys. Chem. 98, 11623 (1994) (10.1021/j100096a001)

    Deriv               =              1
    GGA                 =           TRUE
    Meta                =          FALSE

    Exchange Hybrid     =           TRUE
    MP2 Hybrid          =          FALSE

   => Exchange Functionals <=

    0.0800   Slater exchange
    0.7200         Becke 88

   => Exact (HF) Exchange <=

    0.2000               HF

   => Correlation Functionals <=

    0.1900   Vosko, Wilk & Nusair (VWN5_RPA)
    0.8100   Lee, Yang & Parr

   => LibXC Density Thresholds  <==

    XC_HYB_GGA_XC_B3LYP:  1.00E-15

   => Molecular Quadrature <=

    Radial Scheme          =       TREUTLER
    Pruning Scheme         =           NONE
    Nuclear Scheme         =       TREUTLER

    Blocking Scheme        =         OCTREE
    BS radius alpha        =              1
    Pruning alpha          =              1
    Radial Points          =             75
    Spherical Points       =            302
    Total Points           =          43718
    Total Blocks           =            444
    Max Points             =            256
    Max Functions          =             28
    Weights Tolerance      =       1.00E-15

  -Total Gradient:
     Atom            X                  Y                   Z
    ------   -----------------  -----------------  -----------------
       1        0.000000000000    -0.000000000000    -0.000210715029
       2        0.000000000000     0.000000000000     0.000222225543

*** tstop() called on Joses-MacBook-Pro-2.local at Thu Jul 17 13:32:42 2025
Module time:
	user time   =       0.25 seconds =       0.00 minutes
	system time =       0.98 seconds =       0.02 minutes
	total time  =          0 seconds =       0.00 minutes
Total time:
	user time   =     113.54 seconds =       1.89 minutes
	system time =     169.57 seconds =       2.83 minutes
	total time  =         28 seconds =       0.47 minutes

    			-----------------------------------------

    			 OPTKING 3.0: for geometry optimizations

    			     By R.A. King, Bethel University

    			        with contributions from

    			    A.V. Copan, J. Cayton, A. Heide

    			-----------------------------------------

	                            ===> Fragment 1 <==

	 Z (Atomic Numbers)          Masses                          Geom
	       5.000000            11.009305          0.00000000  0.00000000  8.02318207
	      10.000000            19.992440          0.00000000  0.00000000 -4.41815309

	 - Coordinate -           - BOHR/RAD -       - ANG/DEG -
	 R(1,2)           =        12.441335           6.583671

	        --- Internal Coordinate Step in ANG or DEG, aJ/ANG or AJ/DEG ---
	-------------------------------------------------------------------------------
	           Coordinate      Previous         Force          Change          New
	           ----------      --------        ------          ------        ------
	               R(1,2)       6.58367        0.00178        0.00203       6.58570
	-------------------------------------------------------------------------------

	                                 ==> Convergence Check <==

	Measures of convergence in internal coordinates in au.

	Criteria marked as inactive (o), active & met (*), and active & unmet ( ).

	----------------------------------------------------------------------------------------------
	   Step    Total Energy     Delta E     Max Force     RMS Force      Max Disp      RMS Disp
	----------------------------------------------------------------------------------------------
	  Convergence Criteria     1.00e-06 *    3.00e-04 *             o    1.20e-03 *             o
	----------------------------------------------------------------------------------------------
	    45    -152.65281892   -8.13e-07 *    2.16e-04 *    2.16e-04 o    3.83e-03      3.83e-03 o  ~
	----------------------------------------------------------------------------------------------

Next Geometry in Ang
	Fragment 1 (Ang)

	    B   0.0000000000   0.0000000000   4.2466982842
	   Ne   0.0000000000   0.0000000000  -2.3389991043

    Final optimized geometry and variables:
    Molecular point group: c2v
    Full point group: C_inf_v

    Geometry (in Angstrom), charge = 1, multiplicity = 5:

    B            0.000000000000     0.000000000000     4.245685109755
    NE           0.000000000000     0.000000000000    -2.337985929869

    Psi4 stopped on: Thursday, 17 July 2025 01:32PM
    Psi4 wall time for execution: 0:00:28.68

*** Psi4 exiting successfully. Buy a developer a beer!
