                               Psi4 1.9.1 release

  ==> Input File <==

--------------------------------------------------------------------------
molecule {
1 5
N   0.00000        0.60000        0.00000
Si   0.00000       -0.60000        0.00000
}

set {
basis              cc-pvdz
reference          uks
maxiter            500
geom_maxiter       500
DAMPING_PERCENTAGE 1
guess              SAP
}

optimize('b3lyp')
--------------------------------------------------------------------------

    Molecular point group: c2v
  Charge       = 1
  Multiplicity = 5
  Basis Set: CC-PVDZ
    Blend: CC-PVDZ
  Basis Set: (CC-PVDZ AUX)
    Blend: CC-PVDZ-JKFIT
  @DF-UKS Final Energy:  -343.17234932584063
    Total Energy =                       -343.1723493258405711
 Dipole X            :          0.0000000            0.0000000            0.0000000
 Dipole Y            :          0.0000000            0.0000000            0.0000000
 Dipole Z            :         -0.0792232           -0.0110494           -0.0902726
 Magnitude           :                                                    0.0902726
    Molecular point group: c2v
  Basis Set: CC-PVDZ
    Blend: CC-PVDZ
  Basis Set: (CC-PVDZ AUX)
    Blend: CC-PVDZ-JKFIT
  Basis Set: CC-PVDZ
    Blend: CC-PVDZ
  Basis Set: (CC-PVDZ AUX)
    Blend: CC-PVDZ-JKFIT
  @DF-UKS Final Energy:  -343.39249373902425
    Total Energy =                       -343.3924937390242462
  Basis Set: CC-PVDZ
    Blend: CC-PVDZ
  Basis Set: (CC-PVDZ AUX)
    Blend: CC-PVDZ-JKFIT
  Basis Set: CC-PVDZ
    Blend: CC-PVDZ
  @DF-UKS Final Energy:  -343.48501702496213
    Total Energy =                       -343.4850170249621328
  @DF-UKS Final Energy:  -343.51455603891691
    Total Energy =                       -343.5145560389169077
  @DF-UKS Final Energy:  -343.62527409423819
    Total Energy =                       -343.6252740942381934
  @DF-UKS Final Energy:  -343.68558997583489
    Total Energy =                       -343.6855899758348869
  @DF-UKS Final Energy:  -343.68752372837542
    Total Energy =                       -343.6875237283754245
  @DF-UKS Final Energy:  -343.69442564390033
    Total Energy =                       -343.6944256439003311
  @DF-UKS Final Energy:  -343.69615785409252
    Total Energy =                       -343.6961578540924620
  @DF-UKS Final Energy:  -343.69671693490704
    Total Energy =                       -343.6967169349071014
  @DF-UKS Final Energy:  -343.69694459086276
    Total Energy =                       -343.6969445908626994
  @DF-UKS Final Energy:  -343.69697913203134
    Total Energy =                       -343.6969791320313448
  @DF-UKS Final Energy:  -343.69698477264876
    Total Energy =                       -343.6969847726487046
  Basis Set: (CC-PVDZ AUX)
    Blend: CC-PVDZ-JKFIT
  Basis Set: CC-PVDZ
    Blend: CC-PVDZ
  Basis Set: (CC-PVDZ AUX)
    Blend: CC-PVDZ-JKFIT
  @DF-UKS Final Energy:  -343.69698582354727
    Total Energy =                       -343.6969858235472657
  Basis Set: CC-PVDZ
    Blend: CC-PVDZ
  Basis Set: (CC-PVDZ AUX)
    Blend: CC-PVDZ-JKFIT
  Charge       = 1
  Multiplicity = 5
  Basis Set: CC-PVDZ
    Blend: CC-PVDZ
  Basis Set: (CC-PVDZ AUX)
    Blend: CC-PVDZ-JKFIT

    Orbital Energies [Eh]
    ---------------------

    Alpha Occupied:

       1A1   -66.508516     2A1   -14.728702     3A1    -5.642394
       1B2    -4.003014     4A1    -4.002276     1B1    -3.998477
       5A1    -1.088714     6A1    -0.746280     2B1    -0.623025
       2B2    -0.621620     7A1    -0.616929     3B1    -0.453542

    Alpha Virtual:

       3B2    -0.381639     8A1    -0.325719     9A1     0.005372
      10A1     0.050245     4B1     0.061790     5B1     0.070222
       1A2     0.071117     4B2     0.071575    11A1     0.077342
       5B2     0.078269    12A1     0.180502     6B2     0.464174
       6B1     0.465267    13A1     0.480331    14A1     0.867731
       2A2     1.407961    15A1     1.407996     7B2     1.426088
       7B1     1.427265    16A1     1.543772

    Beta Occupied:

       1A1   -66.503975     2A1   -14.673420     3A1    -5.637209
       1B2    -4.000156     4A1    -3.998004     1B1    -3.984044
       5A1    -0.908045     6A1    -0.678104

    Beta Virtual:

       7A1    -0.431202     2B2    -0.399271     2B1    -0.382333
       3B2    -0.333248     3B1    -0.309977     8A1    -0.258506
       9A1     0.021102    10A1     0.066977     4B2     0.075216
       4B1     0.098363     5B2     0.103790    11A1     0.121464
       1A2     0.122360     5B1     0.130549    12A1     0.224401
       6B2     0.559210     6B1     0.563689    13A1     0.572422
      14A1     0.950028     2A2     1.555990    15A1     1.556014
       7B2     1.562128     7B1     1.565373    16A1     1.671911

    Final Occupation by Irrep:
             A1    A2    B1    B2
    DOCC [     6,    0,    1,    1 ]
    SOCC [     1,    0,    2,    1 ]
    NA   [     7,    0,    3,    2 ]
    NB   [     6,    0,    1,    1 ]

  @DF-UKS Final Energy:  -343.69698589523517

   => Energetics <=

    Nuclear Repulsion Energy =             22.3288011623678493
    One-Electron Energy =                -512.8901959760303271
    Two-Electron Energy =                 168.9041795160997594
    DFT Exchange-Correlation Energy =     -22.0397705976724190
    Empirical Dispersion Energy =           0.0000000000000000
    VV10 Nonlocal Energy =                  0.0000000000000000
    Total Energy =                       -343.6969858952351728

  UHF NO Occupations:
  HONO-2 :    2 B1 1.0000000
  HONO-1 :    2 B2 1.0000000
  HONO-0 :    3 B1 1.0000000
  LUNO+0 :    8 A1 0.0030129
  LUNO+1 :    9 A1 0.0010228
  LUNO+2 :   10 A1 0.0000002
  LUNO+3 :   11 A1 0.0000001

Computation Completed

Properties will be evaluated at   0.000000,   0.000000,   0.000000 [a0]

Properties computed using the SCF density matrix

 Multipole Moments:

 ------------------------------------------------------------------------------------
     Multipole            Electronic (a.u.)      Nuclear  (a.u.)        Total (a.u.)
 ------------------------------------------------------------------------------------

 L = 1.  Multiply by 2.5417464519 to convert [e a0] to [Debye]
 Dipole X            :          0.0000000            0.0000000            0.0000000
 Dipole Y            :          0.0000000            0.0000000            0.0000000
 Dipole Z            :         -0.6265974           -0.0213854           -0.6479828
 Magnitude           :                                                    0.6479828

 ------------------------------------------------------------------------------------

*** tstop() called on Joses-MacBook-Pro-2.local at Thu Jul 17 13:56:03 2025
Module time:
	user time   =       1.90 seconds =       0.03 minutes
	system time =       4.83 seconds =       0.08 minutes
	total time  =          1 seconds =       0.02 minutes
Total time:
	user time   =      58.02 seconds =       0.97 minutes
	system time =     113.53 seconds =       1.89 minutes
	total time  =         18 seconds =       0.30 minutes

*** tstart() called on Joses-MacBook-Pro-2.local
*** at Thu Jul 17 13:56:03 2025

         ------------------------------------------------------------
                                   SCF GRAD
                          Rob Parrish, Justin Turney,
                       Andy Simmonett, and Alex Sokolov
         ------------------------------------------------------------

  ==> Geometry <==

    Molecular point group: c2v
    Full point group: C_inf_v

    Geometry (in Angstrom), charge = 1, multiplicity = 5:

       Center              X                  Y                   Z               Mass
    ------------   -----------------  -----------------  -----------------  -----------------
         N            0.000000000000     0.000000000000     1.547816117633    14.003074004430
         SI           0.000000000000     0.000000000000    -0.774716394012    27.976926534650

  Nuclear repulsion =   22.328801162367849

  ==> Basis Set <==

  Basis Set: CC-PVDZ
    Blend: CC-PVDZ
    Number of shells: 14
    Number of basis functions: 32
    Number of Cartesian functions: 34
    Spherical Harmonics?: true
    Max angular momentum: 2

  ==> DFJKGrad: Density-Fitted SCF Gradients <==

    Gradient:                    1
    J tasked:                  Yes
    K tasked:                  Yes
    wK tasked:                  No
    OpenMP threads:              1
    Integrals threads:           1
    Memory [MiB]:              375
    Schwarz Cutoff:          1E-12
    Fitting Condition:       1E-10

   => Auxiliary Basis Set <=

  Basis Set: (CC-PVDZ AUX)
    Blend: CC-PVDZ-JKFIT
    Number of shells: 60
    Number of basis functions: 182
    Number of Cartesian functions: 211
    Spherical Harmonics?: true
    Max angular momentum: 3

  ==> DFT Potential <==

   => LibXC <=

    Version 6.2.2
    S. Lehtola, C. Steigemann, M. J.T. Oliveira, and M. A.L. Marques.,  SoftwareX 7, 1â€“5 (2018) (10.1016/j.softx.2017.11.002)

   => Composite Functional: B3LYP <=

    B3LYP Hyb-GGA Exchange-Correlation Functional

    P. J. Stephens, F. J. Devlin, C. F. Chabalowski, and M. J. Frisch.,  J. Phys. Chem. 98, 11623 (1994) (10.1021/j100096a001)

    Deriv               =              1
    GGA                 =           TRUE
    Meta                =          FALSE

    Exchange Hybrid     =           TRUE
    MP2 Hybrid          =          FALSE

   => Exchange Functionals <=

    0.0800   Slater exchange
    0.7200         Becke 88

   => Exact (HF) Exchange <=

    0.2000               HF

   => Correlation Functionals <=

    0.1900   Vosko, Wilk & Nusair (VWN5_RPA)
    0.8100   Lee, Yang & Parr

   => LibXC Density Thresholds  <==

    XC_HYB_GGA_XC_B3LYP:  1.00E-15

   => Molecular Quadrature <=

    Radial Scheme          =       TREUTLER
    Pruning Scheme         =           NONE
    Nuclear Scheme         =       TREUTLER

    Blocking Scheme        =         OCTREE
    BS radius alpha        =              1
    Pruning alpha          =              1
    Radial Points          =             75
    Spherical Points       =            302
    Total Points           =          42729
    Total Blocks           =            387
    Max Points             =            256
    Max Functions          =             32
    Weights Tolerance      =       1.00E-15

  -Total Gradient:
     Atom            X                  Y                   Z
    ------   -----------------  -----------------  -----------------
       1        0.000000000000    -0.000000000000    -0.000018513869
       2        0.000000000000     0.000000000000     0.000001497179

*** tstop() called on Joses-MacBook-Pro-2.local at Thu Jul 17 13:56:03 2025
Module time:
	user time   =       0.73 seconds =       0.01 minutes
	system time =       2.30 seconds =       0.04 minutes
	total time  =          0 seconds =       0.00 minutes
Total time:
	user time   =      58.75 seconds =       0.98 minutes
	system time =     115.85 seconds =       1.93 minutes
	total time  =         18 seconds =       0.30 minutes

    			-----------------------------------------

    			 OPTKING 3.0: for geometry optimizations

    			     By R.A. King, Bethel University

    			        with contributions from

    			    A.V. Copan, J. Cayton, A. Heide

    			-----------------------------------------

	                            ===> Fragment 1 <==

	 Z (Atomic Numbers)          Masses                          Geom
	       7.000000            14.003074          0.00000000  0.00000000  2.92494855
	      14.000000            27.976927          0.00000000  0.00000000 -1.46400181

	 - Coordinate -           - BOHR/RAD -       - ANG/DEG -
	 R(1,2)           =         4.388950           2.322533

	        --- Internal Coordinate Step in ANG or DEG, aJ/ANG or AJ/DEG ---
	-------------------------------------------------------------------------------
	           Coordinate      Previous         Force          Change          New
	           ----------      --------        ------          ------        ------
	               R(1,2)       2.32253        0.00008        0.00026       2.32279
	-------------------------------------------------------------------------------

	                                 ==> Convergence Check <==

	Measures of convergence in internal coordinates in au.

	Criteria marked as inactive (o), active & met (*), and active & unmet ( ).

	----------------------------------------------------------------------------------------------
	   Step    Total Energy     Delta E     Max Force     RMS Force      Max Disp      RMS Disp
	----------------------------------------------------------------------------------------------
	  Convergence Criteria     1.00e-06 *    3.00e-04 *             o    1.20e-03 *             o
	----------------------------------------------------------------------------------------------
	    15    -343.69698590   -7.17e-08 *    1.00e-05 *    1.00e-05 o    4.91e-04 *    4.91e-04 o  ~
	----------------------------------------------------------------------------------------------

Next Geometry in Ang
	Fragment 1 (Ang)

	    N   0.0000000000   0.0000000000   1.5479459147
	   Si   0.0000000000   0.0000000000  -0.7748461911

    Final optimized geometry and variables:
    Molecular point group: c2v
    Full point group: C_inf_v

    Geometry (in Angstrom), charge = 1, multiplicity = 5:

    N            0.000000000000     0.000000000000     1.547816117633
    SI           0.000000000000     0.000000000000    -0.774716394012

    Psi4 stopped on: Thursday, 17 July 2025 01:56PM
    Psi4 wall time for execution: 0:00:18.88

*** Psi4 exiting successfully. Buy a developer a beer!
