                               Psi4 1.9.1 release

  ==> Input File <==

--------------------------------------------------------------------------
molecule {
1 5
H   0.00000        0.60000        0.00000
O   0.00000       -0.60000        0.00000
}

set {
basis              cc-pvdz
reference          uks
maxiter            500
geom_maxiter       500
DAMPING_PERCENTAGE 1
guess              SAP
}

optimize('b3lyp')
--------------------------------------------------------------------------

    Molecular point group: c2v
  Charge       = 1
  Multiplicity = 5
  Basis Set: CC-PVDZ
    Blend: CC-PVDZ
  Basis Set: (CC-PVDZ AUX)
    Blend: CC-PVDZ-JKFIT
  @DF-UKS Final Energy:   -74.86677677344186
    Total Energy =                        -74.8667767734418561
 Dipole X            :          0.0000000            0.0000000            0.0000000
 Dipole Y            :          0.0000000            0.0000000            0.0000000
 Dipole Z            :         -1.5398877            1.0579402           -0.4819475
 Magnitude           :                                                    0.4819475
    Molecular point group: c2v
  Basis Set: CC-PVDZ
    Blend: CC-PVDZ
  Basis Set: (CC-PVDZ AUX)
    Blend: CC-PVDZ-JKFIT
  Basis Set: CC-PVDZ
    Blend: CC-PVDZ
  Basis Set: (CC-PVDZ AUX)
    Blend: CC-PVDZ-JKFIT
  @DF-UKS Final Energy:   -74.97170072878210
    Total Energy =                        -74.9717007287821104
  Basis Set: CC-PVDZ
    Blend: CC-PVDZ
  Basis Set: (CC-PVDZ AUX)
    Blend: CC-PVDZ-JKFIT
  Basis Set: CC-PVDZ
    Blend: CC-PVDZ
  @DF-UKS Final Energy:   -75.01316603848201
    Total Energy =                        -75.0131660384820123
  @DF-UKS Final Energy:   -75.03576536715536
    Total Energy =                        -75.0357653671553635
  @DF-UKS Final Energy:   -75.04707249421143
    Total Energy =                        -75.0470724942114344
  @DF-UKS Final Energy:   -75.05273978083312
    Total Energy =                        -75.0527397808331074
  @DF-UKS Final Energy:   -75.05560136562512
    Total Energy =                        -75.0556013656251224
  @DF-UKS Final Energy:   -75.05705564228057
    Total Energy =                        -75.0570556422805737
  @DF-UKS Final Energy:   -75.05778634405259
    Total Energy =                        -75.0577863440526016
  @DF-UKS Final Energy:   -75.05814816680497
    Total Energy =                        -75.0581481668049690
  @DF-UKS Final Energy:   -75.05832393809841
    Total Energy =                        -75.0583239380984111
  @DF-UKS Final Energy:   -75.05840620235725
    Total Energy =                        -75.0584062023572471
  @DF-UKS Final Energy:   -75.05844242260652
    Total Energy =                        -75.0584424226065181
  @DF-UKS Final Energy:   -75.05845661839226
    Total Energy =                        -75.0584566183922561
  @DF-UKS Final Energy:   -75.05846046249896
    Total Energy =                        -75.0584604624989709
  Basis Set: (CC-PVDZ AUX)
    Blend: CC-PVDZ-JKFIT
  Basis Set: CC-PVDZ
    Blend: CC-PVDZ
  Basis Set: (CC-PVDZ AUX)
    Blend: CC-PVDZ-JKFIT
  @DF-UKS Final Energy:   -75.05846211001608
    Total Energy =                        -75.0584621100160803
  Basis Set: CC-PVDZ
    Blend: CC-PVDZ
  Basis Set: (CC-PVDZ AUX)
    Blend: CC-PVDZ-JKFIT
  Charge       = 1
  Multiplicity = 5
  Basis Set: CC-PVDZ
    Blend: CC-PVDZ
  Basis Set: (CC-PVDZ AUX)
    Blend: CC-PVDZ-JKFIT

    Orbital Energies [Eh]
    ---------------------

    Alpha Occupied:

       1A1   -19.993232     2A1    -1.638918     1B1    -1.046585
       1B2    -1.046585     3A1    -1.046573     4A1    -0.463497

    Alpha Virtual:

       5A1     0.256891     2B1     0.340855     2B2     0.340855
       6A1     0.360856     7A1     0.557527     8A1     1.064136
       3B1     1.067030     3B2     1.067030     1A2     1.862301
       9A1     1.862304     4B2     1.862315     4B1     1.862315
      10A1     1.862407

    Beta Occupied:

       1A1   -19.908808     2A1    -1.386798

    Beta Virtual:

       3A1    -0.707380     1B1    -0.707255     1B2    -0.707255
       4A1    -0.170426     5A1     0.430947     2B1     0.451618
       2B2     0.451618     6A1     0.515269     7A1     0.672477
       8A1     1.322026     3B1     1.325937     3B2     1.325937
       1A2     2.050557     9A1     2.050559     4B2     2.050572
       4B1     2.050572    10A1     2.050663

    Final Occupation by Irrep:
             A1    A2    B1    B2
    DOCC [     2,    0,    0,    0 ]
    SOCC [     2,    0,    1,    1 ]
    NA   [     4,    0,    1,    1 ]
    NB   [     2,    0,    0,    0 ]

  @DF-UKS Final Energy:   -75.05846249989115

   => Energetics <=

    Nuclear Repulsion Energy =              1.1511420524640468
    One-Electron Energy =                -101.0266035122585322
    Two-Electron Energy =                  31.5806263496479858
    DFT Exchange-Correlation Energy =      -6.7636273897446548
    Empirical Dispersion Energy =           0.0000000000000000
    VV10 Nonlocal Energy =                  0.0000000000000000
    Total Energy =                        -75.0584624998911494

  UHF NO Occupations:
  HONO-2 :    1 B1 1.0000000
  HONO-1 :    1 B2 1.0000000
  HONO-0 :    4 A1 1.0000000
  LUNO+0 :    5 A1 0.0009497
  LUNO+1 :    6 A1 0.0000000
  LUNO+2 :    2 B1 0.0000000
  LUNO+3 :    2 B2 0.0000000

Computation Completed

Properties will be evaluated at   0.000000,   0.000000,   0.000000 [a0]

Properties computed using the SCF density matrix

 Multipole Moments:

 ------------------------------------------------------------------------------------
     Multipole            Electronic (a.u.)      Nuclear  (a.u.)        Total (a.u.)
 ------------------------------------------------------------------------------------

 L = 1.  Multiply by 2.5417464519 to convert [e a0] to [Debye]
 Dipole X            :          0.0000000            0.0000000            0.0000000
 Dipole Y            :          0.0000000            0.0000000            0.0000000
 Dipole Z            :         -3.6392879            3.2422170           -0.3970709
 Magnitude           :                                                    0.3970709

 ------------------------------------------------------------------------------------

*** tstop() called on Joses-MacBook-Pro-2.local at Thu Jul 17 12:20:23 2025
Module time:
	user time   =       0.56 seconds =       0.01 minutes
	system time =       2.88 seconds =       0.05 minutes
	total time  =          0 seconds =       0.00 minutes
Total time:
	user time   =      17.18 seconds =       0.29 minutes
	system time =      66.89 seconds =       1.11 minutes
	total time  =          9 seconds =       0.15 minutes

*** tstart() called on Joses-MacBook-Pro-2.local
*** at Thu Jul 17 12:20:23 2025

         ------------------------------------------------------------
                                   SCF GRAD
                          Rob Parrish, Justin Turney,
                       Andy Simmonett, and Alex Sokolov
         ------------------------------------------------------------

  ==> Geometry <==

    Molecular point group: c2v
    Full point group: C_inf_v

    Geometry (in Angstrom), charge = 1, multiplicity = 5:

       Center              X                  Y                   Z               Mass
    ------------   -----------------  -----------------  -----------------  -----------------
         H            0.000000000000     0.000000000000     3.459594687850     1.007825032230
         O            0.000000000000     0.000000000000    -0.217985916819    15.994914619570

  Nuclear repulsion =    1.151142052464047

  ==> Basis Set <==

  Basis Set: CC-PVDZ
    Blend: CC-PVDZ
    Number of shells: 9
    Number of basis functions: 19
    Number of Cartesian functions: 20
    Spherical Harmonics?: true
    Max angular momentum: 2

  ==> DFJKGrad: Density-Fitted SCF Gradients <==

    Gradient:                    1
    J tasked:                  Yes
    K tasked:                  Yes
    wK tasked:                  No
    OpenMP threads:              1
    Integrals threads:           1
    Memory [MiB]:              375
    Schwarz Cutoff:          1E-12
    Fitting Condition:       1E-10

   => Auxiliary Basis Set <=

  Basis Set: (CC-PVDZ AUX)
    Blend: CC-PVDZ-JKFIT
    Number of shells: 33
    Number of basis functions: 93
    Number of Cartesian functions: 106
    Spherical Harmonics?: true
    Max angular momentum: 3

  ==> DFT Potential <==

   => LibXC <=

    Version 6.2.2
    S. Lehtola, C. Steigemann, M. J.T. Oliveira, and M. A.L. Marques.,  SoftwareX 7, 1â€“5 (2018) (10.1016/j.softx.2017.11.002)

   => Composite Functional: B3LYP <=

    B3LYP Hyb-GGA Exchange-Correlation Functional

    P. J. Stephens, F. J. Devlin, C. F. Chabalowski, and M. J. Frisch.,  J. Phys. Chem. 98, 11623 (1994) (10.1021/j100096a001)

    Deriv               =              1
    GGA                 =           TRUE
    Meta                =          FALSE

    Exchange Hybrid     =           TRUE
    MP2 Hybrid          =          FALSE

   => Exchange Functionals <=

    0.0800   Slater exchange
    0.7200         Becke 88

   => Exact (HF) Exchange <=

    0.2000               HF

   => Correlation Functionals <=

    0.1900   Vosko, Wilk & Nusair (VWN5_RPA)
    0.8100   Lee, Yang & Parr

   => LibXC Density Thresholds  <==

    XC_HYB_GGA_XC_B3LYP:  1.00E-15

   => Molecular Quadrature <=

    Radial Scheme          =       TREUTLER
    Pruning Scheme         =           NONE
    Nuclear Scheme         =       TREUTLER

    Blocking Scheme        =         OCTREE
    BS radius alpha        =              1
    Pruning alpha          =              1
    Radial Points          =             75
    Spherical Points       =            302
    Total Points           =          44203
    Total Blocks           =            391
    Max Points             =            253
    Max Functions          =             19
    Weights Tolerance      =       1.00E-15

  -Total Gradient:
     Atom            X                  Y                   Z
    ------   -----------------  -----------------  -----------------
       1        0.000000000000    -0.000000000000    -0.000004108809
       2        0.000000000000    -0.000000000000     0.000005428323

*** tstop() called on Joses-MacBook-Pro-2.local at Thu Jul 17 12:20:23 2025
Module time:
	user time   =       0.27 seconds =       0.00 minutes
	system time =       0.68 seconds =       0.01 minutes
	total time  =          0 seconds =       0.00 minutes
Total time:
	user time   =      17.46 seconds =       0.29 minutes
	system time =      67.57 seconds =       1.13 minutes
	total time  =          9 seconds =       0.15 minutes

    			-----------------------------------------

    			 OPTKING 3.0: for geometry optimizations

    			     By R.A. King, Bethel University

    			        with contributions from

    			    A.V. Copan, J. Cayton, A. Heide

    			-----------------------------------------

	                            ===> Fragment 1 <==

	 Z (Atomic Numbers)          Masses                          Geom
	       1.000000             1.007825          0.00000000  0.00000000  6.53768647
	       8.000000            15.994915          0.00000000  0.00000000 -0.41193368

	 - Coordinate -           - BOHR/RAD -       - ANG/DEG -
	 R(1,2)           =         6.949620           3.677581

	        --- Internal Coordinate Step in ANG or DEG, aJ/ANG or AJ/DEG ---
	-------------------------------------------------------------------------------
	           Coordinate      Previous         Force          Change          New
	           ----------      --------        ------          ------        ------
	               R(1,2)       3.67758        0.00004        0.01384       3.69142
	-------------------------------------------------------------------------------

	                                 ==> Convergence Check <==

	Measures of convergence in internal coordinates in au.

	Criteria marked as inactive (o), active & met (*), and active & unmet ( ).

	----------------------------------------------------------------------------------------------
	   Step    Total Energy     Delta E     Max Force     RMS Force      Max Disp      RMS Disp
	----------------------------------------------------------------------------------------------
	  Convergence Criteria     1.00e-06 *    3.00e-04 *             o    1.20e-03 *             o
	----------------------------------------------------------------------------------------------
	    17     -75.05846250   -3.90e-07 *    4.77e-06 *    4.77e-06 o    2.61e-02      2.61e-02 o  ~
	----------------------------------------------------------------------------------------------

Next Geometry in Ang
	Fragment 1 (Ang)

	    H   0.0000000000   0.0000000000   3.4665125336
	    O   0.0000000000   0.0000000000  -0.2249037626

    Final optimized geometry and variables:
    Molecular point group: c2v
    Full point group: C_inf_v

    Geometry (in Angstrom), charge = 1, multiplicity = 5:

    H            0.000000000000     0.000000000000     3.459594687850
    O            0.000000000000     0.000000000000    -0.217985916819

    Psi4 stopped on: Thursday, 17 July 2025 12:20PM
    Psi4 wall time for execution: 0:00:09.29

*** Psi4 exiting successfully. Buy a developer a beer!
