                               Psi4 1.9.1 release

  ==> Input File <==

--------------------------------------------------------------------------
molecule {
1 5
Li   0.00000        0.60000        0.00000
Ne   0.00000       -0.60000        0.00000
}

set {
basis              cc-pvdz
reference          uks
maxiter            500
geom_maxiter       500
DAMPING_PERCENTAGE 1
guess              SAP
}

optimize('b3lyp')
--------------------------------------------------------------------------

    Molecular point group: c2v
  Charge       = 1
  Multiplicity = 5
  Basis Set: CC-PVDZ
    Blend: CC-PVDZ
  Basis Set: (CC-PVDZ AUX)
    Blend: CC-PVDZ-JKFIT + DEF2-UNIVERSAL-JKFIT
  @DF-UKS Final Energy:  -134.21788175503593
    Total Energy =                       -134.2178817550359327
 Dipole X            :          0.0000000            0.0000000            0.0000000
 Dipole Y            :          0.0000000            0.0000000            0.0000000
 Dipole Z            :          0.6334081           -0.8549566           -0.2215486
 Magnitude           :                                                    0.2215486
    Molecular point group: c2v
  Basis Set: CC-PVDZ
    Blend: CC-PVDZ
  Basis Set: (CC-PVDZ AUX)
    Blend: CC-PVDZ-JKFIT + DEF2-UNIVERSAL-JKFIT
  Basis Set: CC-PVDZ
    Blend: CC-PVDZ
  Basis Set: (CC-PVDZ AUX)
    Blend: CC-PVDZ-JKFIT + DEF2-UNIVERSAL-JKFIT
  @DF-UKS Final Energy:  -134.36094253529834
    Total Energy =                       -134.3609425352983351
  Basis Set: CC-PVDZ
    Blend: CC-PVDZ
  Basis Set: (CC-PVDZ AUX)
    Blend: CC-PVDZ-JKFIT + DEF2-UNIVERSAL-JKFIT
  Basis Set: CC-PVDZ
    Blend: CC-PVDZ
  @DF-UKS Final Energy:  -134.43896543351582
    Total Energy =                       -134.4389654335158184
  @DF-UKS Final Energy:  -134.49374536234896
    Total Energy =                       -134.4937453623489603
  @DF-UKS Final Energy:  -134.51698063639353
    Total Energy =                       -134.5169806363935265
  @DF-UKS Final Energy:  -134.52250038706950
    Total Energy =                       -134.5225003870694991
  @DF-UKS Final Energy:  -134.52311737695430
    Total Energy =                       -134.5231173769543034
  Basis Set: (CC-PVDZ AUX)
    Blend: CC-PVDZ-JKFIT + DEF2-UNIVERSAL-JKFIT
  Basis Set: CC-PVDZ
    Blend: CC-PVDZ
  Basis Set: (CC-PVDZ AUX)
    Blend: CC-PVDZ-JKFIT + DEF2-UNIVERSAL-JKFIT
  @DF-UKS Final Energy:  -134.52313752576774
    Total Energy =                       -134.5231375257677371
  Basis Set: CC-PVDZ
    Blend: CC-PVDZ
  Basis Set: (CC-PVDZ AUX)
    Blend: CC-PVDZ-JKFIT + DEF2-UNIVERSAL-JKFIT
  Charge       = 1
  Multiplicity = 5
  Basis Set: CC-PVDZ
    Blend: CC-PVDZ
  Basis Set: (CC-PVDZ AUX)
    Blend: CC-PVDZ-JKFIT + DEF2-UNIVERSAL-JKFIT

    Orbital Energies [Eh]
    ---------------------

    Alpha Occupied:

       1A1   -32.545386     2A1    -2.752314     3A1    -2.182080
       4A1    -1.897996     1B2    -1.897400     1B1    -1.777597
       5A1    -0.420294     2B1    -0.258505

    Alpha Virtual:

       2B2    -0.205700     6A1    -0.176272     7A1    -0.150563
       3B1    -0.069379     3B2    -0.059695     8A1    -0.016731
       4B1     0.031192     4B2     0.042137     9A1     0.061151
       1A2     0.061542    10A1     0.080507    11A1     0.509321
       5B2     0.510035     5B1     0.557710    12A1     1.267095
      13A1     3.359624     6B2     3.362237     2A2     3.443478
       6B1     3.449041    14A1     3.474917

    Beta Occupied:

       1A1   -32.454669     2A1    -2.518737     3A1    -2.174158
       1B1    -1.688003

    Beta Virtual:

       1B2    -1.458210     4A1    -1.457184     5A1    -0.290845
       2B2    -0.160343     6A1    -0.155379     2B1    -0.143087
       7A1    -0.116914     3B2    -0.047025     3B1    -0.037506
       8A1    -0.008859     4B2     0.058003     4B1     0.063726
       9A1     0.091938     1A2     0.116622    10A1     0.121962
       5B1     0.599114     5B2     0.616451    11A1     0.619069
      12A1     1.372257     2A2     3.580541     6B1     3.586233
      13A1     3.593427    14A1     3.616671     6B2     3.619102

    Final Occupation by Irrep:
             A1    A2    B1    B2
    DOCC [     3,    0,    1,    0 ]
    SOCC [     2,    0,    1,    1 ]
    NA   [     5,    0,    2,    1 ]
    NB   [     3,    0,    1,    0 ]

  @DF-UKS Final Energy:  -134.52313817529622

   => Energetics <=

    Nuclear Repulsion Energy =              6.9533900307039707
    One-Electron Energy =                -192.5941688202081536
    Two-Electron Energy =                  61.9728800029356179
    DFT Exchange-Correlation Energy =     -10.8552393887276484
    Empirical Dispersion Energy =           0.0000000000000000
    VV10 Nonlocal Energy =                  0.0000000000000000
    Total Energy =                       -134.5231381752962250

  UHF NO Occupations:
  HONO-2 :    1 B2 1.0000000
  HONO-1 :    2 B1 1.0000000
  HONO-0 :    5 A1 1.0000000
  LUNO+0 :    6 A1 0.0004873
  LUNO+1 :    3 B1 0.0001415
  LUNO+2 :    7 A1 0.0000010
  LUNO+3 :    8 A1 0.0000000

Computation Completed

Properties will be evaluated at   0.000000,   0.000000,   0.000000 [a0]

Properties computed using the SCF density matrix

 Multipole Moments:

 ------------------------------------------------------------------------------------
     Multipole            Electronic (a.u.)      Nuclear  (a.u.)        Total (a.u.)
 ------------------------------------------------------------------------------------

 L = 1.  Multiply by 2.5417464519 to convert [e a0] to [Debye]
 Dipole X            :          0.0000000            0.0000000            0.0000000
 Dipole Y            :          0.0000000            0.0000000            0.0000000
 Dipole Z            :         -0.2289190           -1.6266295           -1.8555485
 Magnitude           :                                                    1.8555485

 ------------------------------------------------------------------------------------

*** tstop() called on Joses-MacBook-Pro-2.local at Thu Jul 17 12:51:00 2025
Module time:
	user time   =       1.60 seconds =       0.03 minutes
	system time =       4.01 seconds =       0.07 minutes
	total time  =          1 seconds =       0.02 minutes
Total time:
	user time   =      23.77 seconds =       0.40 minutes
	system time =      55.77 seconds =       0.93 minutes
	total time  =          8 seconds =       0.13 minutes

*** tstart() called on Joses-MacBook-Pro-2.local
*** at Thu Jul 17 12:51:00 2025

         ------------------------------------------------------------
                                   SCF GRAD
                          Rob Parrish, Justin Turney,
                       Andy Simmonett, and Alex Sokolov
         ------------------------------------------------------------

  ==> Geometry <==

    Molecular point group: c2v
    Full point group: C_inf_v

    Geometry (in Angstrom), charge = 1, multiplicity = 5:

       Center              X                  Y                   Z               Mass
    ------------   -----------------  -----------------  -----------------  -----------------
         LI           0.000000000000     0.000000000000     1.690020776746     7.016003436600
         NE           0.000000000000     0.000000000000    -0.593083759315    19.992440176200

  Nuclear repulsion =    6.953390030703971

  ==> Basis Set <==

  Basis Set: CC-PVDZ
    Blend: CC-PVDZ
    Number of shells: 12
    Number of basis functions: 28
    Number of Cartesian functions: 30
    Spherical Harmonics?: true
    Max angular momentum: 2

  ==> DFJKGrad: Density-Fitted SCF Gradients <==

    Gradient:                    1
    J tasked:                  Yes
    K tasked:                  Yes
    wK tasked:                  No
    OpenMP threads:              1
    Integrals threads:           1
    Memory [MiB]:              375
    Schwarz Cutoff:          1E-12
    Fitting Condition:       1E-10

   => Auxiliary Basis Set <=

  Basis Set: (CC-PVDZ AUX)
    Blend: CC-PVDZ-JKFIT + DEF2-UNIVERSAL-JKFIT
    Number of shells: 41
    Number of basis functions: 121
    Number of Cartesian functions: 141
    Spherical Harmonics?: true
    Max angular momentum: 3

  ==> DFT Potential <==

   => LibXC <=

    Version 6.2.2
    S. Lehtola, C. Steigemann, M. J.T. Oliveira, and M. A.L. Marques.,  SoftwareX 7, 1â€“5 (2018) (10.1016/j.softx.2017.11.002)

   => Composite Functional: B3LYP <=

    B3LYP Hyb-GGA Exchange-Correlation Functional

    P. J. Stephens, F. J. Devlin, C. F. Chabalowski, and M. J. Frisch.,  J. Phys. Chem. 98, 11623 (1994) (10.1021/j100096a001)

    Deriv               =              1
    GGA                 =           TRUE
    Meta                =          FALSE

    Exchange Hybrid     =           TRUE
    MP2 Hybrid          =          FALSE

   => Exchange Functionals <=

    0.0800   Slater exchange
    0.7200         Becke 88

   => Exact (HF) Exchange <=

    0.2000               HF

   => Correlation Functionals <=

    0.1900   Vosko, Wilk & Nusair (VWN5_RPA)
    0.8100   Lee, Yang & Parr

   => LibXC Density Thresholds  <==

    XC_HYB_GGA_XC_B3LYP:  1.00E-15

   => Molecular Quadrature <=

    Radial Scheme          =       TREUTLER
    Pruning Scheme         =           NONE
    Nuclear Scheme         =       TREUTLER

    Blocking Scheme        =         OCTREE
    BS radius alpha        =              1
    Pruning alpha          =              1
    Radial Points          =             75
    Spherical Points       =            302
    Total Points           =          44315
    Total Blocks           =            419
    Max Points             =            253
    Max Functions          =             28
    Weights Tolerance      =       1.00E-15

  -Total Gradient:
     Atom            X                  Y                   Z
    ------   -----------------  -----------------  -----------------
       1        0.000000000000    -0.000000000000    -0.000102406011
       2        0.000000000000    -0.000000000000     0.000005155244

*** tstop() called on Joses-MacBook-Pro-2.local at Thu Jul 17 12:51:00 2025
Module time:
	user time   =       0.54 seconds =       0.01 minutes
	system time =       1.36 seconds =       0.02 minutes
	total time  =          0 seconds =       0.00 minutes
Total time:
	user time   =      24.31 seconds =       0.41 minutes
	system time =      57.14 seconds =       0.95 minutes
	total time  =          8 seconds =       0.13 minutes

    			-----------------------------------------

    			 OPTKING 3.0: for geometry optimizations

    			     By R.A. King, Bethel University

    			        with contributions from

    			    A.V. Copan, J. Cayton, A. Heide

    			-----------------------------------------

	                            ===> Fragment 1 <==

	 Z (Atomic Numbers)          Masses                          Geom
	       3.000000             7.016003          0.00000000  0.00000000  3.19367641
	      10.000000            19.992440          0.00000000  0.00000000 -1.12076587

	 - Coordinate -           - BOHR/RAD -       - ANG/DEG -
	 R(1,2)           =         4.314442           2.283105

	        --- Internal Coordinate Step in ANG or DEG, aJ/ANG or AJ/DEG ---
	-------------------------------------------------------------------------------
	           Coordinate      Previous         Force          Change          New
	           ----------      --------        ------          ------        ------
	               R(1,2)       2.28310        0.00044        0.00034       2.28344
	-------------------------------------------------------------------------------

	                                 ==> Convergence Check <==

	Measures of convergence in internal coordinates in au.

	Criteria marked as inactive (o), active & met (*), and active & unmet ( ).

	----------------------------------------------------------------------------------------------
	   Step    Total Energy     Delta E     Max Force     RMS Force      Max Disp      RMS Disp
	----------------------------------------------------------------------------------------------
	  Convergence Criteria     1.00e-06 *    3.00e-04 *             o    1.20e-03 *             o
	----------------------------------------------------------------------------------------------
	     9    -134.52313818   -6.50e-07 *    5.38e-05 *    5.38e-05 o    6.37e-04 *    6.37e-04 o  ~
	----------------------------------------------------------------------------------------------

Next Geometry in Ang
	Fragment 1 (Ang)

	   Li   0.0000000000   0.0000000000   1.6901893346
	   Ne   0.0000000000   0.0000000000  -0.5932523172

    Final optimized geometry and variables:
    Molecular point group: c2v
    Full point group: C_inf_v

    Geometry (in Angstrom), charge = 1, multiplicity = 5:

    LI           0.000000000000     0.000000000000     1.690020776746
    NE           0.000000000000     0.000000000000    -0.593083759315

    Psi4 stopped on: Thursday, 17 July 2025 12:51PM
    Psi4 wall time for execution: 0:00:08.92

*** Psi4 exiting successfully. Buy a developer a beer!
