                               Psi4 1.9.1 release

  ==> Input File <==

--------------------------------------------------------------------------
molecule {
1 5
Li   0.00000        0.60000        0.00000
Si   0.00000       -0.60000        0.00000
}

set {
basis              cc-pvdz
reference          uks
maxiter            500
geom_maxiter       500
DAMPING_PERCENTAGE 1
guess              SAP
}

optimize('b3lyp')
--------------------------------------------------------------------------

    Molecular point group: c2v
  Charge       = 1
  Multiplicity = 5
  Basis Set: CC-PVDZ
    Blend: CC-PVDZ
  Basis Set: (CC-PVDZ AUX)
    Blend: CC-PVDZ-JKFIT + DEF2-UNIVERSAL-JKFIT
  @DF-UKS Final Energy:  -296.04019145607811
    Total Energy =                       -296.0401914560780483
 Dipole X            :          0.0000000            0.0000000            0.0000000
 Dipole Y            :          0.0000000            0.0000000            0.0000000
 Dipole Z            :          1.9169013           -0.9262567            0.9906446
 Magnitude           :                                                    0.9906446
    Molecular point group: c2v
  Basis Set: CC-PVDZ
    Blend: CC-PVDZ
  Basis Set: (CC-PVDZ AUX)
    Blend: CC-PVDZ-JKFIT + DEF2-UNIVERSAL-JKFIT
  Basis Set: CC-PVDZ
    Blend: CC-PVDZ
  Basis Set: (CC-PVDZ AUX)
    Blend: CC-PVDZ-JKFIT + DEF2-UNIVERSAL-JKFIT
  @DF-UKS Final Energy:  -296.14127535008498
    Total Energy =                       -296.1412753500850386
  Basis Set: CC-PVDZ
    Blend: CC-PVDZ
  Basis Set: (CC-PVDZ AUX)
    Blend: CC-PVDZ-JKFIT + DEF2-UNIVERSAL-JKFIT
  Basis Set: CC-PVDZ
    Blend: CC-PVDZ
  @DF-UKS Final Energy:  -296.26040617723737
    Total Energy =                       -296.2604061772373143
  @DF-UKS Final Energy:  -296.39308343370709
    Total Energy =                       -296.3930834337071474
  @DF-UKS Final Energy:  -296.45927530673879
    Total Energy =                       -296.4592753067387889
  @DF-UKS Final Energy:  -296.49327207462289
    Total Energy =                       -296.4932720746228938
  @DF-UKS Final Energy:  -296.51078807469344
    Total Energy =                       -296.5107880746934370
  @DF-UKS Final Energy:  -296.51922625705174
    Total Energy =                       -296.5192262570517414
  @DF-UKS Final Energy:  -296.52276098134206
    Total Energy =                       -296.5227609813420599
  @DF-UKS Final Energy:  -296.52394869247212
    Total Energy =                       -296.5239486924721177
  @DF-UKS Final Energy:  -296.52421061617099
    Total Energy =                       -296.5242106161709899
  @DF-UKS Final Energy:  -296.52423524662436
    Total Energy =                       -296.5242352466244142
  Basis Set: (CC-PVDZ AUX)
    Blend: CC-PVDZ-JKFIT + DEF2-UNIVERSAL-JKFIT
  Basis Set: CC-PVDZ
    Blend: CC-PVDZ
  Basis Set: (CC-PVDZ AUX)
    Blend: CC-PVDZ-JKFIT + DEF2-UNIVERSAL-JKFIT
  @DF-UKS Final Energy:  -296.52423757306690
    Total Energy =                       -296.5242375730667845
  Basis Set: CC-PVDZ
    Blend: CC-PVDZ
  Basis Set: (CC-PVDZ AUX)
    Blend: CC-PVDZ-JKFIT + DEF2-UNIVERSAL-JKFIT
  Charge       = 1
  Multiplicity = 5
  Basis Set: CC-PVDZ
    Blend: CC-PVDZ
  Basis Set: (CC-PVDZ AUX)
    Blend: CC-PVDZ-JKFIT + DEF2-UNIVERSAL-JKFIT

    Orbital Energies [Eh]
    ---------------------

    Alpha Occupied:

       1A1   -66.404867     2A1    -5.548109     3A1    -3.908690
       1B1    -3.907565     1B2    -3.907565     4A1    -2.303806
       5A1    -0.699324     6A1    -0.434581     2B2    -0.406611
       2B1    -0.406611

    Alpha Virtual:

       7A1    -0.224659     3B1    -0.177636     3B2    -0.177636
       8A1    -0.137691     9A1    -0.086796     4B1    -0.063270
       4B2    -0.063270    10A1    -0.040560     5B2     0.028175
       5B1     0.028175    11A1     0.048866     1A2     0.053310
      12A1     0.053311     6B1     0.129502     6B2     0.129502
      13A1     0.138739     2A2     0.138740    14A1     0.158431
      15A1     0.202554     7B1     0.244843     7B2     0.244843
      16A1     0.410104

    Beta Occupied:

       1A1   -66.388778     2A1    -5.527026     3A1    -3.887221
       1B1    -3.884518     1B2    -3.884518     4A1    -2.302175

    Beta Virtual:

       5A1    -0.472277     6A1    -0.270805     2B2    -0.225652
       2B1    -0.225652     7A1    -0.206867     3B2    -0.156342
       3B1    -0.156342     8A1    -0.107199     4B2    -0.058361
       4B1    -0.058361     9A1    -0.049917    10A1    -0.037516
       1A2     0.070425    11A1     0.070434     5B1     0.076178
       5B2     0.076178    12A1     0.100751     6B1     0.207098
       6B2     0.207098    13A1     0.241649    14A1     0.255126
      15A1     0.272012     2A2     0.272088     7B1     0.339018
       7B2     0.339018    16A1     0.489248

    Final Occupation by Irrep:
             A1    A2    B1    B2
    DOCC [     4,    0,    1,    1 ]
    SOCC [     2,    0,    1,    1 ]
    NA   [     6,    0,    2,    2 ]
    NB   [     4,    0,    1,    1 ]

  @DF-UKS Final Energy:  -296.52423776208281

   => Energetics <=

    Nuclear Repulsion Energy =              7.6328850637337728
    One-Electron Energy =                -421.5686336433659562
    Two-Electron Energy =                 135.5670485018709712
    DFT Exchange-Correlation Energy =     -18.1555376843216010
    Empirical Dispersion Energy =           0.0000000000000000
    VV10 Nonlocal Energy =                  0.0000000000000000
    Total Energy =                       -296.5242377620828051

  UHF NO Occupations:
  HONO-2 :    5 A1 1.0000000
  HONO-1 :    2 B1 1.0000000
  HONO-0 :    6 A1 1.0000000
  LUNO+0 :    7 A1 0.0000006
  LUNO+1 :    3 B1 0.0000002
  LUNO+2 :    3 B2 0.0000002
  LUNO+3 :    8 A1 0.0000001

Computation Completed

Properties will be evaluated at   0.000000,   0.000000,   0.000000 [a0]

Properties computed using the SCF density matrix

 Multipole Moments:

 ------------------------------------------------------------------------------------
     Multipole            Electronic (a.u.)      Nuclear  (a.u.)        Total (a.u.)
 ------------------------------------------------------------------------------------

 L = 1.  Multiply by 2.5417464519 to convert [e a0] to [Debye]
 Dipole X            :          0.0000000            0.0000000            0.0000000
 Dipole Y            :          0.0000000            0.0000000            0.0000000
 Dipole Z            :          5.5166459           -2.2475627            3.2690832
 Magnitude           :                                                    3.2690832

 ------------------------------------------------------------------------------------

*** tstop() called on Joses-MacBook-Pro-2.local at Thu Jul 17 12:54:27 2025
Module time:
	user time   =       2.64 seconds =       0.04 minutes
	system time =       3.46 seconds =       0.06 minutes
	total time  =          1 seconds =       0.02 minutes
Total time:
	user time   =      66.87 seconds =       1.11 minutes
	system time =      68.95 seconds =       1.15 minutes
	total time  =         15 seconds =       0.25 minutes

*** tstart() called on Joses-MacBook-Pro-2.local
*** at Thu Jul 17 12:54:27 2025

         ------------------------------------------------------------
                                   SCF GRAD
                          Rob Parrish, Justin Turney,
                       Andy Simmonett, and Alex Sokolov
         ------------------------------------------------------------

  ==> Geometry <==

    Molecular point group: c2v
    Full point group: C_inf_v

    Geometry (in Angstrom), charge = 1, multiplicity = 5:

       Center              X                  Y                   Z               Mass
    ------------   -----------------  -----------------  -----------------  -----------------
         LI           0.000000000000     0.000000000000     2.327991526039     7.016003436600
         SI           0.000000000000     0.000000000000    -0.583809537722    27.976926534650

  Nuclear repulsion =    7.632885063733773

  ==> Basis Set <==

  Basis Set: CC-PVDZ
    Blend: CC-PVDZ
    Number of shells: 14
    Number of basis functions: 32
    Number of Cartesian functions: 34
    Spherical Harmonics?: true
    Max angular momentum: 2

  ==> DFJKGrad: Density-Fitted SCF Gradients <==

    Gradient:                    1
    J tasked:                  Yes
    K tasked:                  Yes
    wK tasked:                  No
    OpenMP threads:              1
    Integrals threads:           1
    Memory [MiB]:              375
    Schwarz Cutoff:          1E-12
    Fitting Condition:       1E-10

   => Auxiliary Basis Set <=

  Basis Set: (CC-PVDZ AUX)
    Blend: CC-PVDZ-JKFIT + DEF2-UNIVERSAL-JKFIT
    Number of shells: 53
    Number of basis functions: 163
    Number of Cartesian functions: 190
    Spherical Harmonics?: true
    Max angular momentum: 3

  ==> DFT Potential <==

   => LibXC <=

    Version 6.2.2
    S. Lehtola, C. Steigemann, M. J.T. Oliveira, and M. A.L. Marques.,  SoftwareX 7, 1â€“5 (2018) (10.1016/j.softx.2017.11.002)

   => Composite Functional: B3LYP <=

    B3LYP Hyb-GGA Exchange-Correlation Functional

    P. J. Stephens, F. J. Devlin, C. F. Chabalowski, and M. J. Frisch.,  J. Phys. Chem. 98, 11623 (1994) (10.1021/j100096a001)

    Deriv               =              1
    GGA                 =           TRUE
    Meta                =          FALSE

    Exchange Hybrid     =           TRUE
    MP2 Hybrid          =          FALSE

   => Exchange Functionals <=

    0.0800   Slater exchange
    0.7200         Becke 88

   => Exact (HF) Exchange <=

    0.2000               HF

   => Correlation Functionals <=

    0.1900   Vosko, Wilk & Nusair (VWN5_RPA)
    0.8100   Lee, Yang & Parr

   => LibXC Density Thresholds  <==

    XC_HYB_GGA_XC_B3LYP:  1.00E-15

   => Molecular Quadrature <=

    Radial Scheme          =       TREUTLER
    Pruning Scheme         =           NONE
    Nuclear Scheme         =       TREUTLER

    Blocking Scheme        =         OCTREE
    BS radius alpha        =              1
    Pruning alpha          =              1
    Radial Points          =             75
    Spherical Points       =            302
    Total Points           =          44145
    Total Blocks           =            441
    Max Points             =            255
    Max Functions          =             32
    Weights Tolerance      =       1.00E-15

  -Total Gradient:
     Atom            X                  Y                   Z
    ------   -----------------  -----------------  -----------------
       1        0.000000000000     0.000000000000    -0.000011471462
       2        0.000000000000     0.000000000000     0.000038838640

*** tstop() called on Joses-MacBook-Pro-2.local at Thu Jul 17 12:54:27 2025
Module time:
	user time   =       0.71 seconds =       0.01 minutes
	system time =       1.84 seconds =       0.03 minutes
	total time  =          0 seconds =       0.00 minutes
Total time:
	user time   =      67.59 seconds =       1.13 minutes
	system time =      70.79 seconds =       1.18 minutes
	total time  =         15 seconds =       0.25 minutes

    			-----------------------------------------

    			 OPTKING 3.0: for geometry optimizations

    			     By R.A. King, Bethel University

    			        with contributions from

    			    A.V. Copan, J. Cayton, A. Heide

    			-----------------------------------------

	                            ===> Fragment 1 <==

	 Z (Atomic Numbers)          Masses                          Geom
	       3.000000             7.016003          0.00000000  0.00000000  4.39926641
	      14.000000            27.976927          0.00000000  0.00000000 -1.10324014

	 - Coordinate -           - BOHR/RAD -       - ANG/DEG -
	 R(1,2)           =         5.502507           2.911801

	        --- Internal Coordinate Step in ANG or DEG, aJ/ANG or AJ/DEG ---
	-------------------------------------------------------------------------------
	           Coordinate      Previous         Force          Change          New
	           ----------      --------        ------          ------        ------
	               R(1,2)       2.91180        0.00021        0.00111       2.91291
	-------------------------------------------------------------------------------

	                                 ==> Convergence Check <==

	Measures of convergence in internal coordinates in au.

	Criteria marked as inactive (o), active & met (*), and active & unmet ( ).

	----------------------------------------------------------------------------------------------
	   Step    Total Energy     Delta E     Max Force     RMS Force      Max Disp      RMS Disp
	----------------------------------------------------------------------------------------------
	  Convergence Criteria     1.00e-06 *    3.00e-04 *             o    1.20e-03 *             o
	----------------------------------------------------------------------------------------------
	    14    -296.52423776   -1.89e-07 *    2.52e-05 *    2.52e-05 o    2.09e-03      2.09e-03 o  ~
	----------------------------------------------------------------------------------------------

Next Geometry in Ang
	Fragment 1 (Ang)

	   Li   0.0000000000   0.0000000000   2.3285450772
	   Si   0.0000000000   0.0000000000  -0.5843630889

    Final optimized geometry and variables:
    Molecular point group: c2v
    Full point group: C_inf_v

    Geometry (in Angstrom), charge = 1, multiplicity = 5:

    LI           0.000000000000     0.000000000000     2.327991526039
    SI           0.000000000000     0.000000000000    -0.583809537722

    Psi4 stopped on: Thursday, 17 July 2025 12:54PM
    Psi4 wall time for execution: 0:00:15.03

*** Psi4 exiting successfully. Buy a developer a beer!
