                               Psi4 1.9.1 release

  ==> Input File <==

--------------------------------------------------------------------------
molecule {
1 5
He   0.00000        0.60000        0.00000
Al   0.00000       -0.60000        0.00000
}

set {
basis              cc-pvdz
reference          uks
maxiter            500
geom_maxiter       500
DAMPING_PERCENTAGE 1
guess              SAP
}

optimize('b3lyp')
--------------------------------------------------------------------------

    Molecular point group: c2v
  Charge       = 1
  Multiplicity = 5
  Basis Set: CC-PVDZ
    Blend: CC-PVDZ
  Basis Set: (CC-PVDZ AUX)
    Blend: CC-PVDZ-JKFIT + DEF2-UNIVERSAL-JKFIT
  @DF-UKS Final Energy:  -243.85556277831265
    Total Energy =                       -243.8555627783126454
 Dipole X            :          0.0000000            0.0000000            0.0000000
 Dipole Y            :          0.0000000            0.0000000            0.0000000
 Dipole Z            :          0.8111706            0.1411971            0.9523677
 Magnitude           :                                                    0.9523677
    Molecular point group: c2v
  Basis Set: CC-PVDZ
    Blend: CC-PVDZ
  Basis Set: (CC-PVDZ AUX)
    Blend: CC-PVDZ-JKFIT + DEF2-UNIVERSAL-JKFIT
  Basis Set: CC-PVDZ
    Blend: CC-PVDZ
  Basis Set: (CC-PVDZ AUX)
    Blend: CC-PVDZ-JKFIT + DEF2-UNIVERSAL-JKFIT
  @DF-UKS Final Energy:  -244.02835920460899
    Total Energy =                       -244.0283592046090178
  Basis Set: CC-PVDZ
    Blend: CC-PVDZ
  Basis Set: (CC-PVDZ AUX)
    Blend: CC-PVDZ-JKFIT + DEF2-UNIVERSAL-JKFIT
  Basis Set: CC-PVDZ
    Blend: CC-PVDZ
  @DF-UKS Final Energy:  -244.10826290146258
    Total Energy =                       -244.1082629014625809
  @DF-UKS Final Energy:  -244.16095910510938
    Total Energy =                       -244.1609591051093844
  @DF-UKS Final Energy:  -244.18943544052368
    Total Energy =                       -244.1894354405236811
  @DF-UKS Final Energy:  -244.20529462148539
    Total Energy =                       -244.2052946214853932
  @DF-UKS Final Energy:  -244.21450456295668
    Total Energy =                       -244.2145045629566766
  @DF-UKS Final Energy:  -244.22019522737202
    Total Energy =                       -244.2201952273720167
  @DF-UKS Final Energy:  -244.22396745696685
    Total Energy =                       -244.2239674569668182
  @DF-UKS Final Energy:  -244.22421474540360
    Total Energy =                       -244.2242147454036285
  @DF-UKS Final Energy:  -244.22714828874203
    Total Energy =                       -244.2271482887420575
  @DF-UKS Final Energy:  -244.22725893268722
    Total Energy =                       -244.2272589326872207
  @DF-UKS Final Energy:  -244.22933354136453
    Total Energy =                       -244.2293335413645536
  @DF-UKS Final Energy:  -244.22939132788920
    Total Energy =                       -244.2293913278892035
  @DF-UKS Final Energy:  -244.23091251397383
    Total Energy =                       -244.2309125139738626
  @DF-UKS Final Energy:  -244.23094595392121
    Total Energy =                       -244.2309459539212071
  @DF-UKS Final Energy:  -244.23207402068812
    Total Energy =                       -244.2320740206881169
  @DF-UKS Final Energy:  -244.23209408283824
    Total Energy =                       -244.2320940828382447
  @DF-UKS Final Energy:  -244.23294226517629
    Total Energy =                       -244.2329422651762911
  @DF-UKS Final Energy:  -244.23295472441089
    Total Energy =                       -244.2329547244108596
  @DF-UKS Final Energy:  -244.23450333907863
    Total Energy =                       -244.2345033390786853
  @DF-UKS Final Energy:  -244.23450659525901
    Total Energy =                       -244.2345065952590062
  @DF-UKS Final Energy:  -244.23450983843748
    Total Energy =                       -244.2345098384374751
  @DF-UKS Final Energy:  -244.23451306869040
    Total Energy =                       -244.2345130686904042
  @DF-UKS Final Energy:  -244.23480936836998
    Total Energy =                       -244.2348093683699801
  @DF-UKS Final Energy:  -244.23481153591814
    Total Energy =                       -244.2348115359181406
  @DF-UKS Final Energy:  -244.23481369498009
    Total Energy =                       -244.2348136949800903
  @DF-UKS Final Energy:  -244.23481584725511
    Total Energy =                       -244.2348158472551063
  @DF-UKS Final Energy:  -244.23481799278275
    Total Energy =                       -244.2348179927827516
  @DF-UKS Final Energy:  -244.23482013162976
    Total Energy =                       -244.2348201316297605
  @DF-UKS Final Energy:  -244.23505504806531
    Total Energy =                       -244.2350550480653055
  @DF-UKS Final Energy:  -244.23505650693360
    Total Energy =                       -244.2350565069335744
  @DF-UKS Final Energy:  -244.23505796120932
    Total Energy =                       -244.2350579612093213
  @DF-UKS Final Energy:  -244.23505941186303
    Total Energy =                       -244.2350594118630340
  @DF-UKS Final Energy:  -244.23506085894837
    Total Energy =                       -244.2350608589483727
  @DF-UKS Final Energy:  -244.23506230244539
    Total Energy =                       -244.2350623024453853
  @DF-UKS Final Energy:  -244.23506374239707
    Total Energy =                       -244.2350637423970738
  @DF-UKS Final Energy:  -244.23506517881404
    Total Energy =                       -244.2350651788140681
  Basis Set: (CC-PVDZ AUX)
    Blend: CC-PVDZ-JKFIT + DEF2-UNIVERSAL-JKFIT
  Basis Set: CC-PVDZ
    Blend: CC-PVDZ
  Basis Set: (CC-PVDZ AUX)
    Blend: CC-PVDZ-JKFIT + DEF2-UNIVERSAL-JKFIT
  @DF-UKS Final Energy:  -244.23525296750893
    Total Energy =                       -244.2352529675089272
  Basis Set: CC-PVDZ
    Blend: CC-PVDZ
  Basis Set: (CC-PVDZ AUX)
    Blend: CC-PVDZ-JKFIT + DEF2-UNIVERSAL-JKFIT
  Charge       = 1
  Multiplicity = 5
  Basis Set: CC-PVDZ
    Blend: CC-PVDZ
  Basis Set: (CC-PVDZ AUX)
    Blend: CC-PVDZ-JKFIT + DEF2-UNIVERSAL-JKFIT

    Orbital Energies [Eh]
    ---------------------

    Alpha Occupied:

       1A1   -56.186723     2A1    -4.266931     3A1    -2.822490
       1B1    -2.818452     1B2    -2.818452     4A1    -1.632994
       5A1    -0.436699     2B2    -0.226637     2B1    -0.226637

    Alpha Virtual:

       6A1    -0.171285     7A1     0.075672     3B2     0.125498
       3B1     0.125498     8A1     0.131037     1A2     0.156275
       9A1     0.156275     4B2     0.159851     4B1     0.159851
      10A1     0.169459    11A1     0.387629    12A1     1.323824
       5B1     1.323842     5B2     1.323842

    Beta Occupied:

       1A1   -56.177600     2A1    -4.253666     3A1    -2.814744
       1B1    -2.803247     1B2    -2.803247

    Beta Virtual:

       4A1    -0.959104     5A1    -0.274758     6A1    -0.109446
       2B2    -0.078942     2B1    -0.078942     7A1     0.128170
       8A1     0.162947     3B2     0.187284     3B1     0.187284
       9A1     0.240123     4B2     0.249046     4B1     0.249046
      10A1     0.274093     1A2     0.274093    11A1     0.732327
       5B2     1.677313     5B1     1.677313    12A1     1.677345

    Final Occupation by Irrep:
             A1    A2    B1    B2
    DOCC [     3,    0,    1,    1 ]
    SOCC [     2,    0,    1,    1 ]
    NA   [     5,    0,    2,    2 ]
    NB   [     3,    0,    1,    1 ]

  @DF-UKS Final Energy:  -244.23525396419632

   => Energetics <=

    Nuclear Repulsion Energy =              1.6772044261829839
    One-Electron Energy =                -340.4979056006616247
    Two-Electron Energy =                 110.0532379290708889
    DFT Exchange-Correlation Energy =     -15.4677907187885726
    Empirical Dispersion Energy =           0.0000000000000000
    VV10 Nonlocal Energy =                  0.0000000000000000
    Total Energy =                       -244.2352539641963176

  UHF NO Occupations:
  HONO-2 :    2 B1 1.0000000
  HONO-1 :    2 B2 1.0000000
  HONO-0 :    5 A1 1.0000000
  LUNO+0 :    6 A1 0.0000009
  LUNO+1 :    3 B1 0.0000002
  LUNO+2 :    3 B2 0.0000002
  LUNO+3 :    7 A1 0.0000001

Computation Completed

Properties will be evaluated at   0.000000,   0.000000,   0.000000 [a0]

Properties computed using the SCF density matrix

 Multipole Moments:

 ------------------------------------------------------------------------------------
     Multipole            Electronic (a.u.)      Nuclear  (a.u.)        Total (a.u.)
 ------------------------------------------------------------------------------------

 L = 1.  Multiply by 2.5417464519 to convert [e a0] to [Debye]
 Dipole X            :          0.0000000            0.0000000            0.0000000
 Dipole Y            :          0.0000000            0.0000000            0.0000000
 Dipole Z            :         12.4204494            0.9652348           13.3856842
 Magnitude           :                                                   13.3856842

 ------------------------------------------------------------------------------------

*** tstop() called on Joses-MacBook-Pro-2.local at Thu Jul 17 12:37:13 2025
Module time:
	user time   =       1.34 seconds =       0.02 minutes
	system time =       1.62 seconds =       0.03 minutes
	total time  =          0 seconds =       0.00 minutes
Total time:
	user time   =     123.17 seconds =       2.05 minutes
	system time =     187.13 seconds =       3.12 minutes
	total time  =         29 seconds =       0.48 minutes

*** tstart() called on Joses-MacBook-Pro-2.local
*** at Thu Jul 17 12:37:13 2025

         ------------------------------------------------------------
                                   SCF GRAD
                          Rob Parrish, Justin Turney,
                       Andy Simmonett, and Alex Sokolov
         ------------------------------------------------------------

  ==> Geometry <==

    Molecular point group: c2v
    Full point group: C_inf_v

    Geometry (in Angstrom), charge = 1, multiplicity = 5:

       Center              X                  Y                   Z               Mass
    ------------   -----------------  -----------------  -----------------  -----------------
         HE           0.000000000000     0.000000000000     7.143576826552     4.002603254130
         AL           0.000000000000     0.000000000000    -1.059721031856    26.981538530000

  Nuclear repulsion =    1.677204426182984

  ==> Basis Set <==

  Basis Set: CC-PVDZ
    Blend: CC-PVDZ
    Number of shells: 11
    Number of basis functions: 23
    Number of Cartesian functions: 24
    Spherical Harmonics?: true
    Max angular momentum: 2

  ==> DFJKGrad: Density-Fitted SCF Gradients <==

    Gradient:                    1
    J tasked:                  Yes
    K tasked:                  Yes
    wK tasked:                  No
    OpenMP threads:              1
    Integrals threads:           1
    Memory [MiB]:              375
    Schwarz Cutoff:          1E-12
    Fitting Condition:       1E-10

   => Auxiliary Basis Set <=

  Basis Set: (CC-PVDZ AUX)
    Blend: CC-PVDZ-JKFIT + DEF2-UNIVERSAL-JKFIT
    Number of shells: 45
    Number of basis functions: 135
    Number of Cartesian functions: 155
    Spherical Harmonics?: true
    Max angular momentum: 3

  ==> DFT Potential <==

   => LibXC <=

    Version 6.2.2
    S. Lehtola, C. Steigemann, M. J.T. Oliveira, and M. A.L. Marques.,  SoftwareX 7, 1â€“5 (2018) (10.1016/j.softx.2017.11.002)

   => Composite Functional: B3LYP <=

    B3LYP Hyb-GGA Exchange-Correlation Functional

    P. J. Stephens, F. J. Devlin, C. F. Chabalowski, and M. J. Frisch.,  J. Phys. Chem. 98, 11623 (1994) (10.1021/j100096a001)

    Deriv               =              1
    GGA                 =           TRUE
    Meta                =          FALSE

    Exchange Hybrid     =           TRUE
    MP2 Hybrid          =          FALSE

   => Exchange Functionals <=

    0.0800   Slater exchange
    0.7200         Becke 88

   => Exact (HF) Exchange <=

    0.2000               HF

   => Correlation Functionals <=

    0.1900   Vosko, Wilk & Nusair (VWN5_RPA)
    0.8100   Lee, Yang & Parr

   => LibXC Density Thresholds  <==

    XC_HYB_GGA_XC_B3LYP:  1.00E-15

   => Molecular Quadrature <=

    Radial Scheme          =       TREUTLER
    Pruning Scheme         =           NONE
    Nuclear Scheme         =       TREUTLER

    Blocking Scheme        =         OCTREE
    BS radius alpha        =              1
    Pruning alpha          =              1
    Radial Points          =             75
    Spherical Points       =            302
    Total Points           =          43669
    Total Blocks           =            443
    Max Points             =            254
    Max Functions          =             23
    Weights Tolerance      =       1.00E-15

  -Total Gradient:
     Atom            X                  Y                   Z
    ------   -----------------  -----------------  -----------------
       1       -0.000000000000     0.000000000000    -0.000191411613
       2        0.000000000000    -0.000000000000     0.000190504258

*** tstop() called on Joses-MacBook-Pro-2.local at Thu Jul 17 12:37:13 2025
Module time:
	user time   =       0.59 seconds =       0.01 minutes
	system time =       0.88 seconds =       0.01 minutes
	total time  =          0 seconds =       0.00 minutes
Total time:
	user time   =     123.76 seconds =       2.06 minutes
	system time =     188.01 seconds =       3.13 minutes
	total time  =         29 seconds =       0.48 minutes

    			-----------------------------------------

    			 OPTKING 3.0: for geometry optimizations

    			     By R.A. King, Bethel University

    			        with contributions from

    			    A.V. Copan, J. Cayton, A. Heide

    			-----------------------------------------

	                            ===> Fragment 1 <==

	 Z (Atomic Numbers)          Masses                          Geom
	       2.000000             4.002603          0.00000000   0.00000000  13.49940376
	      13.000000            26.981539          0.00000000  0.00000000 -2.00258252

	 - Coordinate -           - BOHR/RAD -       - ANG/DEG -
	 R(1,2)           =        15.501986           8.203298

	        --- Internal Coordinate Step in ANG or DEG, aJ/ANG or AJ/DEG ---
	-------------------------------------------------------------------------------
	           Coordinate      Previous         Force          Change          New
	           ----------      --------        ------          ------        ------
	               R(1,2)       8.20330        0.00157        0.00277       8.20607
	-------------------------------------------------------------------------------

	                                 ==> Convergence Check <==

	Measures of convergence in internal coordinates in au.

	Criteria marked as inactive (o), active & met (*), and active & unmet ( ).

	----------------------------------------------------------------------------------------------
	   Step    Total Energy     Delta E     Max Force     RMS Force      Max Disp      RMS Disp
	----------------------------------------------------------------------------------------------
	  Convergence Criteria     1.00e-06 *    3.00e-04 *             o    1.20e-03 *             o
	----------------------------------------------------------------------------------------------
	    49    -244.23525396   -9.97e-07 *    1.91e-04 *    1.91e-04 o    5.24e-03      5.24e-03 o  ~
	----------------------------------------------------------------------------------------------

Next Geometry in Ang
	Fragment 1 (Ang)

	   He   0.0000000000   0.0000000000   7.1449631933
	   Al   0.0000000000   0.0000000000  -1.0611073986

    Final optimized geometry and variables:
    Molecular point group: c2v
    Full point group: C_inf_v

    Geometry (in Angstrom), charge = 1, multiplicity = 5:

    HE           0.000000000000     0.000000000000     7.143576826552
    AL           0.000000000000     0.000000000000    -1.059721031856

    Psi4 stopped on: Thursday, 17 July 2025 12:37PM
    Psi4 wall time for execution: 0:00:29.83

*** Psi4 exiting successfully. Buy a developer a beer!
