                               Psi4 1.9.1 release

  ==> Input File <==

--------------------------------------------------------------------------
molecule {
1 5
N   0.00000        0.60000        0.00000
S   0.00000       -0.60000        0.00000
}

set {
basis              cc-pvdz
reference          uks
maxiter            500
geom_maxiter       500
DAMPING_PERCENTAGE 1
guess              SAP
}

optimize('b3lyp')
--------------------------------------------------------------------------

    Molecular point group: c2v
  Charge       = 1
  Multiplicity = 5
  Basis Set: CC-PVDZ
    Blend: CC-PVDZ
  Basis Set: (CC-PVDZ AUX)
    Blend: CC-PVDZ-JKFIT
  @DF-UKS Final Energy:  -451.94200312119727
    Total Energy =                       -451.9420031211972741
 Dipole X            :          0.0000000            0.0000000            0.0000000
 Dipole Y            :          0.0000000            0.0000000            0.0000000
 Dipole Z            :          0.3421971           -0.0120688            0.3301282
 Magnitude           :                                                    0.3301282
    Molecular point group: c2v
  Basis Set: CC-PVDZ
    Blend: CC-PVDZ
  Basis Set: (CC-PVDZ AUX)
    Blend: CC-PVDZ-JKFIT
  Basis Set: CC-PVDZ
    Blend: CC-PVDZ
  Basis Set: (CC-PVDZ AUX)
    Blend: CC-PVDZ-JKFIT
  @DF-UKS Final Energy:  -452.17152361683333
    Total Energy =                       -452.1715236168332694
  Basis Set: CC-PVDZ
    Blend: CC-PVDZ
  Basis Set: (CC-PVDZ AUX)
    Blend: CC-PVDZ-JKFIT
  Basis Set: CC-PVDZ
    Blend: CC-PVDZ
  @DF-UKS Final Energy:  -452.26254683277222
    Total Energy =                       -452.2625468327722160
  @DF-UKS Final Energy:  -452.29409537286659
    Total Energy =                       -452.2940953728665932
  @DF-UKS Final Energy:  -452.31284160135766
    Total Energy =                       -452.3128416013576043
  @DF-UKS Final Energy:  -452.32162201363752
    Total Energy =                       -452.3216220136375227
  @DF-UKS Final Energy:  -452.32431811205834
    Total Energy =                       -452.3243181120583358
  @DF-UKS Final Energy:  -452.32553078077279
    Total Energy =                       -452.3255307807727945
  @DF-UKS Final Energy:  -452.32590749203916
    Total Energy =                       -452.3259074920392209
  @DF-UKS Final Energy:  -452.32606522507149
    Total Energy =                       -452.3260652250715452
  @DF-UKS Final Energy:  -452.32610817761650
    Total Energy =                       -452.3261081776164474
  Basis Set: (CC-PVDZ AUX)
    Blend: CC-PVDZ-JKFIT
  Basis Set: CC-PVDZ
    Blend: CC-PVDZ
  Basis Set: (CC-PVDZ AUX)
    Blend: CC-PVDZ-JKFIT
  @DF-UKS Final Energy:  -452.32611392529373
    Total Energy =                       -452.3261139252937255
  Basis Set: CC-PVDZ
    Blend: CC-PVDZ
  Basis Set: (CC-PVDZ AUX)
    Blend: CC-PVDZ-JKFIT
  Charge       = 1
  Multiplicity = 5
  Basis Set: CC-PVDZ
    Blend: CC-PVDZ
  Basis Set: (CC-PVDZ AUX)
    Blend: CC-PVDZ-JKFIT

    Orbital Energies [Eh]
    ---------------------

    Alpha Occupied:

       1A1   -89.325374     2A1   -14.813245     3A1    -8.378001
       4A1    -6.347177     1B2    -6.345168     1B1    -6.330034
       5A1    -1.235007     6A1    -1.024048     7A1    -0.766513
       2B2    -0.738012     2B1    -0.712223     3B2    -0.621001
       3B1    -0.588871

    Alpha Virtual:

       8A1    -0.374169     9A1     0.114109     4B2     0.154343
      10A1     0.160262     4B1     0.180330     5B2     0.180853
       5B1     0.203580     1A2     0.211211    11A1     0.211751
      12A1     0.353452     6B2     0.439645     6B1     0.454297
      13A1     0.515094    14A1     0.832051     2A2     1.344242
      15A1     1.344248     7B2     1.415556     7B1     1.433116
      16A1     1.808469

    Beta Occupied:

       1A1   -89.314735     2A1   -14.761885     3A1    -8.367217
       4A1    -6.334651     1B2    -6.321567     1B1    -6.317890
       5A1    -1.119449     6A1    -0.888750     2B1    -0.610893

    Beta Virtual:

       7A1    -0.576331     2B2    -0.532024     3B1    -0.420679
       3B2    -0.395419     8A1    -0.284336     9A1     0.154284
      10A1     0.192472     4B1     0.204939     4B2     0.210974
       5B1     0.262770     5B2     0.271488     1A2     0.286443
      11A1     0.289919    12A1     0.429917     6B1     0.521691
       6B2     0.527820    13A1     0.579706    14A1     0.899260
       2A2     1.477477    15A1     1.479194     7B1     1.538894
       7B2     1.545798    16A1     1.914813

    Final Occupation by Irrep:
             A1    A2    B1    B2
    DOCC [     6,    0,    2,    1 ]
    SOCC [     1,    0,    1,    2 ]
    NA   [     7,    0,    3,    3 ]
    NB   [     6,    0,    2,    1 ]

  @DF-UKS Final Energy:  -452.32611431223546

   => Energetics <=

    Nuclear Repulsion Energy =             32.6891617668236663
    One-Electron Energy =                -680.3120503716713756
    Two-Electron Energy =                 221.1844957556355382
    DFT Exchange-Correlation Energy =     -25.8877214630232366
    Empirical Dispersion Energy =           0.0000000000000000
    VV10 Nonlocal Energy =                  0.0000000000000000
    Total Energy =                       -452.3261143122354042

  UHF NO Occupations:
  HONO-2 :    2 B2 1.0000000
  HONO-1 :    3 B2 1.0000000
  HONO-0 :    7 A1 1.0000000
  LUNO+0 :    4 B1 0.0018471
  LUNO+1 :    8 A1 0.0009691
  LUNO+2 :    9 A1 0.0005205
  LUNO+3 :   10 A1 0.0000002

Computation Completed

Properties will be evaluated at   0.000000,   0.000000,   0.000000 [a0]

Properties computed using the SCF density matrix

 Multipole Moments:

 ------------------------------------------------------------------------------------
     Multipole            Electronic (a.u.)      Nuclear  (a.u.)        Total (a.u.)
 ------------------------------------------------------------------------------------

 L = 1.  Multiply by 2.5417464519 to convert [e a0] to [Debye]
 Dipole X            :          0.0000000            0.0000000            0.0000000
 Dipole Y            :          0.0000000            0.0000000            0.0000000
 Dipole Z            :         -0.0548225           -0.0182348           -0.0730573
 Magnitude           :                                                    0.0730573

 ------------------------------------------------------------------------------------

*** tstop() called on Joses-MacBook-Pro-2.local at Thu Jul 17 13:57:32 2025
Module time:
	user time   =       2.44 seconds =       0.04 minutes
	system time =       4.76 seconds =       0.08 minutes
	total time  =          1 seconds =       0.02 minutes
Total time:
	user time   =      50.26 seconds =       0.84 minutes
	system time =     104.30 seconds =       1.74 minutes
	total time  =         16 seconds =       0.27 minutes

*** tstart() called on Joses-MacBook-Pro-2.local
*** at Thu Jul 17 13:57:32 2025

         ------------------------------------------------------------
                                   SCF GRAD
                          Rob Parrish, Justin Turney,
                       Andy Simmonett, and Alex Sokolov
         ------------------------------------------------------------

  ==> Geometry <==

    Molecular point group: c2v
    Full point group: C_inf_v

    Geometry (in Angstrom), charge = 1, multiplicity = 5:

       Center              X                  Y                   Z               Mass
    ------------   -----------------  -----------------  -----------------  -----------------
         N            0.000000000000     0.000000000000     1.260848868155    14.003074004430
         S            0.000000000000     0.000000000000    -0.552224468439    31.972071174400

  Nuclear repulsion =   32.689161766823666

  ==> Basis Set <==

  Basis Set: CC-PVDZ
    Blend: CC-PVDZ
    Number of shells: 14
    Number of basis functions: 32
    Number of Cartesian functions: 34
    Spherical Harmonics?: true
    Max angular momentum: 2

  ==> DFJKGrad: Density-Fitted SCF Gradients <==

    Gradient:                    1
    J tasked:                  Yes
    K tasked:                  Yes
    wK tasked:                  No
    OpenMP threads:              1
    Integrals threads:           1
    Memory [MiB]:              375
    Schwarz Cutoff:          1E-12
    Fitting Condition:       1E-10

   => Auxiliary Basis Set <=

  Basis Set: (CC-PVDZ AUX)
    Blend: CC-PVDZ-JKFIT
    Number of shells: 60
    Number of basis functions: 182
    Number of Cartesian functions: 211
    Spherical Harmonics?: true
    Max angular momentum: 3

  ==> DFT Potential <==

   => LibXC <=

    Version 6.2.2
    S. Lehtola, C. Steigemann, M. J.T. Oliveira, and M. A.L. Marques.,  SoftwareX 7, 1â€“5 (2018) (10.1016/j.softx.2017.11.002)

   => Composite Functional: B3LYP <=

    B3LYP Hyb-GGA Exchange-Correlation Functional

    P. J. Stephens, F. J. Devlin, C. F. Chabalowski, and M. J. Frisch.,  J. Phys. Chem. 98, 11623 (1994) (10.1021/j100096a001)

    Deriv               =              1
    GGA                 =           TRUE
    Meta                =          FALSE

    Exchange Hybrid     =           TRUE
    MP2 Hybrid          =          FALSE

   => Exchange Functionals <=

    0.0800   Slater exchange
    0.7200         Becke 88

   => Exact (HF) Exchange <=

    0.2000               HF

   => Correlation Functionals <=

    0.1900   Vosko, Wilk & Nusair (VWN5_RPA)
    0.8100   Lee, Yang & Parr

   => LibXC Density Thresholds  <==

    XC_HYB_GGA_XC_B3LYP:  1.00E-15

   => Molecular Quadrature <=

    Radial Scheme          =       TREUTLER
    Pruning Scheme         =           NONE
    Nuclear Scheme         =       TREUTLER

    Blocking Scheme        =         OCTREE
    BS radius alpha        =              1
    Pruning alpha          =              1
    Radial Points          =             75
    Spherical Points       =            302
    Total Points           =          41635
    Total Blocks           =            371
    Max Points             =            255
    Max Functions          =             32
    Weights Tolerance      =       1.00E-15

  -Total Gradient:
     Atom            X                  Y                   Z
    ------   -----------------  -----------------  -----------------
       1        0.000000000000     0.000000000000    -0.000057687784
       2        0.000000000000     0.000000000000     0.000044089880

*** tstop() called on Joses-MacBook-Pro-2.local at Thu Jul 17 13:57:32 2025
Module time:
	user time   =       0.68 seconds =       0.01 minutes
	system time =       2.21 seconds =       0.04 minutes
	total time  =          0 seconds =       0.00 minutes
Total time:
	user time   =      50.94 seconds =       0.85 minutes
	system time =     106.52 seconds =       1.78 minutes
	total time  =         16 seconds =       0.27 minutes

    			-----------------------------------------

    			 OPTKING 3.0: for geometry optimizations

    			     By R.A. King, Bethel University

    			        with contributions from

    			    A.V. Copan, J. Cayton, A. Heide

    			-----------------------------------------

	                            ===> Fragment 1 <==

	 Z (Atomic Numbers)          Masses                          Geom
	       7.000000            14.003074          0.00000000  0.00000000  2.38265905
	      16.000000            31.972071          0.00000000  0.00000000 -1.04355301

	 - Coordinate -           - BOHR/RAD -       - ANG/DEG -
	 R(1,2)           =         3.426212           1.813073

	        --- Internal Coordinate Step in ANG or DEG, aJ/ANG or AJ/DEG ---
	-------------------------------------------------------------------------------
	           Coordinate      Previous         Force          Change          New
	           ----------      --------        ------          ------        ------
	               R(1,2)       1.81307        0.00042        0.00021       1.81328
	-------------------------------------------------------------------------------

	                                 ==> Convergence Check <==

	Measures of convergence in internal coordinates in au.

	Criteria marked as inactive (o), active & met (*), and active & unmet ( ).

	----------------------------------------------------------------------------------------------
	   Step    Total Energy     Delta E     Max Force     RMS Force      Max Disp      RMS Disp
	----------------------------------------------------------------------------------------------
	  Convergence Criteria     1.00e-06 *    3.00e-04 *             o    1.20e-03 *             o
	----------------------------------------------------------------------------------------------
	    13    -452.32611431   -3.87e-07 *    5.09e-05 *    5.09e-05 o    3.90e-04 *    3.90e-04 o  ~
	----------------------------------------------------------------------------------------------

Next Geometry in Ang
	Fragment 1 (Ang)

	    N   0.0000000000   0.0000000000   1.2609521498
	    S   0.0000000000   0.0000000000  -0.5523277500

    Final optimized geometry and variables:
    Molecular point group: c2v
    Full point group: C_inf_v

    Geometry (in Angstrom), charge = 1, multiplicity = 5:

    N            0.000000000000     0.000000000000     1.260848868155
    S            0.000000000000     0.000000000000    -0.552224468439

    Psi4 stopped on: Thursday, 17 July 2025 01:57PM
    Psi4 wall time for execution: 0:00:17.30

*** Psi4 exiting successfully. Buy a developer a beer!
