                               Psi4 1.9.1 release

  ==> Input File <==

--------------------------------------------------------------------------
molecule {
1 5
Be   0.00000        0.60000        0.00000
Na   0.00000       -0.60000        0.00000
}

set {
basis              cc-pvdz
reference          uks
maxiter            500
geom_maxiter       500
DAMPING_PERCENTAGE 1
guess              SAP
}

optimize('b3lyp')
--------------------------------------------------------------------------

    Molecular point group: c2v
  Charge       = 1
  Multiplicity = 5
  Basis Set: CC-PVDZ
    Blend: CC-PVDZ
  Basis Set: (CC-PVDZ AUX)
    Blend: DEF2-UNIVERSAL-JKFIT
  @DF-UKS Final Energy:  -174.98268579313492
    Total Energy =                       -174.9826857931349195
 Dipole X            :          0.0000000            0.0000000            0.0000000
 Dipole Y            :          0.0000000            0.0000000            0.0000000
 Dipole Z            :         -0.4501720           -0.5084189           -0.9585909
 Magnitude           :                                                    0.9585909
    Molecular point group: c2v
  Basis Set: CC-PVDZ
    Blend: CC-PVDZ
  Basis Set: (CC-PVDZ AUX)
    Blend: DEF2-UNIVERSAL-JKFIT
  Basis Set: CC-PVDZ
    Blend: CC-PVDZ
  Basis Set: (CC-PVDZ AUX)
    Blend: DEF2-UNIVERSAL-JKFIT
  @DF-UKS Final Energy:  -175.06329749247325
    Total Energy =                       -175.0632974924732252
  Basis Set: CC-PVDZ
    Blend: CC-PVDZ
  Basis Set: (CC-PVDZ AUX)
    Blend: DEF2-UNIVERSAL-JKFIT
  Basis Set: CC-PVDZ
    Blend: CC-PVDZ
  @DF-UKS Final Energy:  -175.15158717010559
    Total Energy =                       -175.1515871701055858
  @DF-UKS Final Energy:  -175.24264605057965
    Total Energy =                       -175.2426460505796513
  @DF-UKS Final Energy:  -175.28949174199190
    Total Energy =                       -175.2894917419918670
  @DF-UKS Final Energy:  -175.30498328249962
    Total Energy =                       -175.3049832824995917
  @DF-UKS Final Energy:  -175.30868577603067
    Total Energy =                       -175.3086857760306714
  @DF-UKS Final Energy:  -175.30921835800680
    Total Energy =                       -175.3092183580067740
  @DF-UKS Final Energy:  -175.30932770825342
    Total Energy =                       -175.3093277082534769
  Basis Set: (CC-PVDZ AUX)
    Blend: DEF2-UNIVERSAL-JKFIT
  Basis Set: CC-PVDZ
    Blend: CC-PVDZ
  Basis Set: (CC-PVDZ AUX)
    Blend: DEF2-UNIVERSAL-JKFIT
  @DF-UKS Final Energy:  -175.30933662781882
    Total Energy =                       -175.3093366278188228
  Basis Set: CC-PVDZ
    Blend: CC-PVDZ
  Basis Set: (CC-PVDZ AUX)
    Blend: DEF2-UNIVERSAL-JKFIT
  Charge       = 1
  Multiplicity = 5
  Basis Set: CC-PVDZ
    Blend: CC-PVDZ
  Basis Set: (CC-PVDZ AUX)
    Blend: DEF2-UNIVERSAL-JKFIT

    Orbital Energies [Eh]
    ---------------------

    Alpha Occupied:

       1A1   -39.949548     2A1    -4.305072     3A1    -3.266545
       1B1    -2.275207     4A1    -2.161614     1B2    -2.155312
       5A1    -0.545076     2B1    -0.351281     2B2    -0.348704

    Alpha Virtual:

       6A1    -0.322971     7A1    -0.252575     3B1    -0.194937
       3B2    -0.190978     8A1    -0.129331     9A1    -0.094043
       1A2    -0.080598    10A1    -0.080468     4B1    -0.078048
       4B2    -0.076904    11A1    -0.043174     5B1    -0.004715
       5B2    -0.002099     6B1     0.039545     6B2     0.039800
      12A1     0.062010    13A1     0.170363     2A2     0.285703
      14A1     0.285711    15A1     0.327208     7B1     0.386972
       7B2     0.387826    16A1     0.701933

    Beta Occupied:

       1A1   -39.905312     2A1    -4.286646     3A1    -3.146037
       4A1    -2.114886     1B2    -2.109220

    Beta Virtual:

       1B1    -1.873725     5A1    -0.378553     6A1    -0.285575
       2B2    -0.218370     2B1    -0.215168     7A1    -0.213540
       3B2    -0.138865     3B1    -0.138239     8A1    -0.100655
       9A1    -0.087908     4B2    -0.068079     4B1    -0.067314
       1A2    -0.036590    10A1    -0.034332    11A1    -0.025882
       5B2     0.028929     5B1     0.030382    12A1     0.080803
       6B2     0.087874     6B1     0.087912    13A1     0.219411
      14A1     0.376736     2A2     0.396198    15A1     0.396574
       7B2     0.463468     7B1     0.464056    16A1     0.735626

    Final Occupation by Irrep:
             A1    A2    B1    B2
    DOCC [     4,    0,    0,    1 ]
    SOCC [     1,    0,    2,    1 ]
    NA   [     5,    0,    2,    2 ]
    NB   [     4,    0,    0,    1 ]

  @DF-UKS Final Energy:  -175.30933740458158

   => Energetics <=

    Nuclear Repulsion Energy =             11.1514158703093020
    One-Electron Energy =                -256.5480261371017150
    Two-Electron Energy =                  83.2711360517210437
    DFT Exchange-Correlation Energy =     -13.1838631895102250
    Empirical Dispersion Energy =           0.0000000000000000
    VV10 Nonlocal Energy =                  0.0000000000000000
    Total Energy =                       -175.3093374045815835

  UHF NO Occupations:
  HONO-2 :    2 B1 1.0000000
  HONO-1 :    5 A1 1.0000000
  HONO-0 :    2 B2 1.0000000
  LUNO+0 :    6 A1 0.0000149
  LUNO+1 :    7 A1 0.0000029
  LUNO+2 :    3 B2 0.0000023
  LUNO+3 :    8 A1 0.0000006

Computation Completed

Properties will be evaluated at   0.000000,   0.000000,   0.000000 [a0]

Properties computed using the SCF density matrix

 Multipole Moments:

 ------------------------------------------------------------------------------------
     Multipole            Electronic (a.u.)      Nuclear  (a.u.)        Total (a.u.)
 ------------------------------------------------------------------------------------

 L = 1.  Multiply by 2.5417464519 to convert [e a0] to [Debye]
 Dipole X            :          0.0000000            0.0000000            0.0000000
 Dipole Y            :          0.0000000            0.0000000            0.0000000
 Dipole Z            :         -0.1378080           -0.8846353           -1.0224433
 Magnitude           :                                                    1.0224433

 ------------------------------------------------------------------------------------

*** tstop() called on Joses-MacBook-Pro-2.local at Thu Jul 17 13:21:13 2025
Module time:
	user time   =       3.63 seconds =       0.06 minutes
	system time =       2.41 seconds =       0.04 minutes
	total time  =          0 seconds =       0.00 minutes
Total time:
	user time   =      52.94 seconds =       0.88 minutes
	system time =      64.85 seconds =       1.08 minutes
	total time  =         12 seconds =       0.20 minutes

*** tstart() called on Joses-MacBook-Pro-2.local
*** at Thu Jul 17 13:21:13 2025

         ------------------------------------------------------------
                                   SCF GRAD
                          Rob Parrish, Justin Turney,
                       Andy Simmonett, and Alex Sokolov
         ------------------------------------------------------------

  ==> Geometry <==

    Molecular point group: c2v
    Full point group: C_inf_v

    Geometry (in Angstrom), charge = 1, multiplicity = 5:

       Center              X                  Y                   Z               Mass
    ------------   -----------------  -----------------  -----------------  -----------------
         BE           0.000000000000     0.000000000000     1.499967798401     9.012183065000
         NA           0.000000000000     0.000000000000    -0.588000002304    22.989769282000

  Nuclear repulsion =   11.151415870309302

  ==> Basis Set <==

  Basis Set: CC-PVDZ
    Blend: CC-PVDZ
    Number of shells: 14
    Number of basis functions: 32
    Number of Cartesian functions: 34
    Spherical Harmonics?: true
    Max angular momentum: 2

  ==> DFJKGrad: Density-Fitted SCF Gradients <==

    Gradient:                    1
    J tasked:                  Yes
    K tasked:                  Yes
    wK tasked:                  No
    OpenMP threads:              1
    Integrals threads:           1
    Memory [MiB]:              375
    Schwarz Cutoff:          1E-12
    Fitting Condition:       1E-10

   => Auxiliary Basis Set <=

  Basis Set: (CC-PVDZ AUX)
    Blend: DEF2-UNIVERSAL-JKFIT
    Number of shells: 51
    Number of basis functions: 163
    Number of Cartesian functions: 197
    Spherical Harmonics?: true
    Max angular momentum: 4

  ==> DFT Potential <==

   => LibXC <=

    Version 6.2.2
    S. Lehtola, C. Steigemann, M. J.T. Oliveira, and M. A.L. Marques.,  SoftwareX 7, 1â€“5 (2018) (10.1016/j.softx.2017.11.002)

   => Composite Functional: B3LYP <=

    B3LYP Hyb-GGA Exchange-Correlation Functional

    P. J. Stephens, F. J. Devlin, C. F. Chabalowski, and M. J. Frisch.,  J. Phys. Chem. 98, 11623 (1994) (10.1021/j100096a001)

    Deriv               =              1
    GGA                 =           TRUE
    Meta                =          FALSE

    Exchange Hybrid     =           TRUE
    MP2 Hybrid          =          FALSE

   => Exchange Functionals <=

    0.0800   Slater exchange
    0.7200         Becke 88

   => Exact (HF) Exchange <=

    0.2000               HF

   => Correlation Functionals <=

    0.1900   Vosko, Wilk & Nusair (VWN5_RPA)
    0.8100   Lee, Yang & Parr

   => LibXC Density Thresholds  <==

    XC_HYB_GGA_XC_B3LYP:  1.00E-15

   => Molecular Quadrature <=

    Radial Scheme          =       TREUTLER
    Pruning Scheme         =           NONE
    Nuclear Scheme         =       TREUTLER

    Blocking Scheme        =         OCTREE
    BS radius alpha        =              1
    Pruning alpha          =              1
    Radial Points          =             75
    Spherical Points       =            302
    Total Points           =          43830
    Total Blocks           =            442
    Max Points             =            255
    Max Functions          =             32
    Weights Tolerance      =       1.00E-15

  -Total Gradient:
     Atom            X                  Y                   Z
    ------   -----------------  -----------------  -----------------
       1        0.000000000000     0.000000000000    -0.000111940036
       2        0.000000000000     0.000000000000     0.000102956350

*** tstop() called on Joses-MacBook-Pro-2.local at Thu Jul 17 13:21:14 2025
Module time:
	user time   =       1.09 seconds =       0.02 minutes
	system time =       1.63 seconds =       0.03 minutes
	total time  =          1 seconds =       0.02 minutes
Total time:
	user time   =      54.03 seconds =       0.90 minutes
	system time =      66.48 seconds =       1.11 minutes
	total time  =         13 seconds =       0.22 minutes

    			-----------------------------------------

    			 OPTKING 3.0: for geometry optimizations

    			     By R.A. King, Bethel University

    			        with contributions from

    			    A.V. Copan, J. Cayton, A. Heide

    			-----------------------------------------

	                            ===> Fragment 1 <==

	 Z (Atomic Numbers)          Masses                          Geom
	       4.000000             9.012183          0.00000000  0.00000000  2.83452834
	      11.000000            22.989769          0.00000000  0.00000000 -1.11115897

	 - Coordinate -           - BOHR/RAD -       - ANG/DEG -
	 R(1,2)           =         3.945687           2.087968

	        --- Internal Coordinate Step in ANG or DEG, aJ/ANG or AJ/DEG ---
	-------------------------------------------------------------------------------
	           Coordinate      Previous         Force          Change          New
	           ----------      --------        ------          ------        ------
	               R(1,2)       2.08797        0.00089        0.00065       2.08862
	-------------------------------------------------------------------------------

	                                 ==> Convergence Check <==

	Measures of convergence in internal coordinates in au.

	Criteria marked as inactive (o), active & met (*), and active & unmet ( ).

	----------------------------------------------------------------------------------------------
	   Step    Total Energy     Delta E     Max Force     RMS Force      Max Disp      RMS Disp
	----------------------------------------------------------------------------------------------
	  Convergence Criteria     1.00e-06 *    3.00e-04 *             o    1.20e-03 *             o
	----------------------------------------------------------------------------------------------
	    11    -175.30933740   -7.77e-07 *    1.07e-04 *    1.07e-04 o    1.23e-03      1.23e-03 o  ~
	----------------------------------------------------------------------------------------------

Next Geometry in Ang
	Fragment 1 (Ang)

	   Be   0.0000000000   0.0000000000   1.5002941133
	   Na   0.0000000000   0.0000000000  -0.5883263172

    Final optimized geometry and variables:
    Molecular point group: c2v
    Full point group: C_inf_v

    Geometry (in Angstrom), charge = 1, multiplicity = 5:

    BE           0.000000000000     0.000000000000     1.499967798401
    NA           0.000000000000     0.000000000000    -0.588000002304

    Psi4 stopped on: Thursday, 17 July 2025 01:21PM
    Psi4 wall time for execution: 0:00:14.00

*** Psi4 exiting successfully. Buy a developer a beer!
