                               Psi4 1.9.1 release

  ==> Input File <==

--------------------------------------------------------------------------
molecule {
1 5
C   0.00000        0.60000        0.00000
Cl   0.00000       -0.60000        0.00000
}

set {
basis              cc-pvdz
reference          uks
maxiter            500
geom_maxiter       500
DAMPING_PERCENTAGE 1
guess              SAP
}

optimize('b3lyp')
--------------------------------------------------------------------------

    Molecular point group: c2v
  Charge       = 1
  Multiplicity = 5
  Basis Set: CC-PVDZ
    Blend: CC-PVDZ
  Basis Set: (CC-PVDZ AUX)
    Blend: CC-PVDZ-JKFIT
  @DF-UKS Final Energy:  -497.17162414454481
    Total Energy =                       -497.1716241445448077
 Dipole X            :          0.0000000            0.0000000            0.0000000
 Dipole Y            :          0.0000000            0.0000000            0.0000000
 Dipole Z            :         -0.3062563            0.2806591           -0.0255972
 Magnitude           :                                                    0.0255972
    Molecular point group: c2v
  Basis Set: CC-PVDZ
    Blend: CC-PVDZ
  Basis Set: (CC-PVDZ AUX)
    Blend: CC-PVDZ-JKFIT
  Basis Set: CC-PVDZ
    Blend: CC-PVDZ
  Basis Set: (CC-PVDZ AUX)
    Blend: CC-PVDZ-JKFIT
  @DF-UKS Final Energy:  -497.41146299185118
    Total Energy =                       -497.4114629918511241
  Basis Set: CC-PVDZ
    Blend: CC-PVDZ
  Basis Set: (CC-PVDZ AUX)
    Blend: CC-PVDZ-JKFIT
  Basis Set: CC-PVDZ
    Blend: CC-PVDZ
  @DF-UKS Final Energy:  -497.50776555801269
    Total Energy =                       -497.5077655580127498
  @DF-UKS Final Energy:  -497.55278422686325
    Total Energy =                       -497.5527842268632526
  @DF-UKS Final Energy:  -497.56672322618499
    Total Energy =                       -497.5667232261850472
  @DF-UKS Final Energy:  -497.57369306179066
    Total Energy =                       -497.5736930617906637
  @DF-UKS Final Energy:  -497.57583218799027
    Total Energy =                       -497.5758321879902724
  @DF-UKS Final Energy:  -497.57681306291471
    Total Energy =                       -497.5768130629147095
  @DF-UKS Final Energy:  -497.57704248393657
    Total Energy =                       -497.5770424839365660
  @DF-UKS Final Energy:  -497.57711068790570
    Total Energy =                       -497.5771106879057015
  Basis Set: (CC-PVDZ AUX)
    Blend: CC-PVDZ-JKFIT
  Basis Set: CC-PVDZ
    Blend: CC-PVDZ
  Basis Set: (CC-PVDZ AUX)
    Blend: CC-PVDZ-JKFIT
  @DF-UKS Final Energy:  -497.57712318177096
    Total Energy =                       -497.5771231817709577
  Basis Set: CC-PVDZ
    Blend: CC-PVDZ
  Basis Set: (CC-PVDZ AUX)
    Blend: CC-PVDZ-JKFIT
  Charge       = 1
  Multiplicity = 5
  Basis Set: CC-PVDZ
    Blend: CC-PVDZ
  Basis Set: (CC-PVDZ AUX)
    Blend: CC-PVDZ-JKFIT

    Orbital Energies [Eh]
    ---------------------

    Alpha Occupied:

       1A1  -102.018003     2A1   -10.616233     3A1    -9.927146
       1B2    -7.698022     4A1    -7.687061     1B1    -7.673239
       5A1    -1.272922     6A1    -0.947375     2B2    -0.787475
       2B1    -0.735399     7A1    -0.729405     3B2    -0.560213
       3B1    -0.550025

    Alpha Virtual:

       8A1    -0.325668     9A1     0.150802     4B2     0.162747
      10A1     0.167850     4B1     0.176693     5B2     0.193446
       5B1     0.227050    11A1     0.241034     1A2     0.291448
      12A1     0.292875     6B2     0.305102     6B1     0.329947
      13A1     0.470145    14A1     0.687832     2A2     0.809065
      15A1     0.809122     7B2     0.961900     7B1     0.974667
      16A1     1.377042

    Beta Occupied:

       1A1  -102.007890     2A1   -10.566355     3A1    -9.917168
       4A1    -7.675867     1B2    -7.671840     1B1    -7.666011
       5A1    -1.200041     6A1    -0.842656     2B1    -0.699542

    Beta Virtual:

       2B2    -0.605958     7A1    -0.512335     3B1    -0.321708
       3B2    -0.318870     8A1    -0.241705     9A1     0.183349
      10A1     0.200522     4B1     0.232730     4B2     0.236289
       5B1     0.274935     5B2     0.278266    11A1     0.320335
       1A2     0.358426    12A1     0.364178     6B1     0.371627
       6B2     0.375096    13A1     0.522127    14A1     0.741079
       2A2     0.957763    15A1     0.957929     7B2     1.077947
       7B1     1.078624    16A1     1.468637

    Final Occupation by Irrep:
             A1    A2    B1    B2
    DOCC [     6,    0,    2,    1 ]
    SOCC [     1,    0,    1,    2 ]
    NA   [     7,    0,    3,    3 ]
    NB   [     6,    0,    2,    1 ]

  @DF-UKS Final Energy:  -497.57712420647073

   => Energetics <=

    Nuclear Repulsion Energy =             29.6037439683936014
    One-Electron Energy =                -735.8562352230603665
    Two-Electron Energy =                 235.4354328300740065
    DFT Exchange-Correlation Energy =     -26.7600657818779837
    Empirical Dispersion Energy =           0.0000000000000000
    VV10 Nonlocal Energy =                  0.0000000000000000
    Total Energy =                       -497.5771242064707849

  UHF NO Occupations:
  HONO-2 :    3 B1 1.0000000
  HONO-1 :    2 B2 1.0000000
  HONO-0 :    3 B2 1.0000000
  LUNO+0 :    8 A1 0.0007682
  LUNO+1 :    9 A1 0.0006035
  LUNO+2 :    4 B1 0.0002540
  LUNO+3 :   10 A1 0.0000002

Computation Completed

Properties will be evaluated at   0.000000,   0.000000,   0.000000 [a0]

Properties computed using the SCF density matrix

 Multipole Moments:

 ------------------------------------------------------------------------------------
     Multipole            Electronic (a.u.)      Nuclear  (a.u.)        Total (a.u.)
 ------------------------------------------------------------------------------------

 L = 1.  Multiply by 2.5417464519 to convert [e a0] to [Debye]
 Dipole X            :          0.0000000            0.0000000            0.0000000
 Dipole Y            :          0.0000000            0.0000000            0.0000000
 Dipole Z            :         -0.3466064            0.4264347            0.0798283
 Magnitude           :                                                    0.0798283

 ------------------------------------------------------------------------------------

*** tstop() called on Joses-MacBook-Pro-2.local at Thu Jul 17 13:47:00 2025
Module time:
	user time   =       3.23 seconds =       0.05 minutes
	system time =       3.12 seconds =       0.05 minutes
	total time  =          1 seconds =       0.02 minutes
Total time:
	user time   =      45.69 seconds =       0.76 minutes
	system time =      74.04 seconds =       1.23 minutes
	total time  =         11 seconds =       0.18 minutes

*** tstart() called on Joses-MacBook-Pro-2.local
*** at Thu Jul 17 13:47:00 2025

         ------------------------------------------------------------
                                   SCF GRAD
                          Rob Parrish, Justin Turney,
                       Andy Simmonett, and Alex Sokolov
         ------------------------------------------------------------

  ==> Geometry <==

    Molecular point group: c2v
    Full point group: C_inf_v

    Geometry (in Angstrom), charge = 1, multiplicity = 5:

       Center              X                  Y                   Z               Mass
    ------------   -----------------  -----------------  -----------------  -----------------
         C            0.000000000000     0.000000000000     1.357457048124    12.000000000000
         CL           0.000000000000     0.000000000000    -0.465828396648    34.968852682000

  Nuclear repulsion =   29.603743968393601

  ==> Basis Set <==

  Basis Set: CC-PVDZ
    Blend: CC-PVDZ
    Number of shells: 14
    Number of basis functions: 32
    Number of Cartesian functions: 34
    Spherical Harmonics?: true
    Max angular momentum: 2

  ==> DFJKGrad: Density-Fitted SCF Gradients <==

    Gradient:                    1
    J tasked:                  Yes
    K tasked:                  Yes
    wK tasked:                  No
    OpenMP threads:              1
    Integrals threads:           1
    Memory [MiB]:              375
    Schwarz Cutoff:          1E-12
    Fitting Condition:       1E-10

   => Auxiliary Basis Set <=

  Basis Set: (CC-PVDZ AUX)
    Blend: CC-PVDZ-JKFIT
    Number of shells: 60
    Number of basis functions: 182
    Number of Cartesian functions: 211
    Spherical Harmonics?: true
    Max angular momentum: 3

  ==> DFT Potential <==

   => LibXC <=

    Version 6.2.2
    S. Lehtola, C. Steigemann, M. J.T. Oliveira, and M. A.L. Marques.,  SoftwareX 7, 1â€“5 (2018) (10.1016/j.softx.2017.11.002)

   => Composite Functional: B3LYP <=

    B3LYP Hyb-GGA Exchange-Correlation Functional

    P. J. Stephens, F. J. Devlin, C. F. Chabalowski, and M. J. Frisch.,  J. Phys. Chem. 98, 11623 (1994) (10.1021/j100096a001)

    Deriv               =              1
    GGA                 =           TRUE
    Meta                =          FALSE

    Exchange Hybrid     =           TRUE
    MP2 Hybrid          =          FALSE

   => Exchange Functionals <=

    0.0800   Slater exchange
    0.7200         Becke 88

   => Exact (HF) Exchange <=

    0.2000               HF

   => Correlation Functionals <=

    0.1900   Vosko, Wilk & Nusair (VWN5_RPA)
    0.8100   Lee, Yang & Parr

   => LibXC Density Thresholds  <==

    XC_HYB_GGA_XC_B3LYP:  1.00E-15

   => Molecular Quadrature <=

    Radial Scheme          =       TREUTLER
    Pruning Scheme         =           NONE
    Nuclear Scheme         =       TREUTLER

    Blocking Scheme        =         OCTREE
    BS radius alpha        =              1
    Pruning alpha          =              1
    Radial Points          =             75
    Spherical Points       =            302
    Total Points           =          41120
    Total Blocks           =            366
    Max Points             =            255
    Max Functions          =             32
    Weights Tolerance      =       1.00E-15

  -Total Gradient:
     Atom            X                  Y                   Z
    ------   -----------------  -----------------  -----------------
       1        0.000000000000     0.000000000000    -0.000108972270
       2        0.000000000000     0.000000000000     0.000102236104

*** tstop() called on Joses-MacBook-Pro-2.local at Thu Jul 17 13:47:00 2025
Module time:
	user time   =       0.52 seconds =       0.01 minutes
	system time =       1.81 seconds =       0.03 minutes
	total time  =          0 seconds =       0.00 minutes
Total time:
	user time   =      46.21 seconds =       0.77 minutes
	system time =      75.85 seconds =       1.26 minutes
	total time  =         11 seconds =       0.18 minutes

    			-----------------------------------------

    			 OPTKING 3.0: for geometry optimizations

    			     By R.A. King, Bethel University

    			        with contributions from

    			    A.V. Copan, J. Cayton, A. Heide

    			-----------------------------------------

	                            ===> Fragment 1 <==

	 Z (Atomic Numbers)          Masses                          Geom
	       6.000000            12.000000          0.00000000  0.00000000  2.56522205
	      17.000000            34.968853          0.00000000  0.00000000 -0.88028809

	 - Coordinate -           - BOHR/RAD -       - ANG/DEG -
	 R(1,2)           =         3.445510           1.823285

	        --- Internal Coordinate Step in ANG or DEG, aJ/ANG or AJ/DEG ---
	-------------------------------------------------------------------------------
	           Coordinate      Previous         Force          Change          New
	           ----------      --------        ------          ------        ------
	               R(1,2)       1.82329        0.00087        0.00036       1.82365
	-------------------------------------------------------------------------------

	                                 ==> Convergence Check <==

	Measures of convergence in internal coordinates in au.

	Criteria marked as inactive (o), active & met (*), and active & unmet ( ).

	----------------------------------------------------------------------------------------------
	   Step    Total Energy     Delta E     Max Force     RMS Force      Max Disp      RMS Disp
	----------------------------------------------------------------------------------------------
	  Convergence Criteria     1.00e-06 *    3.00e-04 *             o    1.20e-03 *             o
	----------------------------------------------------------------------------------------------
	    12    -497.57712421   -1.02e-06      1.06e-04 *    1.06e-04 o    6.88e-04 *    6.88e-04 o  ~
	----------------------------------------------------------------------------------------------

Next Geometry in Ang
	Fragment 1 (Ang)

	    C   0.0000000000   0.0000000000   1.3576391868
	   Cl   0.0000000000   0.0000000000  -0.4660105353

    Final optimized geometry and variables:
    Molecular point group: c2v
    Full point group: C_inf_v

    Geometry (in Angstrom), charge = 1, multiplicity = 5:

    C            0.000000000000     0.000000000000     1.357457048124
    CL           0.000000000000     0.000000000000    -0.465828396648

    Psi4 stopped on: Thursday, 17 July 2025 01:47PM
    Psi4 wall time for execution: 0:00:12.18

*** Psi4 exiting successfully. Buy a developer a beer!
