                               Psi4 1.9.1 release

  ==> Input File <==

--------------------------------------------------------------------------
molecule {
1 5
Be   0.00000        0.60000        0.00000
P   0.00000       -0.60000        0.00000
}

set {
basis              cc-pvdz
reference          uks
maxiter            500
geom_maxiter       500
DAMPING_PERCENTAGE 1
guess              SAP
}

optimize('b3lyp')
--------------------------------------------------------------------------

    Molecular point group: c2v
  Charge       = 1
  Multiplicity = 5
  Basis Set: CC-PVDZ
    Blend: CC-PVDZ
  Basis Set: (CC-PVDZ AUX)
    Blend: CC-PVDZ-JKFIT + DEF2-UNIVERSAL-JKFIT
  @DF-UKS Final Energy:  -355.06020921099338
    Total Energy =                       -355.0602092109933778
 Dipole X            :          0.0000000            0.0000000            0.0000000
 Dipole Y            :          0.0000000            0.0000000            0.0000000
 Dipole Z            :         -0.2398332           -0.6401447           -0.8799778
 Magnitude           :                                                    0.8799778
    Molecular point group: c2v
  Basis Set: CC-PVDZ
    Blend: CC-PVDZ
  Basis Set: (CC-PVDZ AUX)
    Blend: CC-PVDZ-JKFIT + DEF2-UNIVERSAL-JKFIT
  Basis Set: CC-PVDZ
    Blend: CC-PVDZ
  Basis Set: (CC-PVDZ AUX)
    Blend: CC-PVDZ-JKFIT + DEF2-UNIVERSAL-JKFIT
  @DF-UKS Final Energy:  -355.30029349525637
    Total Energy =                       -355.3002934952563692
  Basis Set: CC-PVDZ
    Blend: CC-PVDZ
  Basis Set: (CC-PVDZ AUX)
    Blend: CC-PVDZ-JKFIT + DEF2-UNIVERSAL-JKFIT
  Basis Set: CC-PVDZ
    Blend: CC-PVDZ
  @DF-UKS Final Energy:  -355.46753304943371
    Total Energy =                       -355.4675330494337118
  @DF-UKS Final Energy:  -355.55968530806069
    Total Energy =                       -355.5596853080607502
  @DF-UKS Final Energy:  -355.60283105026338
    Total Energy =                       -355.6028310502633758
  @DF-UKS Final Energy:  -355.62344751162334
    Total Energy =                       -355.6234475116233398
  @DF-UKS Final Energy:  -355.63253692671509
    Total Energy =                       -355.6325369267151473
  @DF-UKS Final Energy:  -355.63614954950356
    Total Energy =                       -355.6361495495035570
  @DF-UKS Final Energy:  -355.63711442664891
    Total Energy =                       -355.6371144266489068
  @DF-UKS Final Energy:  -355.63750276172897
    Total Energy =                       -355.6375027617289106
  @DF-UKS Final Energy:  -355.63758480939487
    Total Energy =                       -355.6375848093948662
  @DF-UKS Final Energy:  -355.63760761462521
    Total Energy =                       -355.6376076146252672
  Basis Set: (CC-PVDZ AUX)
    Blend: CC-PVDZ-JKFIT + DEF2-UNIVERSAL-JKFIT
  Basis Set: CC-PVDZ
    Blend: CC-PVDZ
  Basis Set: (CC-PVDZ AUX)
    Blend: CC-PVDZ-JKFIT + DEF2-UNIVERSAL-JKFIT
  @DF-UKS Final Energy:  -355.63761007141034
    Total Energy =                       -355.6376100714102790
  Basis Set: CC-PVDZ
    Blend: CC-PVDZ
  Basis Set: (CC-PVDZ AUX)
    Blend: CC-PVDZ-JKFIT + DEF2-UNIVERSAL-JKFIT
  Charge       = 1
  Multiplicity = 5
  Basis Set: CC-PVDZ
    Blend: CC-PVDZ
  Basis Set: (CC-PVDZ AUX)
    Blend: CC-PVDZ-JKFIT + DEF2-UNIVERSAL-JKFIT

    Orbital Energies [Eh]
    ---------------------

    Alpha Occupied:

       1A1   -77.398302     2A1    -6.865373     3A1    -5.029152
       1B2    -5.028429     1B1    -5.028429     4A1    -4.414701
       5A1    -0.873771     6A1    -0.590143     2B2    -0.514964
       2B1    -0.514964     7A1    -0.445223

    Alpha Virtual:

       3B1    -0.292710     3B2    -0.292710     8A1    -0.216390
       9A1    -0.073468     4B1    -0.013338     4B2    -0.013338
      10A1    -0.003445     5B1     0.092025     5B2     0.092025
      11A1     0.119525     1A2     0.156858    12A1     0.156858
       6B2     0.191399     6B1     0.191399    13A1     0.238146
       2A2     0.242445    14A1     0.242445    15A1     0.367495
       7B1     0.396658     7B2     0.396658    16A1     0.589921

    Beta Occupied:

       1A1   -77.385600     2A1    -6.851633     3A1    -5.010983
       1B2    -5.008191     1B1    -5.008191     4A1    -4.398222
       5A1    -0.758840

    Beta Virtual:

       6A1    -0.446646     2B2    -0.368890     2B1    -0.368890
       7A1    -0.296653     3B1    -0.226841     3B2    -0.226841
       8A1    -0.142651     9A1    -0.044392     4B1     0.005915
       4B2     0.005915    10A1     0.039587    11A1     0.171347
       5B1     0.180673     5B2     0.180673     6B2     0.238605
       6B1     0.238605     1A2     0.243324    12A1     0.243324
      13A1     0.293264    14A1     0.316839     2A2     0.316839
      15A1     0.428159     7B1     0.474517     7B2     0.474517
      16A1     0.655238

    Final Occupation by Irrep:
             A1    A2    B1    B2
    DOCC [     5,    0,    1,    1 ]
    SOCC [     2,    0,    1,    1 ]
    NA   [     7,    0,    2,    2 ]
    NB   [     5,    0,    1,    1 ]

  @DF-UKS Final Energy:  -355.63761034806492

   => Energetics <=

    Nuclear Repulsion Energy =             13.1560083552921920
    One-Electron Energy =                -511.6674883488643673
    Two-Electron Energy =                 163.6241933207411421
    DFT Exchange-Correlation Energy =     -20.7503236752338935
    Empirical Dispersion Energy =           0.0000000000000000
    VV10 Nonlocal Energy =                  0.0000000000000000
    Total Energy =                       -355.6376103480649249

  UHF NO Occupations:
  HONO-2 :    7 A1 1.0000000
  HONO-1 :    2 B2 1.0000000
  HONO-0 :    2 B1 1.0000000
  LUNO+0 :    8 A1 0.0001825
  LUNO+1 :    9 A1 0.0000003
  LUNO+2 :   10 A1 0.0000000
  LUNO+3 :    3 B1 0.0000000

Computation Completed

Properties will be evaluated at   0.000000,   0.000000,   0.000000 [a0]

Properties computed using the SCF density matrix

 Multipole Moments:

 ------------------------------------------------------------------------------------
     Multipole            Electronic (a.u.)      Nuclear  (a.u.)        Total (a.u.)
 ------------------------------------------------------------------------------------

 L = 1.  Multiply by 2.5417464519 to convert [e a0] to [Debye]
 Dipole X            :          0.0000000            0.0000000            0.0000000
 Dipole Y            :          0.0000000            0.0000000            0.0000000
 Dipole Z            :          2.4499934           -1.2874344            1.1625590
 Magnitude           :                                                    1.1625590

 ------------------------------------------------------------------------------------

*** tstop() called on Joses-MacBook-Pro-2.local at Thu Jul 17 13:24:10 2025
Module time:
	user time   =       3.03 seconds =       0.05 minutes
	system time =       3.63 seconds =       0.06 minutes
	total time  =          1 seconds =       0.02 minutes
Total time:
	user time   =      49.52 seconds =       0.83 minutes
	system time =      90.75 seconds =       1.51 minutes
	total time  =         13 seconds =       0.22 minutes

*** tstart() called on Joses-MacBook-Pro-2.local
*** at Thu Jul 17 13:24:10 2025

         ------------------------------------------------------------
                                   SCF GRAD
                          Rob Parrish, Justin Turney,
                       Andy Simmonett, and Alex Sokolov
         ------------------------------------------------------------

  ==> Geometry <==

    Molecular point group: c2v
    Full point group: C_inf_v

    Geometry (in Angstrom), charge = 1, multiplicity = 5:

       Center              X                  Y                   Z               Mass
    ------------   -----------------  -----------------  -----------------  -----------------
         BE           0.000000000000     0.000000000000     1.869454220164     9.012183065000
         P            0.000000000000     0.000000000000    -0.543939856728    30.973761998420

  Nuclear repulsion =   13.156008355292192

  ==> Basis Set <==

  Basis Set: CC-PVDZ
    Blend: CC-PVDZ
    Number of shells: 14
    Number of basis functions: 32
    Number of Cartesian functions: 34
    Spherical Harmonics?: true
    Max angular momentum: 2

  ==> DFJKGrad: Density-Fitted SCF Gradients <==

    Gradient:                    1
    J tasked:                  Yes
    K tasked:                  Yes
    wK tasked:                  No
    OpenMP threads:              1
    Integrals threads:           1
    Memory [MiB]:              375
    Schwarz Cutoff:          1E-12
    Fitting Condition:       1E-10

   => Auxiliary Basis Set <=

  Basis Set: (CC-PVDZ AUX)
    Blend: CC-PVDZ-JKFIT + DEF2-UNIVERSAL-JKFIT
    Number of shells: 53
    Number of basis functions: 163
    Number of Cartesian functions: 190
    Spherical Harmonics?: true
    Max angular momentum: 3

  ==> DFT Potential <==

   => LibXC <=

    Version 6.2.2
    S. Lehtola, C. Steigemann, M. J.T. Oliveira, and M. A.L. Marques.,  SoftwareX 7, 1â€“5 (2018) (10.1016/j.softx.2017.11.002)

   => Composite Functional: B3LYP <=

    B3LYP Hyb-GGA Exchange-Correlation Functional

    P. J. Stephens, F. J. Devlin, C. F. Chabalowski, and M. J. Frisch.,  J. Phys. Chem. 98, 11623 (1994) (10.1021/j100096a001)

    Deriv               =              1
    GGA                 =           TRUE
    Meta                =          FALSE

    Exchange Hybrid     =           TRUE
    MP2 Hybrid          =          FALSE

   => Exchange Functionals <=

    0.0800   Slater exchange
    0.7200         Becke 88

   => Exact (HF) Exchange <=

    0.2000               HF

   => Correlation Functionals <=

    0.1900   Vosko, Wilk & Nusair (VWN5_RPA)
    0.8100   Lee, Yang & Parr

   => LibXC Density Thresholds  <==

    XC_HYB_GGA_XC_B3LYP:  1.00E-15

   => Molecular Quadrature <=

    Radial Scheme          =       TREUTLER
    Pruning Scheme         =           NONE
    Nuclear Scheme         =       TREUTLER

    Blocking Scheme        =         OCTREE
    BS radius alpha        =              1
    Pruning alpha          =              1
    Radial Points          =             75
    Spherical Points       =            302
    Total Points           =          42793
    Total Blocks           =            393
    Max Points             =            255
    Max Functions          =             32
    Weights Tolerance      =       1.00E-15

  -Total Gradient:
     Atom            X                  Y                   Z
    ------   -----------------  -----------------  -----------------
       1        0.000000000000    -0.000000000000    -0.000021598025
       2        0.000000000000     0.000000000000     0.000031436583

*** tstop() called on Joses-MacBook-Pro-2.local at Thu Jul 17 13:24:10 2025
Module time:
	user time   =       0.87 seconds =       0.01 minutes
	system time =       1.99 seconds =       0.03 minutes
	total time  =          0 seconds =       0.00 minutes
Total time:
	user time   =      50.39 seconds =       0.84 minutes
	system time =      92.74 seconds =       1.55 minutes
	total time  =         13 seconds =       0.22 minutes

    			-----------------------------------------

    			 OPTKING 3.0: for geometry optimizations

    			     By R.A. King, Bethel University

    			        with contributions from

    			    A.V. Copan, J. Cayton, A. Heide

    			-----------------------------------------

	                            ===> Fragment 1 <==

	 Z (Atomic Numbers)          Masses                          Geom
	       4.000000             9.012183          0.00000000  0.00000000  3.53275648
	      15.000000            30.973762          0.00000000  0.00000000 -1.02789736

	 - Coordinate -           - BOHR/RAD -       - ANG/DEG -
	 R(1,2)           =         4.560654           2.413394

	        --- Internal Coordinate Step in ANG or DEG, aJ/ANG or AJ/DEG ---
	-------------------------------------------------------------------------------
	           Coordinate      Previous         Force          Change          New
	           ----------      --------        ------          ------        ------
	               R(1,2)       2.41339        0.00022        0.00060       2.41400
	-------------------------------------------------------------------------------

	                                 ==> Convergence Check <==

	Measures of convergence in internal coordinates in au.

	Criteria marked as inactive (o), active & met (*), and active & unmet ( ).

	----------------------------------------------------------------------------------------------
	   Step    Total Energy     Delta E     Max Force     RMS Force      Max Disp      RMS Disp
	----------------------------------------------------------------------------------------------
	  Convergence Criteria     1.00e-06 *    3.00e-04 *             o    1.20e-03 *             o
	----------------------------------------------------------------------------------------------
	    14    -355.63761035   -2.77e-07 *    2.65e-05 *    2.65e-05 o    1.14e-03 *    1.14e-03 o  ~
	----------------------------------------------------------------------------------------------

Next Geometry in Ang
	Fragment 1 (Ang)

	   Be   0.0000000000   0.0000000000   1.8697547610
	    P   0.0000000000   0.0000000000  -0.5442403976

    Final optimized geometry and variables:
    Molecular point group: c2v
    Full point group: C_inf_v

    Geometry (in Angstrom), charge = 1, multiplicity = 5:

    BE           0.000000000000     0.000000000000     1.869454220164
    P            0.000000000000     0.000000000000    -0.543939856728

    Psi4 stopped on: Thursday, 17 July 2025 01:24PM
    Psi4 wall time for execution: 0:00:14.40

*** Psi4 exiting successfully. Buy a developer a beer!
