                               Psi4 1.9.1 release

  ==> Input File <==

--------------------------------------------------------------------------
molecule {
1 5
N   0.00000        0.60000        0.00000
Ne   0.00000       -0.60000        0.00000
}

set {
basis              cc-pvdz
reference          uks
maxiter            500
geom_maxiter       500
DAMPING_PERCENTAGE 1
guess              SAP
}

optimize('b3lyp')
--------------------------------------------------------------------------

    Molecular point group: c2v
  Charge       = 1
  Multiplicity = 5
  Basis Set: CC-PVDZ
    Blend: CC-PVDZ
  Basis Set: (CC-PVDZ AUX)
    Blend: CC-PVDZ-JKFIT
  @DF-UKS Final Energy:  -182.46591985422862
    Total Energy =                       -182.4659198542286163
 Dipole X            :          0.0000000            0.0000000            0.0000000
 Dipole Y            :          0.0000000            0.0000000            0.0000000
 Dipole Z            :          0.3374235           -0.0055805            0.3318430
 Magnitude           :                                                    0.3318430
    Molecular point group: c2v
  Basis Set: CC-PVDZ
    Blend: CC-PVDZ
  Basis Set: (CC-PVDZ AUX)
    Blend: CC-PVDZ-JKFIT
  Basis Set: CC-PVDZ
    Blend: CC-PVDZ
  Basis Set: (CC-PVDZ AUX)
    Blend: CC-PVDZ-JKFIT
  @DF-UKS Final Energy:  -182.71278037811180
    Total Energy =                       -182.7127803781118018
  Basis Set: CC-PVDZ
    Blend: CC-PVDZ
  Basis Set: (CC-PVDZ AUX)
    Blend: CC-PVDZ-JKFIT
  Basis Set: CC-PVDZ
    Blend: CC-PVDZ
  @DF-UKS Final Energy:  -182.75517618101009
    Total Energy =                       -182.7551761810101141
  @DF-UKS Final Energy:  -182.78290702337978
    Total Energy =                       -182.7829070233797779
  @DF-UKS Final Energy:  -182.79190641361924
    Total Energy =                       -182.7919064136192446
  @DF-UKS Final Energy:  -182.79649953647208
    Total Energy =                       -182.7964995364720551
  @DF-UKS Final Energy:  -182.79873403359719
    Total Energy =                       -182.7987340335971851
  @DF-UKS Final Energy:  -182.79938854563216
    Total Energy =                       -182.7993885456321550
  @DF-UKS Final Energy:  -182.79966804544341
    Total Energy =                       -182.7996680454434397
  @DF-UKS Final Energy:  -182.79974641180252
    Total Energy =                       -182.7997464118025164
  @DF-UKS Final Energy:  -182.79977539992342
    Total Energy =                       -182.7997753999234192
  Basis Set: (CC-PVDZ AUX)
    Blend: CC-PVDZ-JKFIT
  Basis Set: CC-PVDZ
    Blend: CC-PVDZ
  Basis Set: (CC-PVDZ AUX)
    Blend: CC-PVDZ-JKFIT
  @DF-UKS Final Energy:  -182.79978238587358
    Total Energy =                       -182.7997823858735842
  Basis Set: CC-PVDZ
    Blend: CC-PVDZ
  Basis Set: (CC-PVDZ AUX)
    Blend: CC-PVDZ-JKFIT
  Charge       = 1
  Multiplicity = 5
  Basis Set: CC-PVDZ
    Blend: CC-PVDZ
  Basis Set: (CC-PVDZ AUX)
    Blend: CC-PVDZ-JKFIT

    Orbital Energies [Eh]
    ---------------------

    Alpha Occupied:

       1A1   -31.506870     2A1   -14.882436     3A1    -1.928814
       4A1    -1.217362     5A1    -1.067526     1B2    -1.011473
       1B1    -1.011473     2B1    -0.745913     2B2    -0.745913
       6A1    -0.741518

    Alpha Virtual:

       3B2     0.316503     3B1     0.316503     7A1     0.347368
       8A1     0.424710     4B2     0.959883     4B1     0.959883
       9A1     0.963877    10A1     1.280830    11A1     1.284181
       1A2     1.284182     5B1     1.295951     5B2     1.295951
      12A1     1.753575     6B2     4.213102     6B1     4.213102
      13A1     4.215932    14A1     4.254678     2A2     4.254762

    Beta Occupied:

       1A1   -31.486777     2A1   -14.799357     3A1    -1.878009
       1B2    -0.991868     1B1    -0.991868     4A1    -0.967330

    Beta Virtual:

       5A1    -0.837948     2B2    -0.430731     2B1    -0.430731
       6A1    -0.426502     3B2     0.433291     3B1     0.433291
       7A1     0.461741     8A1     0.544122     4B2     0.975470
       4B1     0.975470     9A1     1.046976    10A1     1.382275
      11A1     1.473093     1A2     1.473098     5B1     1.477677
       5B2     1.477677    12A1     1.839811    13A1     4.264843
       2A2     4.264926     6B2     4.268577     6B1     4.268577
      14A1     4.288754

    Final Occupation by Irrep:
             A1    A2    B1    B2
    DOCC [     4,    0,    1,    1 ]
    SOCC [     2,    0,    1,    1 ]
    NA   [     6,    0,    2,    2 ]
    NB   [     4,    0,    1,    1 ]

  @DF-UKS Final Energy:  -182.79978320148490

   => Energetics <=

    Nuclear Repulsion Energy =             17.7159553623005834
    One-Electron Energy =                -284.1315736627426531
    Two-Electron Energy =                  98.8540192860334486
    DFT Exchange-Correlation Energy =     -15.2381841870762873
    Empirical Dispersion Energy =           0.0000000000000000
    VV10 Nonlocal Energy =                  0.0000000000000000
    Total Energy =                       -182.7997832014848996

  UHF NO Occupations:
  HONO-2 :    2 B1 1.0000000
  HONO-1 :    5 A1 1.0000000
  HONO-0 :    6 A1 1.0000000
  LUNO+0 :    7 A1 0.0017652
  LUNO+1 :    8 A1 0.0000596
  LUNO+2 :    3 B1 0.0000178
  LUNO+3 :    3 B2 0.0000178

Computation Completed

Properties will be evaluated at   0.000000,   0.000000,   0.000000 [a0]

Properties computed using the SCF density matrix

 Multipole Moments:

 ------------------------------------------------------------------------------------
     Multipole            Electronic (a.u.)      Nuclear  (a.u.)        Total (a.u.)
 ------------------------------------------------------------------------------------

 L = 1.  Multiply by 2.5417464519 to convert [e a0] to [Debye]
 Dipole X            :          0.0000000            0.0000000            0.0000000
 Dipole Y            :          0.0000000            0.0000000            0.0000000
 Dipole Z            :          0.5586766           -0.0097235            0.5489531
 Magnitude           :                                                    0.5489531

 ------------------------------------------------------------------------------------

*** tstop() called on Joses-MacBook-Pro-2.local at Thu Jul 17 13:52:45 2025
Module time:
	user time   =       1.92 seconds =       0.03 minutes
	system time =       4.34 seconds =       0.07 minutes
	total time  =          0 seconds =       0.00 minutes
Total time:
	user time   =      38.83 seconds =       0.65 minutes
	system time =      87.19 seconds =       1.45 minutes
	total time  =         12 seconds =       0.20 minutes

*** tstart() called on Joses-MacBook-Pro-2.local
*** at Thu Jul 17 13:52:45 2025

         ------------------------------------------------------------
                                   SCF GRAD
                          Rob Parrish, Justin Turney,
                       Andy Simmonett, and Alex Sokolov
         ------------------------------------------------------------

  ==> Geometry <==

    Molecular point group: c2v
    Full point group: C_inf_v

    Geometry (in Angstrom), charge = 1, multiplicity = 5:

       Center              X                  Y                   Z               Mass
    ------------   -----------------  -----------------  -----------------  -----------------
         N            0.000000000000     0.000000000000     1.229642276623    14.003074004430
         NE           0.000000000000     0.000000000000    -0.861264140184    19.992440176200

  Nuclear repulsion =   17.715955362300583

  ==> Basis Set <==

  Basis Set: CC-PVDZ
    Blend: CC-PVDZ
    Number of shells: 12
    Number of basis functions: 28
    Number of Cartesian functions: 30
    Spherical Harmonics?: true
    Max angular momentum: 2

  ==> DFJKGrad: Density-Fitted SCF Gradients <==

    Gradient:                    1
    J tasked:                  Yes
    K tasked:                  Yes
    wK tasked:                  No
    OpenMP threads:              1
    Integrals threads:           1
    Memory [MiB]:              375
    Schwarz Cutoff:          1E-12
    Fitting Condition:       1E-10

   => Auxiliary Basis Set <=

  Basis Set: (CC-PVDZ AUX)
    Blend: CC-PVDZ-JKFIT
    Number of shells: 48
    Number of basis functions: 140
    Number of Cartesian functions: 162
    Spherical Harmonics?: true
    Max angular momentum: 3

  ==> DFT Potential <==

   => LibXC <=

    Version 6.2.2
    S. Lehtola, C. Steigemann, M. J.T. Oliveira, and M. A.L. Marques.,  SoftwareX 7, 1â€“5 (2018) (10.1016/j.softx.2017.11.002)

   => Composite Functional: B3LYP <=

    B3LYP Hyb-GGA Exchange-Correlation Functional

    P. J. Stephens, F. J. Devlin, C. F. Chabalowski, and M. J. Frisch.,  J. Phys. Chem. 98, 11623 (1994) (10.1021/j100096a001)

    Deriv               =              1
    GGA                 =           TRUE
    Meta                =          FALSE

    Exchange Hybrid     =           TRUE
    MP2 Hybrid          =          FALSE

   => Exchange Functionals <=

    0.0800   Slater exchange
    0.7200         Becke 88

   => Exact (HF) Exchange <=

    0.2000               HF

   => Correlation Functionals <=

    0.1900   Vosko, Wilk & Nusair (VWN5_RPA)
    0.8100   Lee, Yang & Parr

   => LibXC Density Thresholds  <==

    XC_HYB_GGA_XC_B3LYP:  1.00E-15

   => Molecular Quadrature <=

    Radial Scheme          =       TREUTLER
    Pruning Scheme         =           NONE
    Nuclear Scheme         =       TREUTLER

    Blocking Scheme        =         OCTREE
    BS radius alpha        =              1
    Pruning alpha          =              1
    Radial Points          =             75
    Spherical Points       =            302
    Total Points           =          42804
    Total Blocks           =            377
    Max Points             =            254
    Max Functions          =             28
    Weights Tolerance      =       1.00E-15

  -Total Gradient:
     Atom            X                  Y                   Z
    ------   -----------------  -----------------  -----------------
       1        0.000000000000    -0.000000000000    -0.000067817383
       2       -0.000000000000     0.000000000000     0.000031258753

*** tstop() called on Joses-MacBook-Pro-2.local at Thu Jul 17 13:52:46 2025
Module time:
	user time   =       0.40 seconds =       0.01 minutes
	system time =       1.39 seconds =       0.02 minutes
	total time  =          1 seconds =       0.02 minutes
Total time:
	user time   =      39.23 seconds =       0.65 minutes
	system time =      88.58 seconds =       1.48 minutes
	total time  =         13 seconds =       0.22 minutes

    			-----------------------------------------

    			 OPTKING 3.0: for geometry optimizations

    			     By R.A. King, Bethel University

    			        with contributions from

    			    A.V. Copan, J. Cayton, A. Heide

    			-----------------------------------------

	                            ===> Fragment 1 <==

	 Z (Atomic Numbers)          Masses                          Geom
	       7.000000            14.003074          0.00000000  0.00000000  2.32368714
	      10.000000            19.992440          0.00000000  0.00000000 -1.62755335

	 - Coordinate -           - BOHR/RAD -       - ANG/DEG -
	 R(1,2)           =         3.951240           2.090906

	        --- Internal Coordinate Step in ANG or DEG, aJ/ANG or AJ/DEG ---
	-------------------------------------------------------------------------------
	           Coordinate      Previous         Force          Change          New
	           ----------      --------        ------          ------        ------
	               R(1,2)       2.09091        0.00041        0.00076       2.09167
	-------------------------------------------------------------------------------

	                                 ==> Convergence Check <==

	Measures of convergence in internal coordinates in au.

	Criteria marked as inactive (o), active & met (*), and active & unmet ( ).

	----------------------------------------------------------------------------------------------
	   Step    Total Energy     Delta E     Max Force     RMS Force      Max Disp      RMS Disp
	----------------------------------------------------------------------------------------------
	  Convergence Criteria     1.00e-06 *    3.00e-04 *             o    1.20e-03 *             o
	----------------------------------------------------------------------------------------------
	    13    -182.79978320   -8.16e-07 *    4.95e-05 *    4.95e-05 o    1.44e-03      1.44e-03 o  ~
	----------------------------------------------------------------------------------------------

Next Geometry in Ang
	Fragment 1 (Ang)

	    N   0.0000000000   0.0000000000   1.2300231809
	   Ne   0.0000000000   0.0000000000  -0.8616450445

    Final optimized geometry and variables:
    Molecular point group: c2v
    Full point group: C_inf_v

    Geometry (in Angstrom), charge = 1, multiplicity = 5:

    N            0.000000000000     0.000000000000     1.229642276623
    NE           0.000000000000     0.000000000000    -0.861264140184

    Psi4 stopped on: Thursday, 17 July 2025 01:52PM
    Psi4 wall time for execution: 0:00:13.50

*** Psi4 exiting successfully. Buy a developer a beer!
