                               Psi4 1.9.1 release

  ==> Input File <==

--------------------------------------------------------------------------
molecule {
1 5
Ne   0.00000        0.60000        0.00000
Cl   0.00000       -0.60000        0.00000
}

set {
basis              cc-pvdz
reference          uks
maxiter            500
geom_maxiter       500
DAMPING_PERCENTAGE 1
guess              SAP
}

optimize('b3lyp')
--------------------------------------------------------------------------

    Molecular point group: c2v
  Charge       = 1
  Multiplicity = 5
  Basis Set: CC-PVDZ
    Blend: CC-PVDZ
  Basis Set: (CC-PVDZ AUX)
    Blend: CC-PVDZ-JKFIT
  @DF-UKS Final Energy:  -587.19546034810639
    Total Energy =                       -587.1954603481063941
 Dipole X            :          0.0000000            0.0000000            0.0000000
 Dipole Y            :          0.0000000            0.0000000            0.0000000
 Dipole Z            :          0.5215359            0.4050456            0.9265815
 Magnitude           :                                                    0.9265815
    Molecular point group: c2v
  Basis Set: CC-PVDZ
    Blend: CC-PVDZ
  Basis Set: (CC-PVDZ AUX)
    Blend: CC-PVDZ-JKFIT
  Basis Set: CC-PVDZ
    Blend: CC-PVDZ
  Basis Set: (CC-PVDZ AUX)
    Blend: CC-PVDZ-JKFIT
  @DF-UKS Final Energy:  -587.47314766193983
    Total Energy =                       -587.4731476619399473
  Basis Set: CC-PVDZ
    Blend: CC-PVDZ
  Basis Set: (CC-PVDZ AUX)
    Blend: CC-PVDZ-JKFIT
  Basis Set: CC-PVDZ
    Blend: CC-PVDZ
  @DF-UKS Final Energy:  -587.64356236830383
    Total Energy =                       -587.6435623683038330
  @DF-UKS Final Energy:  -587.72757714336569
    Total Energy =                       -587.7275771433656928
  @DF-UKS Final Energy:  -587.76790627174796
    Total Energy =                       -587.7679062717479610
  @DF-UKS Final Energy:  -587.78962824538633
    Total Energy =                       -587.7896282453863250
  @DF-UKS Final Energy:  -587.79904451208665
    Total Energy =                       -587.7990445120866525
  @DF-UKS Final Energy:  -587.80210695978599
    Total Energy =                       -587.8021069597859878
  @DF-UKS Final Energy:  -587.80276614728552
    Total Energy =                       -587.8027661472855243
  @DF-UKS Final Energy:  -587.80297363459158
    Total Energy =                       -587.8029736345915808
  @DF-UKS Final Energy:  -587.80300420632375
    Total Energy =                       -587.8030042063237488
  Basis Set: (CC-PVDZ AUX)
    Blend: CC-PVDZ-JKFIT
  Basis Set: CC-PVDZ
    Blend: CC-PVDZ
  Basis Set: (CC-PVDZ AUX)
    Blend: CC-PVDZ-JKFIT
  @DF-UKS Final Energy:  -587.80300913134056
    Total Energy =                       -587.8030091313404455
  Basis Set: CC-PVDZ
    Blend: CC-PVDZ
  Basis Set: (CC-PVDZ AUX)
    Blend: CC-PVDZ-JKFIT
  Charge       = 1
  Multiplicity = 5
  Basis Set: CC-PVDZ
    Blend: CC-PVDZ
  Basis Set: (CC-PVDZ AUX)
    Blend: CC-PVDZ-JKFIT

    Orbital Energies [Eh]
    ---------------------

    Alpha Occupied:

       1A1  -102.145269     2A1   -31.292922     3A1   -10.061479
       1B1    -7.825958     4A1    -7.823614     1B2    -7.822995
       5A1    -1.747299     6A1    -1.379637     7A1    -0.909787
       2B1    -0.880553     2B2    -0.874453     3B1    -0.842828
       3B2    -0.841681     8A1    -0.826634     4B2     0.050996

    Alpha Virtual:

       4B1     0.121572     9A1     0.129741    10A1     0.150566
       5B1     0.157722     1A2     0.169871     5B2     0.172135
      11A1     0.174185    12A1     0.178136     6B1     1.090225
       6B2     1.091646    13A1     1.192690    14A1     1.671054
       7B1     4.405857     7B2     4.406668    15A1     4.407094
      16A1     4.420827     2A2     4.420881

    Beta Occupied:

       1A1  -102.116512     2A1   -31.286596     3A1   -10.033680
       1B1    -7.788720     4A1    -7.787919     1B2    -7.770656
       5A1    -1.732613     6A1    -1.206001     7A1    -0.844119
       2B1    -0.838404     2B2    -0.837104

    Beta Virtual:

       3B1    -0.664229     8A1    -0.652154     3B2    -0.634449
       4B1     0.182980     9A1     0.201619     4B2     0.213080
      10A1     0.240704    11A1     0.275698     5B1     0.285839
       5B2     0.306533     1A2     0.310237    12A1     0.314873
       6B1     1.093743     6B2     1.096383    13A1     1.210579
      14A1     1.683963     7B1     4.421425     7B2     4.422369
      15A1     4.425089     2A2     4.425314    16A1     4.426627

    Final Occupation by Irrep:
             A1    A2    B1    B2
    DOCC [     7,    0,    2,    2 ]
    SOCC [     1,    0,    1,    2 ]
    NA   [     8,    0,    3,    4 ]
    NB   [     7,    0,    2,    2 ]

  @DF-UKS Final Energy:  -587.80301002994236

   => Energetics <=

    Nuclear Repulsion Energy =             38.2528543292700292
    One-Electron Energy =                -881.5162032312591691
    Two-Electron Energy =                 287.9367568322803663
    DFT Exchange-Correlation Energy =     -32.4764179602335545
    Empirical Dispersion Energy =           0.0000000000000000
    VV10 Nonlocal Energy =                  0.0000000000000000
    Total Energy =                       -587.8030100299423566

  UHF NO Occupations:
  HONO-2 :    3 B1 1.0000000
  HONO-1 :    4 B2 1.0000000
  HONO-0 :    8 A1 1.0000000
  LUNO+0 :    9 A1 0.0003662
  LUNO+1 :   10 A1 0.0002539
  LUNO+2 :    4 B1 0.0000114
  LUNO+3 :    5 B2 0.0000046

Computation Completed

Properties will be evaluated at   0.000000,   0.000000,   0.000000 [a0]

Properties computed using the SCF density matrix

 Multipole Moments:

 ------------------------------------------------------------------------------------
     Multipole            Electronic (a.u.)      Nuclear  (a.u.)        Total (a.u.)
 ------------------------------------------------------------------------------------

 L = 1.  Multiply by 2.5417464519 to convert [e a0] to [Debye]
 Dipole X            :          0.0000000            0.0000000            0.0000000
 Dipole Y            :          0.0000000            0.0000000            0.0000000
 Dipole Z            :         -1.7879172            0.7937959           -0.9941213
 Magnitude           :                                                    0.9941213

 ------------------------------------------------------------------------------------

*** tstop() called on Joses-MacBook-Pro-2.local at Thu Jul 17 14:43:21 2025
Module time:
	user time   =       2.98 seconds =       0.05 minutes
	system time =       4.31 seconds =       0.07 minutes
	total time  =          1 seconds =       0.02 minutes
Total time:
	user time   =      59.15 seconds =       0.99 minutes
	system time =      79.72 seconds =       1.33 minutes
	total time  =         14 seconds =       0.23 minutes

*** tstart() called on Joses-MacBook-Pro-2.local
*** at Thu Jul 17 14:43:21 2025

         ------------------------------------------------------------
                                   SCF GRAD
                          Rob Parrish, Justin Turney,
                       Andy Simmonett, and Alex Sokolov
         ------------------------------------------------------------

  ==> Geometry <==

    Molecular point group: c2v
    Full point group: C_inf_v

    Geometry (in Angstrom), charge = 1, multiplicity = 5:

       Center              X                  Y                   Z               Mass
    ------------   -----------------  -----------------  -----------------  -----------------
         NE           0.000000000000     0.000000000000     1.496272351031    19.992440176200
         CL           0.000000000000     0.000000000000    -0.855450870445    34.968852682000

  Nuclear repulsion =   38.252854329270029

  ==> Basis Set <==

  Basis Set: CC-PVDZ
    Blend: CC-PVDZ
    Number of shells: 14
    Number of basis functions: 32
    Number of Cartesian functions: 34
    Spherical Harmonics?: true
    Max angular momentum: 2

  ==> DFJKGrad: Density-Fitted SCF Gradients <==

    Gradient:                    1
    J tasked:                  Yes
    K tasked:                  Yes
    wK tasked:                  No
    OpenMP threads:              1
    Integrals threads:           1
    Memory [MiB]:              375
    Schwarz Cutoff:          1E-12
    Fitting Condition:       1E-10

   => Auxiliary Basis Set <=

  Basis Set: (CC-PVDZ AUX)
    Blend: CC-PVDZ-JKFIT
    Number of shells: 60
    Number of basis functions: 182
    Number of Cartesian functions: 211
    Spherical Harmonics?: true
    Max angular momentum: 3

  ==> DFT Potential <==

   => LibXC <=

    Version 6.2.2
    S. Lehtola, C. Steigemann, M. J.T. Oliveira, and M. A.L. Marques.,  SoftwareX 7, 1â€“5 (2018) (10.1016/j.softx.2017.11.002)

   => Composite Functional: B3LYP <=

    B3LYP Hyb-GGA Exchange-Correlation Functional

    P. J. Stephens, F. J. Devlin, C. F. Chabalowski, and M. J. Frisch.,  J. Phys. Chem. 98, 11623 (1994) (10.1021/j100096a001)

    Deriv               =              1
    GGA                 =           TRUE
    Meta                =          FALSE

    Exchange Hybrid     =           TRUE
    MP2 Hybrid          =          FALSE

   => Exchange Functionals <=

    0.0800   Slater exchange
    0.7200         Becke 88

   => Exact (HF) Exchange <=

    0.2000               HF

   => Correlation Functionals <=

    0.1900   Vosko, Wilk & Nusair (VWN5_RPA)
    0.8100   Lee, Yang & Parr

   => LibXC Density Thresholds  <==

    XC_HYB_GGA_XC_B3LYP:  1.00E-15

   => Molecular Quadrature <=

    Radial Scheme          =       TREUTLER
    Pruning Scheme         =           NONE
    Nuclear Scheme         =       TREUTLER

    Blocking Scheme        =         OCTREE
    BS radius alpha        =              1
    Pruning alpha          =              1
    Radial Points          =             75
    Spherical Points       =            302
    Total Points           =          41949
    Total Blocks           =            378
    Max Points             =            256
    Max Functions          =             32
    Weights Tolerance      =       1.00E-15

  -Total Gradient:
     Atom            X                  Y                   Z
    ------   -----------------  -----------------  -----------------
       1        0.000000000000     0.000000000000    -0.000058810140
       2       -0.000000000000     0.000000000000     0.000067913812

*** tstop() called on Joses-MacBook-Pro-2.local at Thu Jul 17 14:43:21 2025
Module time:
	user time   =       0.74 seconds =       0.01 minutes
	system time =       1.38 seconds =       0.02 minutes
	total time  =          0 seconds =       0.00 minutes
Total time:
	user time   =      59.89 seconds =       1.00 minutes
	system time =      81.10 seconds =       1.35 minutes
	total time  =         14 seconds =       0.23 minutes

    			-----------------------------------------

    			 OPTKING 3.0: for geometry optimizations

    			     By R.A. King, Bethel University

    			        with contributions from

    			    A.V. Copan, J. Cayton, A. Heide

    			-----------------------------------------

	                            ===> Fragment 1 <==

	 Z (Atomic Numbers)          Masses                          Geom
	      10.000000            19.992440          0.00000000  0.00000000  2.82754495
	      17.000000            34.968853          0.00000000  0.00000000 -1.61656786

	 - Coordinate -           - BOHR/RAD -       - ANG/DEG -
	 R(1,2)           =         4.444113           2.351723

	        --- Internal Coordinate Step in ANG or DEG, aJ/ANG or AJ/DEG ---
	-------------------------------------------------------------------------------
	           Coordinate      Previous         Force          Change          New
	           ----------      --------        ------          ------        ------
	               R(1,2)       2.35172        0.00052        0.00095       2.35267
	-------------------------------------------------------------------------------

	                                 ==> Convergence Check <==

	Measures of convergence in internal coordinates in au.

	Criteria marked as inactive (o), active & met (*), and active & unmet ( ).

	----------------------------------------------------------------------------------------------
	   Step    Total Energy     Delta E     Max Force     RMS Force      Max Disp      RMS Disp
	----------------------------------------------------------------------------------------------
	  Convergence Criteria     1.00e-06 *    3.00e-04 *             o    1.20e-03 *             o
	----------------------------------------------------------------------------------------------
	    13    -587.80301003   -8.99e-07 *    6.34e-05 *    6.34e-05 o    1.79e-03      1.79e-03 o  ~
	----------------------------------------------------------------------------------------------

Next Geometry in Ang
	Fragment 1 (Ang)

	   Ne   0.0000000000   0.0000000000   1.4967458857
	   Cl   0.0000000000   0.0000000000  -0.8559244051

    Final optimized geometry and variables:
    Molecular point group: c2v
    Full point group: C_inf_v

    Geometry (in Angstrom), charge = 1, multiplicity = 5:

    NE           0.000000000000     0.000000000000     1.496272351031
    CL           0.000000000000     0.000000000000    -0.855450870445

    Psi4 stopped on: Thursday, 17 July 2025 02:43PM
    Psi4 wall time for execution: 0:00:14.77

*** Psi4 exiting successfully. Buy a developer a beer!
