                               Psi4 1.9.1 release

  ==> Input File <==

--------------------------------------------------------------------------
molecule {
1 5
B   0.00000        0.60000        0.00000
O   0.00000       -0.60000        0.00000
}

set {
basis              cc-pvdz
reference          uks
maxiter            500
geom_maxiter       500
DAMPING_PERCENTAGE 1
guess              SAP
}

optimize('b3lyp')
--------------------------------------------------------------------------

    Molecular point group: c2v
  Charge       = 1
  Multiplicity = 5
  Basis Set: CC-PVDZ
    Blend: CC-PVDZ
  Basis Set: (CC-PVDZ AUX)
    Blend: CC-PVDZ-JKFIT
  @DF-UKS Final Energy:   -99.19993125463270
    Total Energy =                        -99.1999312546327019
 Dipole X            :          0.0000000            0.0000000            0.0000000
 Dipole Y            :          0.0000000            0.0000000            0.0000000
 Dipole Z            :          0.5743491           -0.6801842           -0.1058350
 Magnitude           :                                                    0.1058350
    Molecular point group: c2v
  Basis Set: CC-PVDZ
    Blend: CC-PVDZ
  Basis Set: (CC-PVDZ AUX)
    Blend: CC-PVDZ-JKFIT
  Basis Set: CC-PVDZ
    Blend: CC-PVDZ
  Basis Set: (CC-PVDZ AUX)
    Blend: CC-PVDZ-JKFIT
  @DF-UKS Final Energy:   -99.30457367890527
    Total Energy =                        -99.3045736789052711
  Basis Set: CC-PVDZ
    Blend: CC-PVDZ
  Basis Set: (CC-PVDZ AUX)
    Blend: CC-PVDZ-JKFIT
  Basis Set: CC-PVDZ
    Blend: CC-PVDZ
  @DF-UKS Final Energy:   -99.32411380696776
    Total Energy =                        -99.3241138069677447
  @DF-UKS Final Energy:   -99.33580504227807
    Total Energy =                        -99.3358050422780536
  @DF-UKS Final Energy:   -99.33883472007028
    Total Energy =                        -99.3388347200702810
  @DF-UKS Final Energy:   -99.33979978155978
    Total Energy =                        -99.3397997815597762
  @DF-UKS Final Energy:   -99.34022326933587
    Total Energy =                        -99.3402232693358656
  @DF-UKS Final Energy:   -99.34033105770948
    Total Energy =                        -99.3403310577094771
  @DF-UKS Final Energy:   -99.34036679198417
    Total Energy =                        -99.3403667919841666
  Basis Set: (CC-PVDZ AUX)
    Blend: CC-PVDZ-JKFIT
  Basis Set: CC-PVDZ
    Blend: CC-PVDZ
  Basis Set: (CC-PVDZ AUX)
    Blend: CC-PVDZ-JKFIT
  @DF-UKS Final Energy:   -99.34037151010619
    Total Energy =                        -99.3403715101061948
  Basis Set: CC-PVDZ
    Blend: CC-PVDZ
  Basis Set: (CC-PVDZ AUX)
    Blend: CC-PVDZ-JKFIT
  Charge       = 1
  Multiplicity = 5
  Basis Set: CC-PVDZ
    Blend: CC-PVDZ
  Basis Set: (CC-PVDZ AUX)
    Blend: CC-PVDZ-JKFIT

    Orbital Energies [Eh]
    ---------------------

    Alpha Occupied:

       1A1   -19.736819     2A1    -7.229015     3A1    -1.452821
       4A1    -0.871149     1B2    -0.866353     1B1    -0.865693
       5A1    -0.667079     2B2    -0.504924

    Alpha Virtual:

       2B1    -0.400034     6A1    -0.299754     7A1     0.015947
       3B2     0.016152     3B1     0.034578     8A1     0.077291
       4B2     0.338842     4B1     0.347324     1A2     0.366439
       9A1     0.375711    10A1     0.472262     5B2     0.603253
       5B1     0.604033    11A1     0.681861    12A1     1.224009
       2A2     2.032573    13A1     2.032599     6B1     2.156254
       6B2     2.157655    14A1     2.337605

    Beta Occupied:

       1A1   -19.678251     2A1    -7.198903     3A1    -1.281622
       4A1    -0.791146

    Beta Virtual:

       1B1    -0.575186     1B2    -0.568558     5A1    -0.465395
       2B1    -0.325250     2B2    -0.283310     6A1    -0.222713
       7A1     0.033649     3B1     0.057487     3B2     0.084785
       8A1     0.137791     4B1     0.420489     4B2     0.448339
       9A1     0.462810     1A2     0.465756    10A1     0.533702
       5B1     0.696284     5B2     0.706250    11A1     0.746522
      12A1     1.302675    13A1     2.211935     2A2     2.211962
       6B1     2.262019     6B2     2.267323    14A1     2.432191

    Final Occupation by Irrep:
             A1    A2    B1    B2
    DOCC [     4,    0,    0,    0 ]
    SOCC [     1,    0,    1,    2 ]
    NA   [     5,    0,    1,    2 ]
    NB   [     4,    0,    0,    0 ]

  @DF-UKS Final Energy:   -99.34037175104388

   => Energetics <=

    Nuclear Repulsion Energy =             12.0221785681543221
    One-Electron Energy =                -154.5351395314172578
    Two-Electron Energy =                  52.9587129211808261
    DFT Exchange-Correlation Energy =      -9.7861237089617621
    Empirical Dispersion Energy =           0.0000000000000000
    VV10 Nonlocal Energy =                  0.0000000000000000
    Total Energy =                        -99.3403717510438895

  UHF NO Occupations:
  HONO-2 :    5 A1 1.0000000
  HONO-1 :    1 B2 1.0000000
  HONO-0 :    2 B2 1.0000000
  LUNO+0 :    6 A1 0.0023370
  LUNO+1 :    7 A1 0.0006362
  LUNO+2 :    8 A1 0.0000004
  LUNO+3 :    9 A1 0.0000002

Computation Completed

Properties will be evaluated at   0.000000,   0.000000,   0.000000 [a0]

Properties computed using the SCF density matrix

 Multipole Moments:

 ------------------------------------------------------------------------------------
     Multipole            Electronic (a.u.)      Nuclear  (a.u.)        Total (a.u.)
 ------------------------------------------------------------------------------------

 L = 1.  Multiply by 2.5417464519 to convert [e a0] to [Debye]
 Dipole X            :          0.0000000            0.0000000            0.0000000
 Dipole Y            :          0.0000000            0.0000000            0.0000000
 Dipole Z            :          1.5772691           -0.9979832            0.5792860
 Magnitude           :                                                    0.5792860

 ------------------------------------------------------------------------------------

*** tstop() called on Joses-MacBook-Pro-2.local at Thu Jul 17 13:31:09 2025
Module time:
	user time   =       1.86 seconds =       0.03 minutes
	system time =       4.32 seconds =       0.07 minutes
	total time  =          1 seconds =       0.02 minutes
Total time:
	user time   =      28.67 seconds =       0.48 minutes
	system time =      64.83 seconds =       1.08 minutes
	total time  =          9 seconds =       0.15 minutes

*** tstart() called on Joses-MacBook-Pro-2.local
*** at Thu Jul 17 13:31:09 2025

         ------------------------------------------------------------
                                   SCF GRAD
                          Rob Parrish, Justin Turney,
                       Andy Simmonett, and Alex Sokolov
         ------------------------------------------------------------

  ==> Geometry <==

    Molecular point group: c2v
    Full point group: C_inf_v

    Geometry (in Angstrom), charge = 1, multiplicity = 5:

       Center              X                  Y                   Z               Mass
    ------------   -----------------  -----------------  -----------------  -----------------
         B            0.000000000000     0.000000000000     1.042865352016    11.009305360000
         O            0.000000000000     0.000000000000    -0.717804588695    15.994914619570

  Nuclear repulsion =   12.022178568154322

  ==> Basis Set <==

  Basis Set: CC-PVDZ
    Blend: CC-PVDZ
    Number of shells: 12
    Number of basis functions: 28
    Number of Cartesian functions: 30
    Spherical Harmonics?: true
    Max angular momentum: 2

  ==> DFJKGrad: Density-Fitted SCF Gradients <==

    Gradient:                    1
    J tasked:                  Yes
    K tasked:                  Yes
    wK tasked:                  No
    OpenMP threads:              1
    Integrals threads:           1
    Memory [MiB]:              375
    Schwarz Cutoff:          1E-12
    Fitting Condition:       1E-10

   => Auxiliary Basis Set <=

  Basis Set: (CC-PVDZ AUX)
    Blend: CC-PVDZ-JKFIT
    Number of shells: 48
    Number of basis functions: 140
    Number of Cartesian functions: 162
    Spherical Harmonics?: true
    Max angular momentum: 3

  ==> DFT Potential <==

   => LibXC <=

    Version 6.2.2
    S. Lehtola, C. Steigemann, M. J.T. Oliveira, and M. A.L. Marques.,  SoftwareX 7, 1â€“5 (2018) (10.1016/j.softx.2017.11.002)

   => Composite Functional: B3LYP <=

    B3LYP Hyb-GGA Exchange-Correlation Functional

    P. J. Stephens, F. J. Devlin, C. F. Chabalowski, and M. J. Frisch.,  J. Phys. Chem. 98, 11623 (1994) (10.1021/j100096a001)

    Deriv               =              1
    GGA                 =           TRUE
    Meta                =          FALSE

    Exchange Hybrid     =           TRUE
    MP2 Hybrid          =          FALSE

   => Exchange Functionals <=

    0.0800   Slater exchange
    0.7200         Becke 88

   => Exact (HF) Exchange <=

    0.2000               HF

   => Correlation Functionals <=

    0.1900   Vosko, Wilk & Nusair (VWN5_RPA)
    0.8100   Lee, Yang & Parr

   => LibXC Density Thresholds  <==

    XC_HYB_GGA_XC_B3LYP:  1.00E-15

   => Molecular Quadrature <=

    Radial Scheme          =       TREUTLER
    Pruning Scheme         =           NONE
    Nuclear Scheme         =       TREUTLER

    Blocking Scheme        =         OCTREE
    BS radius alpha        =              1
    Pruning alpha          =              1
    Radial Points          =             75
    Spherical Points       =            302
    Total Points           =          43344
    Total Blocks           =            396
    Max Points             =            255
    Max Functions          =             28
    Weights Tolerance      =       1.00E-15

  -Total Gradient:
     Atom            X                  Y                   Z
    ------   -----------------  -----------------  -----------------
       1        0.000000000000    -0.000000000000    -0.000024158434
       2        0.000000000000     0.000000000000     0.000039617275

*** tstop() called on Joses-MacBook-Pro-2.local at Thu Jul 17 13:31:09 2025
Module time:
	user time   =       0.36 seconds =       0.01 minutes
	system time =       1.17 seconds =       0.02 minutes
	total time  =          0 seconds =       0.00 minutes
Total time:
	user time   =      29.03 seconds =       0.48 minutes
	system time =      66.01 seconds =       1.10 minutes
	total time  =          9 seconds =       0.15 minutes

    			-----------------------------------------

    			 OPTKING 3.0: for geometry optimizations

    			     By R.A. King, Bethel University

    			        with contributions from

    			    A.V. Copan, J. Cayton, A. Heide

    			-----------------------------------------

	                            ===> Fragment 1 <==

	 Z (Atomic Numbers)          Masses                          Geom
	       5.000000            11.009305          0.00000000  0.00000000  1.97072990
	       8.000000            15.994915          0.00000000  0.00000000 -1.35645408

	 - Coordinate -           - BOHR/RAD -       - ANG/DEG -
	 R(1,2)           =         3.327184           1.760670

	        --- Internal Coordinate Step in ANG or DEG, aJ/ANG or AJ/DEG ---
	-------------------------------------------------------------------------------
	           Coordinate      Previous         Force          Change          New
	           ----------      --------        ------          ------        ------
	               R(1,2)       1.76067        0.00026        0.00021       1.76088
	-------------------------------------------------------------------------------

	                                 ==> Convergence Check <==

	Measures of convergence in internal coordinates in au.

	Criteria marked as inactive (o), active & met (*), and active & unmet ( ).

	----------------------------------------------------------------------------------------------
	   Step    Total Energy     Delta E     Max Force     RMS Force      Max Disp      RMS Disp
	----------------------------------------------------------------------------------------------
	  Convergence Criteria     1.00e-06 *    3.00e-04 *             o    1.20e-03 *             o
	----------------------------------------------------------------------------------------------
	    11     -99.34037175   -2.41e-07 *    3.19e-05 *    3.19e-05 o    3.95e-04 *    3.95e-04 o  ~
	----------------------------------------------------------------------------------------------

Next Geometry in Ang
	Fragment 1 (Ang)

	    B   0.0000000000   0.0000000000   1.0429698851
	    O   0.0000000000   0.0000000000  -0.7179091218

    Final optimized geometry and variables:
    Molecular point group: c2v
    Full point group: C_inf_v

    Geometry (in Angstrom), charge = 1, multiplicity = 5:

    B            0.000000000000     0.000000000000     1.042865352016
    O            0.000000000000     0.000000000000    -0.717804588695

    Psi4 stopped on: Thursday, 17 July 2025 01:31PM
    Psi4 wall time for execution: 0:00:09.49

*** Psi4 exiting successfully. Buy a developer a beer!
