                               Psi4 1.9.1 release

  ==> Input File <==

--------------------------------------------------------------------------
molecule {
1 5
Li   0.00000        0.60000        0.00000
S   0.00000       -0.60000        0.00000
}

set {
basis              cc-pvdz
reference          uks
maxiter            500
geom_maxiter       500
DAMPING_PERCENTAGE 1
guess              SAP
}

optimize('b3lyp')
--------------------------------------------------------------------------

    Molecular point group: c2v
  Charge       = 1
  Multiplicity = 5
  Basis Set: CC-PVDZ
    Blend: CC-PVDZ
  Basis Set: (CC-PVDZ AUX)
    Blend: CC-PVDZ-JKFIT + DEF2-UNIVERSAL-JKFIT
  @DF-UKS Final Energy:  -404.61559052948331
    Total Energy =                       -404.6155905294833133
 Dipole X            :          0.0000000            0.0000000            0.0000000
 Dipole Y            :          0.0000000            0.0000000            0.0000000
 Dipole Z            :         -0.2618156           -0.9503775           -1.2121932
 Magnitude           :                                                    1.2121932
    Molecular point group: c2v
  Basis Set: CC-PVDZ
    Blend: CC-PVDZ
  Basis Set: (CC-PVDZ AUX)
    Blend: CC-PVDZ-JKFIT + DEF2-UNIVERSAL-JKFIT
  Basis Set: CC-PVDZ
    Blend: CC-PVDZ
  Basis Set: (CC-PVDZ AUX)
    Blend: CC-PVDZ-JKFIT + DEF2-UNIVERSAL-JKFIT
  @DF-UKS Final Energy:  -404.77960808329362
    Total Energy =                       -404.7796080832936241
  Basis Set: CC-PVDZ
    Blend: CC-PVDZ
  Basis Set: (CC-PVDZ AUX)
    Blend: CC-PVDZ-JKFIT + DEF2-UNIVERSAL-JKFIT
  Basis Set: CC-PVDZ
    Blend: CC-PVDZ
  @DF-UKS Final Energy:  -404.92405042243939
    Total Energy =                       -404.9240504224393931
  @DF-UKS Final Energy:  -405.02387997527836
    Total Energy =                       -405.0238799752784189
  @DF-UKS Final Energy:  -405.09043561997271
    Total Energy =                       -405.0904356199725953
  @DF-UKS Final Energy:  -405.13352951526974
    Total Energy =                       -405.1335295152697427
  @DF-UKS Final Energy:  -405.16882161284087
    Total Energy =                       -405.1688216128409294
  @DF-UKS Final Energy:  -405.17652545854151
    Total Energy =                       -405.1765254585415619
  @DF-UKS Final Energy:  -405.20943530923211
    Total Energy =                       -405.2094353092320489
  @DF-UKS Final Energy:  -405.21314403257986
    Total Energy =                       -405.2131440325798621
  @DF-UKS Final Energy:  -405.22950284343835
    Total Energy =                       -405.2295028434384108
  @DF-UKS Final Energy:  -405.23068745940418
    Total Energy =                       -405.2306874594041233
  @DF-UKS Final Energy:  -405.23766524968192
    Total Energy =                       -405.2376652496819247
  @DF-UKS Final Energy:  -405.23795634771869
    Total Energy =                       -405.2379563477186935
  @DF-UKS Final Energy:  -405.24057266275821
    Total Energy =                       -405.2405726627582681
  @DF-UKS Final Energy:  -405.24062323282726
    Total Energy =                       -405.2406232328272040
  @DF-UKS Final Energy:  -405.24132870320449
    Total Energy =                       -405.2413287032044877
  @DF-UKS Final Energy:  -405.24141015350477
    Total Energy =                       -405.2414101535048303
  Basis Set: (CC-PVDZ AUX)
    Blend: CC-PVDZ-JKFIT + DEF2-UNIVERSAL-JKFIT
  Basis Set: CC-PVDZ
    Blend: CC-PVDZ
  Basis Set: (CC-PVDZ AUX)
    Blend: CC-PVDZ-JKFIT + DEF2-UNIVERSAL-JKFIT
  @DF-UKS Final Energy:  -405.24141707722572
    Total Energy =                       -405.2414170772257762
  Basis Set: CC-PVDZ
    Blend: CC-PVDZ
  Basis Set: (CC-PVDZ AUX)
    Blend: CC-PVDZ-JKFIT + DEF2-UNIVERSAL-JKFIT
  Charge       = 1
  Multiplicity = 5
  Basis Set: CC-PVDZ
    Blend: CC-PVDZ
  Basis Set: (CC-PVDZ AUX)
    Blend: CC-PVDZ-JKFIT + DEF2-UNIVERSAL-JKFIT

    Orbital Energies [Eh]
    ---------------------

    Alpha Occupied:

       1A1   -89.344335     2A1    -8.396112     1B1    -6.360930
       1B2    -6.360930     3A1    -6.360874     4A1    -2.164222
       5A1    -1.100849     2B2    -0.672769     2B1    -0.672769
       6A1    -0.671778     7A1    -0.264881

    Alpha Virtual:

       8A1    -0.148680     3B2    -0.143929     3B1    -0.143929
       9A1    -0.070234     4B1    -0.033031     4B2    -0.033031
      10A1    -0.007804    11A1     0.067190     5B2     0.088510
       5B1     0.088510     1A2     0.105906    12A1     0.105906
      13A1     0.167549     6B1     0.175814     6B2     0.175814
      14A1     0.178482     2A2     0.178527    15A1     0.188884
       7B2     0.191463     7B1     0.191463    16A1     0.310359

    Beta Occupied:

       1A1   -89.325437     2A1    -8.376999     1B1    -6.332609
       1B2    -6.332609     3A1    -6.332324     4A1    -2.157847
       5A1    -0.953538

    Beta Virtual:

       2B1    -0.489195     2B2    -0.489195     6A1    -0.488038
       7A1    -0.179547     8A1    -0.125586     3B1    -0.110730
       3B2    -0.110730     9A1    -0.037842     4B1    -0.020811
       4B2    -0.020811    10A1    -0.000196    11A1     0.107779
       5B1     0.131177     5B2     0.131177     1A2     0.143273
      12A1     0.143275    13A1     0.218314     6B1     0.232116
       6B2     0.232116    14A1     0.295153    15A1     0.297018
       2A2     0.297071     7B1     0.300817     7B2     0.300817
      16A1     0.365520

    Final Occupation by Irrep:
             A1    A2    B1    B2
    DOCC [     5,    0,    1,    1 ]
    SOCC [     2,    0,    1,    1 ]
    NA   [     7,    0,    2,    2 ]
    NB   [     5,    0,    1,    1 ]

  @DF-UKS Final Energy:  -405.24141711248103

   => Energetics <=

    Nuclear Repulsion Energy =              6.0209235779027086
    One-Electron Energy =                -564.7540300976992285
    Two-Electron Energy =                 175.3854614676115489
    DFT Exchange-Correlation Energy =     -21.8937720602961008
    Empirical Dispersion Energy =           0.0000000000000000
    VV10 Nonlocal Energy =                  0.0000000000000000
    Total Energy =                       -405.2414171124810309

  UHF NO Occupations:
  HONO-2 :    6 A1 1.0000000
  HONO-1 :    7 A1 1.0000000
  HONO-0 :    2 B1 1.0000000
  LUNO+0 :    8 A1 0.0002111
  LUNO+1 :    9 A1 0.0000006
  LUNO+2 :    3 B1 0.0000000
  LUNO+3 :    3 B2 0.0000000

Computation Completed

Properties will be evaluated at   0.000000,   0.000000,   0.000000 [a0]

Properties computed using the SCF density matrix

 Multipole Moments:

 ------------------------------------------------------------------------------------
     Multipole            Electronic (a.u.)      Nuclear  (a.u.)        Total (a.u.)
 ------------------------------------------------------------------------------------

 L = 1.  Multiply by 2.5417464519 to convert [e a0] to [Debye]
 Dipole X            :          0.0000000            0.0000000            0.0000000
 Dipole Y            :          0.0000000            0.0000000            0.0000000
 Dipole Z            :          3.6531680           -3.3411361            0.3120319
 Magnitude           :                                                    0.3120319

 ------------------------------------------------------------------------------------

*** tstop() called on Joses-MacBook-Pro-2.local at Thu Jul 17 12:57:16 2025
Module time:
	user time   =       2.04 seconds =       0.03 minutes
	system time =       3.59 seconds =       0.06 minutes
	total time  =          1 seconds =       0.02 minutes
Total time:
	user time   =      91.94 seconds =       1.53 minutes
	system time =     101.22 seconds =       1.69 minutes
	total time  =         19 seconds =       0.32 minutes

*** tstart() called on Joses-MacBook-Pro-2.local
*** at Thu Jul 17 12:57:16 2025

         ------------------------------------------------------------
                                   SCF GRAD
                          Rob Parrish, Justin Turney,
                       Andy Simmonett, and Alex Sokolov
         ------------------------------------------------------------

  ==> Geometry <==

    Molecular point group: c2v
    Full point group: C_inf_v

    Geometry (in Angstrom), charge = 1, multiplicity = 5:

       Center              X                  Y                   Z               Mass
    ------------   -----------------  -----------------  -----------------  -----------------
         LI           0.000000000000     0.000000000000     3.459539056176     7.016003436600
         S            0.000000000000     0.000000000000    -0.759166892091    31.972071174400

  Nuclear repulsion =    6.020923577902709

  ==> Basis Set <==

  Basis Set: CC-PVDZ
    Blend: CC-PVDZ
    Number of shells: 14
    Number of basis functions: 32
    Number of Cartesian functions: 34
    Spherical Harmonics?: true
    Max angular momentum: 2

  ==> DFJKGrad: Density-Fitted SCF Gradients <==

    Gradient:                    1
    J tasked:                  Yes
    K tasked:                  Yes
    wK tasked:                  No
    OpenMP threads:              1
    Integrals threads:           1
    Memory [MiB]:              375
    Schwarz Cutoff:          1E-12
    Fitting Condition:       1E-10

   => Auxiliary Basis Set <=

  Basis Set: (CC-PVDZ AUX)
    Blend: CC-PVDZ-JKFIT + DEF2-UNIVERSAL-JKFIT
    Number of shells: 53
    Number of basis functions: 163
    Number of Cartesian functions: 190
    Spherical Harmonics?: true
    Max angular momentum: 3

  ==> DFT Potential <==

   => LibXC <=

    Version 6.2.2
    S. Lehtola, C. Steigemann, M. J.T. Oliveira, and M. A.L. Marques.,  SoftwareX 7, 1â€“5 (2018) (10.1016/j.softx.2017.11.002)

   => Composite Functional: B3LYP <=

    B3LYP Hyb-GGA Exchange-Correlation Functional

    P. J. Stephens, F. J. Devlin, C. F. Chabalowski, and M. J. Frisch.,  J. Phys. Chem. 98, 11623 (1994) (10.1021/j100096a001)

    Deriv               =              1
    GGA                 =           TRUE
    Meta                =          FALSE

    Exchange Hybrid     =           TRUE
    MP2 Hybrid          =          FALSE

   => Exchange Functionals <=

    0.0800   Slater exchange
    0.7200         Becke 88

   => Exact (HF) Exchange <=

    0.2000               HF

   => Correlation Functionals <=

    0.1900   Vosko, Wilk & Nusair (VWN5_RPA)
    0.8100   Lee, Yang & Parr

   => LibXC Density Thresholds  <==

    XC_HYB_GGA_XC_B3LYP:  1.00E-15

   => Molecular Quadrature <=

    Radial Scheme          =       TREUTLER
    Pruning Scheme         =           NONE
    Nuclear Scheme         =       TREUTLER

    Blocking Scheme        =         OCTREE
    BS radius alpha        =              1
    Pruning alpha          =              1
    Radial Points          =             75
    Spherical Points       =            302
    Total Points           =          44402
    Total Blocks           =            456
    Max Points             =            253
    Max Functions          =             32
    Weights Tolerance      =       1.00E-15

  -Total Gradient:
     Atom            X                  Y                   Z
    ------   -----------------  -----------------  -----------------
       1        0.000000000000    -0.000000000000     0.000003421759
       2        0.000000000000     0.000000000000     0.000009792373

*** tstop() called on Joses-MacBook-Pro-2.local at Thu Jul 17 12:57:16 2025
Module time:
	user time   =       0.87 seconds =       0.01 minutes
	system time =       1.30 seconds =       0.02 minutes
	total time  =          0 seconds =       0.00 minutes
Total time:
	user time   =      92.81 seconds =       1.55 minutes
	system time =     102.52 seconds =       1.71 minutes
	total time  =         19 seconds =       0.32 minutes

    			-----------------------------------------

    			 OPTKING 3.0: for geometry optimizations

    			     By R.A. King, Bethel University

    			        with contributions from

    			    A.V. Copan, J. Cayton, A. Heide

    			-----------------------------------------

	                            ===> Fragment 1 <==

	 Z (Atomic Numbers)          Masses                          Geom
	       3.000000             7.016003          0.00000000  0.00000000  6.53758134
	      16.000000            31.972071          0.00000000  0.00000000 -1.43461751

	 - Coordinate -           - BOHR/RAD -       - ANG/DEG -
	 R(1,2)           =         7.972199           4.218706

	        --- Internal Coordinate Step in ANG or DEG, aJ/ANG or AJ/DEG ---
	-------------------------------------------------------------------------------
	           Coordinate      Previous         Force          Change          New
	           ----------      --------        ------          ------        ------
	               R(1,2)       4.21871        0.00003        0.00043       4.21913
	-------------------------------------------------------------------------------

	                                 ==> Convergence Check <==

	Measures of convergence in internal coordinates in au.

	Criteria marked as inactive (o), active & met (*), and active & unmet ( ).

	----------------------------------------------------------------------------------------------
	   Step    Total Energy     Delta E     Max Force     RMS Force      Max Disp      RMS Disp
	----------------------------------------------------------------------------------------------
	  Convergence Criteria     1.00e-06 *    3.00e-04 *             o    1.20e-03 *             o
	----------------------------------------------------------------------------------------------
	    20    -405.24141711   -3.53e-08 *    3.19e-06 *    3.19e-06 o    8.11e-04 *    8.11e-04 o  ~
	----------------------------------------------------------------------------------------------

Next Geometry in Ang
	Fragment 1 (Ang)

	   Li   0.0000000000   0.0000000000   3.4597535118
	    S   0.0000000000   0.0000000000  -0.7593813477

    Final optimized geometry and variables:
    Molecular point group: c2v
    Full point group: C_inf_v

    Geometry (in Angstrom), charge = 1, multiplicity = 5:

    LI           0.000000000000     0.000000000000     3.459539056176
    S            0.000000000000     0.000000000000    -0.759166892091

    Psi4 stopped on: Thursday, 17 July 2025 12:57PM
    Psi4 wall time for execution: 0:00:19.70

*** Psi4 exiting successfully. Buy a developer a beer!
