                               Psi4 1.9.1 release

  ==> Input File <==

--------------------------------------------------------------------------
molecule {
1 5
F   0.00000        0.60000        0.00000
Ar   0.00000       -0.60000        0.00000
}

set {
basis              cc-pvdz
reference          uks
maxiter            500
geom_maxiter       500
DAMPING_PERCENTAGE 1
guess              SAP
}

optimize('b3lyp')
--------------------------------------------------------------------------

    Molecular point group: c2v
  Charge       = 1
  Multiplicity = 5
  Basis Set: CC-PVDZ
    Blend: CC-PVDZ
  Basis Set: (CC-PVDZ AUX)
    Blend: CC-PVDZ-JKFIT
  @DF-UKS Final Energy:  -625.40378614278927
    Total Energy =                       -625.4037861427892722
 Dipole X            :          0.0000000            0.0000000            0.0000000
 Dipole Y            :          0.0000000            0.0000000            0.0000000
 Dipole Z            :         -0.2826307            0.6803766            0.3977459
 Magnitude           :                                                    0.3977459
    Molecular point group: c2v
  Basis Set: CC-PVDZ
    Blend: CC-PVDZ
  Basis Set: (CC-PVDZ AUX)
    Blend: CC-PVDZ-JKFIT
  Basis Set: CC-PVDZ
    Blend: CC-PVDZ
  Basis Set: (CC-PVDZ AUX)
    Blend: CC-PVDZ-JKFIT
  @DF-UKS Final Energy:  -625.58120724508774
    Total Energy =                       -625.5812072450878532
  Basis Set: CC-PVDZ
    Blend: CC-PVDZ
  Basis Set: (CC-PVDZ AUX)
    Blend: CC-PVDZ-JKFIT
  Basis Set: CC-PVDZ
    Blend: CC-PVDZ
  @DF-UKS Final Energy:  -625.69603784128344
    Total Energy =                       -625.6960378412834416
  @DF-UKS Final Energy:  -625.74779929495571
    Total Energy =                       -625.7477992949558256
  @DF-UKS Final Energy:  -625.77975629758350
    Total Energy =                       -625.7797562975833898
  @DF-UKS Final Energy:  -625.80438202443190
    Total Energy =                       -625.8043820244319022
  @DF-UKS Final Energy:  -625.82168189176195
    Total Energy =                       -625.8216818917618411
  @DF-UKS Final Energy:  -625.82875959871365
    Total Energy =                       -625.8287595987136456
  @DF-UKS Final Energy:  -625.83008064374474
    Total Energy =                       -625.8300806437447363
  @DF-UKS Final Energy:  -625.83025826236553
    Total Energy =                       -625.8302582623655326
  @DF-UKS Final Energy:  -625.83028714602221
    Total Energy =                       -625.8302871460222150
  Basis Set: (CC-PVDZ AUX)
    Blend: CC-PVDZ-JKFIT
  Basis Set: CC-PVDZ
    Blend: CC-PVDZ
  Basis Set: (CC-PVDZ AUX)
    Blend: CC-PVDZ-JKFIT
  @DF-UKS Final Energy:  -625.83029315200474
    Total Energy =                       -625.8302931520048560
  Basis Set: CC-PVDZ
    Blend: CC-PVDZ
  Basis Set: (CC-PVDZ AUX)
    Blend: CC-PVDZ-JKFIT
  Charge       = 1
  Multiplicity = 5
  Basis Set: CC-PVDZ
    Blend: CC-PVDZ
  Basis Set: (CC-PVDZ AUX)
    Blend: CC-PVDZ-JKFIT

    Orbital Energies [Eh]
    ---------------------

    Alpha Occupied:

       1A1  -115.585161     2A1   -25.301876     3A1   -11.628351
       1B1    -9.193930     4A1    -9.184201     1B2    -9.167888
       5A1    -1.693505     6A1    -1.453699     2B2    -0.996730
       7A1    -0.983338     2B1    -0.918966     3B1    -0.897071
       8A1    -0.864322     3B2    -0.853704     4B1     0.122208

    Alpha Virtual:

       4B2     0.224283     9A1     0.240284    10A1     0.283310
       5B1     0.333558    11A1     0.334984     5B2     0.365353
       1A2     0.369642    12A1     0.376118     6B2     0.679311
       6B1     0.725699    13A1     0.819009    14A1     1.252010
       7B2     2.972542    15A1     2.978091     2A2     3.011702
       7B1     3.041796    16A1     3.059195

    Beta Occupied:

       1A1  -115.564538     2A1   -25.250594     3A1   -11.608962
       4A1    -9.159524     1B2    -9.155798     1B1    -9.143095
       5A1    -1.553152     6A1    -1.345252     2B1    -0.851581
       7A1    -0.849101     2B2    -0.817945

    Beta Virtual:

       8A1    -0.685220     3B1    -0.677194     3B2    -0.670372
       4B2     0.251114     4B1     0.284764     9A1     0.287556
      10A1     0.359626    11A1     0.401560     5B2     0.414898
       5B1     0.446331     1A2     0.452900    12A1     0.463641
       6B1     0.758220     6B2     0.788745    13A1     0.886889
      14A1     1.323592     7B1     3.107898     2A2     3.116886
      15A1     3.120702     7B2     3.124841    16A1     3.143124

    Final Occupation by Irrep:
             A1    A2    B1    B2
    DOCC [     7,    0,    2,    2 ]
    SOCC [     1,    0,    2,    1 ]
    NA   [     8,    0,    4,    3 ]
    NB   [     7,    0,    2,    2 ]

  @DF-UKS Final Energy:  -625.83029355481824

   => Energetics <=

    Nuclear Repulsion Energy =             38.1060889587428520
    One-Electron Energy =                -930.5799585586410103
    Two-Electron Energy =                 299.5005998432024512
    DFT Exchange-Correlation Energy =     -32.8570237981224551
    Empirical Dispersion Energy =           0.0000000000000000
    VV10 Nonlocal Energy =                  0.0000000000000000
    Total Energy =                       -625.8302935548182404

  UHF NO Occupations:
  HONO-2 :    3 B1 1.0000000
  HONO-1 :    4 B1 1.0000000
  HONO-0 :    3 B2 1.0000000
  LUNO+0 :    9 A1 0.0012698
  LUNO+1 :   10 A1 0.0008556
  LUNO+2 :   11 A1 0.0003687
  LUNO+3 :    5 B1 0.0001573

Computation Completed

Properties will be evaluated at   0.000000,   0.000000,   0.000000 [a0]

Properties computed using the SCF density matrix

 Multipole Moments:

 ------------------------------------------------------------------------------------
     Multipole            Electronic (a.u.)      Nuclear  (a.u.)        Total (a.u.)
 ------------------------------------------------------------------------------------

 L = 1.  Multiply by 2.5417464519 to convert [e a0] to [Debye]
 Dipole X            :          0.0000000            0.0000000            0.0000000
 Dipole Y            :          0.0000000            0.0000000            0.0000000
 Dipole Z            :         -0.6801004            1.2755277            0.5954273
 Magnitude           :                                                    0.5954273

 ------------------------------------------------------------------------------------

*** tstop() called on Joses-MacBook-Pro-2.local at Thu Jul 17 14:36:50 2025
Module time:
	user time   =       2.10 seconds =       0.03 minutes
	system time =       4.72 seconds =       0.08 minutes
	total time  =          1 seconds =       0.02 minutes
Total time:
	user time   =      62.07 seconds =       1.03 minutes
	system time =      87.28 seconds =       1.45 minutes
	total time  =         16 seconds =       0.27 minutes

*** tstart() called on Joses-MacBook-Pro-2.local
*** at Thu Jul 17 14:36:50 2025

         ------------------------------------------------------------
                                   SCF GRAD
                          Rob Parrish, Justin Turney,
                       Andy Simmonett, and Alex Sokolov
         ------------------------------------------------------------

  ==> Geometry <==

    Molecular point group: c2v
    Full point group: C_inf_v

    Geometry (in Angstrom), charge = 1, multiplicity = 5:

       Center              X                  Y                   Z               Mass
    ------------   -----------------  -----------------  -----------------  -----------------
         F            0.000000000000     0.000000000000     1.524789465749    18.998403162730
         AR           0.000000000000     0.000000000000    -0.724895833137    39.962383123700

  Nuclear repulsion =   38.106088958742852

  ==> Basis Set <==

  Basis Set: CC-PVDZ
    Blend: CC-PVDZ
    Number of shells: 14
    Number of basis functions: 32
    Number of Cartesian functions: 34
    Spherical Harmonics?: true
    Max angular momentum: 2

  ==> DFJKGrad: Density-Fitted SCF Gradients <==

    Gradient:                    1
    J tasked:                  Yes
    K tasked:                  Yes
    wK tasked:                  No
    OpenMP threads:              1
    Integrals threads:           1
    Memory [MiB]:              375
    Schwarz Cutoff:          1E-12
    Fitting Condition:       1E-10

   => Auxiliary Basis Set <=

  Basis Set: (CC-PVDZ AUX)
    Blend: CC-PVDZ-JKFIT
    Number of shells: 60
    Number of basis functions: 182
    Number of Cartesian functions: 211
    Spherical Harmonics?: true
    Max angular momentum: 3

  ==> DFT Potential <==

   => LibXC <=

    Version 6.2.2
    S. Lehtola, C. Steigemann, M. J.T. Oliveira, and M. A.L. Marques.,  SoftwareX 7, 1â€“5 (2018) (10.1016/j.softx.2017.11.002)

   => Composite Functional: B3LYP <=

    B3LYP Hyb-GGA Exchange-Correlation Functional

    P. J. Stephens, F. J. Devlin, C. F. Chabalowski, and M. J. Frisch.,  J. Phys. Chem. 98, 11623 (1994) (10.1021/j100096a001)

    Deriv               =              1
    GGA                 =           TRUE
    Meta                =          FALSE

    Exchange Hybrid     =           TRUE
    MP2 Hybrid          =          FALSE

   => Exchange Functionals <=

    0.0800   Slater exchange
    0.7200         Becke 88

   => Exact (HF) Exchange <=

    0.2000               HF

   => Correlation Functionals <=

    0.1900   Vosko, Wilk & Nusair (VWN5_RPA)
    0.8100   Lee, Yang & Parr

   => LibXC Density Thresholds  <==

    XC_HYB_GGA_XC_B3LYP:  1.00E-15

   => Molecular Quadrature <=

    Radial Scheme          =       TREUTLER
    Pruning Scheme         =           NONE
    Nuclear Scheme         =       TREUTLER

    Blocking Scheme        =         OCTREE
    BS radius alpha        =              1
    Pruning alpha          =              1
    Radial Points          =             75
    Spherical Points       =            302
    Total Points           =          41425
    Total Blocks           =            372
    Max Points             =            256
    Max Functions          =             32
    Weights Tolerance      =       1.00E-15

  -Total Gradient:
     Atom            X                  Y                   Z
    ------   -----------------  -----------------  -----------------
       1       -0.000000000000     0.000000000000    -0.000019090636
       2        0.000000000000     0.000000000000     0.000067394345

*** tstop() called on Joses-MacBook-Pro-2.local at Thu Jul 17 14:36:50 2025
Module time:
	user time   =       0.81 seconds =       0.01 minutes
	system time =       1.57 seconds =       0.03 minutes
	total time  =          0 seconds =       0.00 minutes
Total time:
	user time   =      62.88 seconds =       1.05 minutes
	system time =      88.86 seconds =       1.48 minutes
	total time  =         16 seconds =       0.27 minutes

    			-----------------------------------------

    			 OPTKING 3.0: for geometry optimizations

    			     By R.A. King, Bethel University

    			        with contributions from

    			    A.V. Copan, J. Cayton, A. Heide

    			-----------------------------------------

	                            ===> Fragment 1 <==

	 Z (Atomic Numbers)          Masses                          Geom
	       9.000000            18.998403          0.00000000  0.00000000  2.88143449
	      18.000000            39.962383          0.00000000  0.00000000 -1.36985459

	 - Coordinate -           - BOHR/RAD -       - ANG/DEG -
	 R(1,2)           =         4.251289           2.249685

	        --- Internal Coordinate Step in ANG or DEG, aJ/ANG or AJ/DEG ---
	-------------------------------------------------------------------------------
	           Coordinate      Previous         Force          Change          New
	           ----------      --------        ------          ------        ------
	               R(1,2)       2.24969        0.00036        0.00048       2.25016
	-------------------------------------------------------------------------------

	                                 ==> Convergence Check <==

	Measures of convergence in internal coordinates in au.

	Criteria marked as inactive (o), active & met (*), and active & unmet ( ).

	----------------------------------------------------------------------------------------------
	   Step    Total Energy     Delta E     Max Force     RMS Force      Max Disp      RMS Disp
	----------------------------------------------------------------------------------------------
	  Convergence Criteria     1.00e-06 *    3.00e-04 *             o    1.20e-03 *             o
	----------------------------------------------------------------------------------------------
	    13    -625.83029355   -4.03e-07 *    4.32e-05 *    4.32e-05 o    9.03e-04 *    9.03e-04 o  ~
	----------------------------------------------------------------------------------------------

Next Geometry in Ang
	Fragment 1 (Ang)

	    F   0.0000000000   0.0000000000   1.5250284645
	   Ar   0.0000000000   0.0000000000  -0.7251348319

    Final optimized geometry and variables:
    Molecular point group: c2v
    Full point group: C_inf_v

    Geometry (in Angstrom), charge = 1, multiplicity = 5:

    F            0.000000000000     0.000000000000     1.524789465749
    AR           0.000000000000     0.000000000000    -0.724895833137

    Psi4 stopped on: Thursday, 17 July 2025 02:36PM
    Psi4 wall time for execution: 0:00:16.60

*** Psi4 exiting successfully. Buy a developer a beer!
