                               Psi4 1.9.1 release

  ==> Input File <==

--------------------------------------------------------------------------
molecule {
1 5
P   0.00000        0.60000        0.00000
Ar   0.00000       -0.60000        0.00000
}

set {
basis              cc-pvdz
reference          uks
maxiter            500
geom_maxiter       500
DAMPING_PERCENTAGE 1
guess              SAP
}

optimize('b3lyp')
--------------------------------------------------------------------------

    Molecular point group: c2v
  Charge       = 1
  Multiplicity = 5
  Basis Set: CC-PVDZ
    Blend: CC-PVDZ
  Basis Set: (CC-PVDZ AUX)
    Blend: CC-PVDZ-JKFIT
  @DF-UKS Final Energy:  -866.77998366076815
    Total Energy =                       -866.7799836607680390
 Dipole X            :          0.0000000            0.0000000            0.0000000
 Dipole Y            :          0.0000000            0.0000000            0.0000000
 Dipole Z            :         -2.0245751            1.3397069           -0.6848682
 Magnitude           :                                                    0.6848682
    Molecular point group: c2v
  Basis Set: CC-PVDZ
    Blend: CC-PVDZ
  Basis Set: (CC-PVDZ AUX)
    Blend: CC-PVDZ-JKFIT
  Basis Set: CC-PVDZ
    Blend: CC-PVDZ
  Basis Set: (CC-PVDZ AUX)
    Blend: CC-PVDZ-JKFIT
  @DF-UKS Final Energy:  -866.82268339530447
    Total Energy =                       -866.8226833953044661
  Basis Set: CC-PVDZ
    Blend: CC-PVDZ
  Basis Set: (CC-PVDZ AUX)
    Blend: CC-PVDZ-JKFIT
  Basis Set: CC-PVDZ
    Blend: CC-PVDZ
  @DF-UKS Final Energy:  -866.90138969284158
    Total Energy =                       -866.9013896928415761
  @DF-UKS Final Energy:  -867.15381476122377
    Total Energy =                       -867.1538147612238845
  @DF-UKS Final Energy:  -867.66372275028039
    Total Energy =                       -867.6637227502803853
  @DF-UKS Final Energy:  -867.87715211871455
    Total Energy =                       -867.8771521187145481
  @DF-UKS Final Energy:  -868.04160359749415
    Total Energy =                       -868.0416035974941451
  @DF-UKS Final Energy:  -868.15220289084164
    Total Energy =                       -868.1522028908416360
  @DF-UKS Final Energy:  -868.21736529426755
    Total Energy =                       -868.2173652942675517
  @DF-UKS Final Energy:  -868.24969347864476
    Total Energy =                       -868.2496934786447582
  @DF-UKS Final Energy:  -868.26540700502892
    Total Energy =                       -868.2654070050289192
  @DF-UKS Final Energy:  -868.27265782656093
    Total Energy =                       -868.2726578265610442
  @DF-UKS Final Energy:  -868.27574354204557
    Total Energy =                       -868.2757435420455749
  @DF-UKS Final Energy:  -868.27688331838658
    Total Energy =                       -868.2768833183865809
  @DF-UKS Final Energy:  -868.27721849028694
    Total Energy =                       -868.2772184902869412
  @DF-UKS Final Energy:  -868.27727641297395
    Total Energy =                       -868.2772764129739471
  @DF-UKS Final Energy:  -868.27728830910905
    Total Energy =                       -868.2772883091090534
  Basis Set: (CC-PVDZ AUX)
    Blend: CC-PVDZ-JKFIT
  Basis Set: CC-PVDZ
    Blend: CC-PVDZ
  Basis Set: (CC-PVDZ AUX)
    Blend: CC-PVDZ-JKFIT
  @DF-UKS Final Energy:  -868.27729094900076
    Total Energy =                       -868.2772909490006441
  Basis Set: CC-PVDZ
    Blend: CC-PVDZ
  Basis Set: (CC-PVDZ AUX)
    Blend: CC-PVDZ-JKFIT
  Charge       = 1
  Multiplicity = 5
  Basis Set: CC-PVDZ
    Blend: CC-PVDZ
  Basis Set: (CC-PVDZ AUX)
    Blend: CC-PVDZ-JKFIT

    Orbital Energies [Eh]
    ---------------------

    Alpha Occupied:

       1A1  -115.462879     2A1   -77.406310     3A1   -11.494206
       4A1    -9.057304     1B2    -9.039784     1B1    -9.039784
       5A1    -6.872478     2B2    -5.036310     2B1    -5.036310
       6A1    -5.036194     7A1    -1.306621     8A1    -0.866828
       9A1    -0.776909     3B1    -0.736746     3B2    -0.736746
      10A1    -0.509103     4B1    -0.508224     4B2    -0.508224

    Alpha Virtual:

      11A1     0.093719    12A1     0.143938     5B1     0.157083
       5B2     0.157083    13A1     0.175401    14A1     0.176765
       1A2     0.176767     6B2     0.177502     6B1     0.177502
       7B1     0.334824     7B2     0.334824    15A1     0.360547
      16A1     0.464303     8B1     0.492027     8B2     0.492027
      17A1     0.519241     2A2     0.519243    18A1     0.651969

    Beta Occupied:

       1A1  -115.457513     2A1   -77.388407     3A1   -11.489128
       4A1    -9.040683     1B2    -9.036638     1B1    -9.036638
       5A1    -6.851731     2B2    -5.010544     2B1    -5.010544
       6A1    -5.010521     7A1    -1.271391     3B1    -0.725279
       3B2    -0.725279     8A1    -0.717108

    Beta Virtual:

       9A1    -0.641752    10A1    -0.336061     4B1    -0.332512
       4B2    -0.332512    11A1     0.145194     5B1     0.219030
       5B2     0.219030    12A1     0.227111    13A1     0.246735
       6B1     0.276198     6B2     0.276198    14A1     0.296603
       1A2     0.296610     7B1     0.353569     7B2     0.353569
      15A1     0.389488    16A1     0.509361    17A1     0.525609
       2A2     0.525611     8B1     0.530251     8B2     0.530251
      18A1     0.686384

    Final Occupation by Irrep:
             A1    A2    B1    B2
    DOCC [     8,    0,    3,    3 ]
    SOCC [     2,    0,    1,    1 ]
    NA   [    10,    0,    4,    4 ]
    NB   [     8,    0,    3,    3 ]

  @DF-UKS Final Energy:  -868.27729162184244

   => Energetics <=

    Nuclear Repulsion Energy =             46.3664837671423484
    One-Electron Energy =               -1282.3153337162841581
    Two-Electron Energy =                 410.9641242265795427
    DFT Exchange-Correlation Energy =     -43.2925658992802838
    Empirical Dispersion Energy =           0.0000000000000000
    VV10 Nonlocal Energy =                  0.0000000000000000
    Total Energy =                       -868.2772916218424371

  UHF NO Occupations:
  HONO-2 :    4 B2 1.0000000
  HONO-1 :    9 A1 1.0000000
  HONO-0 :   10 A1 1.0000000
  LUNO+0 :   11 A1 0.0007244
  LUNO+1 :   12 A1 0.0002416
  LUNO+2 :    5 B2 0.0000137
  LUNO+3 :    5 B1 0.0000137

Computation Completed

Properties will be evaluated at   0.000000,   0.000000,   0.000000 [a0]

Properties computed using the SCF density matrix

 Multipole Moments:

 ------------------------------------------------------------------------------------
     Multipole            Electronic (a.u.)      Nuclear  (a.u.)        Total (a.u.)
 ------------------------------------------------------------------------------------

 L = 1.  Multiply by 2.5417464519 to convert [e a0] to [Debye]
 Dipole X            :          0.0000000            0.0000000            0.0000000
 Dipole Y            :          0.0000000            0.0000000            0.0000000
 Dipole Z            :         -3.2696897            3.4402442            0.1705545
 Magnitude           :                                                    0.1705545

 ------------------------------------------------------------------------------------

*** tstop() called on Joses-MacBook-Pro-2.local at Thu Jul 17 15:49:24 2025
Module time:
	user time   =       6.91 seconds =       0.12 minutes
	system time =       1.78 seconds =       0.03 minutes
	total time  =          1 seconds =       0.02 minutes
Total time:
	user time   =     225.47 seconds =       3.76 minutes
	system time =      54.27 seconds =       0.90 minutes
	total time  =         27 seconds =       0.45 minutes

*** tstart() called on Joses-MacBook-Pro-2.local
*** at Thu Jul 17 15:49:24 2025

         ------------------------------------------------------------
                                   SCF GRAD
                          Rob Parrish, Justin Turney,
                       Andy Simmonett, and Alex Sokolov
         ------------------------------------------------------------

  ==> Geometry <==

    Molecular point group: c2v
    Full point group: C_inf_v

    Geometry (in Angstrom), charge = 1, multiplicity = 5:

       Center              X                  Y                   Z               Mass
    ------------   -----------------  -----------------  -----------------  -----------------
         P            0.000000000000     0.000000000000     1.735979250711    30.973761998420
         AR           0.000000000000     0.000000000000    -1.345510551242    39.962383123700

  Nuclear repulsion =   46.366483767142348

  ==> Basis Set <==

  Basis Set: CC-PVDZ
    Blend: CC-PVDZ
    Number of shells: 16
    Number of basis functions: 36
    Number of Cartesian functions: 38
    Spherical Harmonics?: true
    Max angular momentum: 2

  ==> DFJKGrad: Density-Fitted SCF Gradients <==

    Gradient:                    1
    J tasked:                  Yes
    K tasked:                  Yes
    wK tasked:                  No
    OpenMP threads:              1
    Integrals threads:           1
    Memory [MiB]:              375
    Schwarz Cutoff:          1E-12
    Fitting Condition:       1E-10

   => Auxiliary Basis Set <=

  Basis Set: (CC-PVDZ AUX)
    Blend: CC-PVDZ-JKFIT
    Number of shells: 72
    Number of basis functions: 224
    Number of Cartesian functions: 260
    Spherical Harmonics?: true
    Max angular momentum: 3

  ==> DFT Potential <==

   => LibXC <=

    Version 6.2.2
    S. Lehtola, C. Steigemann, M. J.T. Oliveira, and M. A.L. Marques.,  SoftwareX 7, 1â€“5 (2018) (10.1016/j.softx.2017.11.002)

   => Composite Functional: B3LYP <=

    B3LYP Hyb-GGA Exchange-Correlation Functional

    P. J. Stephens, F. J. Devlin, C. F. Chabalowski, and M. J. Frisch.,  J. Phys. Chem. 98, 11623 (1994) (10.1021/j100096a001)

    Deriv               =              1
    GGA                 =           TRUE
    Meta                =          FALSE

    Exchange Hybrid     =           TRUE
    MP2 Hybrid          =          FALSE

   => Exchange Functionals <=

    0.0800   Slater exchange
    0.7200         Becke 88

   => Exact (HF) Exchange <=

    0.2000               HF

   => Correlation Functionals <=

    0.1900   Vosko, Wilk & Nusair (VWN5_RPA)
    0.8100   Lee, Yang & Parr

   => LibXC Density Thresholds  <==

    XC_HYB_GGA_XC_B3LYP:  1.00E-15

   => Molecular Quadrature <=

    Radial Scheme          =       TREUTLER
    Pruning Scheme         =           NONE
    Nuclear Scheme         =       TREUTLER

    Blocking Scheme        =         OCTREE
    BS radius alpha        =              1
    Pruning alpha          =              1
    Radial Points          =             75
    Spherical Points       =            302
    Total Points           =          40926
    Total Blocks           =            380
    Max Points             =            249
    Max Functions          =             36
    Weights Tolerance      =       1.00E-15

  -Total Gradient:
     Atom            X                  Y                   Z
    ------   -----------------  -----------------  -----------------
       1        0.000000000000     0.000000000000    -0.000034370782
       2        0.000000000000     0.000000000000     0.000041704925

*** tstop() called on Joses-MacBook-Pro-2.local at Thu Jul 17 15:49:24 2025
Module time:
	user time   =       2.44 seconds =       0.04 minutes
	system time =       1.05 seconds =       0.02 minutes
	total time  =          0 seconds =       0.00 minutes
Total time:
	user time   =     227.91 seconds =       3.80 minutes
	system time =      55.32 seconds =       0.92 minutes
	total time  =         27 seconds =       0.45 minutes

    			-----------------------------------------

    			 OPTKING 3.0: for geometry optimizations

    			     By R.A. King, Bethel University

    			        with contributions from

    			    A.V. Copan, J. Cayton, A. Heide

    			-----------------------------------------

	                            ===> Fragment 1 <==

	 Z (Atomic Numbers)          Masses                          Geom
	      15.000000            30.973762          0.00000000  0.00000000  3.28052534
	      18.000000            39.962383          0.00000000  0.00000000 -2.54264644

	 - Coordinate -           - BOHR/RAD -       - ANG/DEG -
	 R(1,2)           =         5.823172           3.081490

	        --- Internal Coordinate Step in ANG or DEG, aJ/ANG or AJ/DEG ---
	-------------------------------------------------------------------------------
	           Coordinate      Previous         Force          Change          New
	           ----------      --------        ------          ------        ------
	               R(1,2)       3.08149        0.00031        0.00245       3.08394
	-------------------------------------------------------------------------------

	                                 ==> Convergence Check <==

	Measures of convergence in internal coordinates in au.

	Criteria marked as inactive (o), active & met (*), and active & unmet ( ).

	----------------------------------------------------------------------------------------------
	   Step    Total Energy     Delta E     Max Force     RMS Force      Max Disp      RMS Disp
	----------------------------------------------------------------------------------------------
	  Convergence Criteria     1.00e-06 *    3.00e-04 *             o    1.20e-03 *             o
	----------------------------------------------------------------------------------------------
	    19    -868.27729162   -6.73e-07 *    3.80e-05 *    3.80e-05 o    4.63e-03      4.63e-03 o  ~
	----------------------------------------------------------------------------------------------

Next Geometry in Ang
	Fragment 1 (Ang)

	    P   0.0000000000   0.0000000000   1.7372039283
	   Ar   0.0000000000   0.0000000000  -1.3467352288

    Final optimized geometry and variables:
    Molecular point group: c2v
    Full point group: C_inf_v

    Geometry (in Angstrom), charge = 1, multiplicity = 5:

    P            0.000000000000     0.000000000000     1.735979250711
    AR           0.000000000000     0.000000000000    -1.345510551242

    Psi4 stopped on: Thursday, 17 July 2025 03:49PM
    Psi4 wall time for execution: 0:00:27.37

*** Psi4 exiting successfully. Buy a developer a beer!
