                               Psi4 1.9.1 release

  ==> Input File <==

--------------------------------------------------------------------------
molecule {
1 5
Be   0.00000        0.60000        0.00000
N   0.00000       -0.60000        0.00000
}

set {
basis              cc-pvdz
reference          uks
maxiter            500
geom_maxiter       500
DAMPING_PERCENTAGE 1
guess              SAP
}

optimize('b3lyp')
--------------------------------------------------------------------------

    Molecular point group: c2v
  Charge       = 1
  Multiplicity = 5
  Basis Set: CC-PVDZ
    Blend: CC-PVDZ
  Basis Set: (CC-PVDZ AUX)
    Blend: CC-PVDZ-JKFIT + DEF2-UNIVERSAL-JKFIT
  @DF-UKS Final Energy:   -68.76371585445659
    Total Energy =                        -68.7637158544565921
 Dipole X            :          0.0000000            0.0000000            0.0000000
 Dipole Y            :          0.0000000            0.0000000            0.0000000
 Dipole Z            :          0.2889871           -0.6968945           -0.4079074
 Magnitude           :                                                    0.4079074
    Molecular point group: c2v
  Basis Set: CC-PVDZ
    Blend: CC-PVDZ
  Basis Set: (CC-PVDZ AUX)
    Blend: CC-PVDZ-JKFIT + DEF2-UNIVERSAL-JKFIT
  Basis Set: CC-PVDZ
    Blend: CC-PVDZ
  Basis Set: (CC-PVDZ AUX)
    Blend: CC-PVDZ-JKFIT + DEF2-UNIVERSAL-JKFIT
  @DF-UKS Final Energy:   -68.87744329262051
    Total Energy =                        -68.8774432926205122
  Basis Set: CC-PVDZ
    Blend: CC-PVDZ
  Basis Set: (CC-PVDZ AUX)
    Blend: CC-PVDZ-JKFIT + DEF2-UNIVERSAL-JKFIT
  Basis Set: CC-PVDZ
    Blend: CC-PVDZ
  @DF-UKS Final Energy:   -68.90441978841307
    Total Energy =                        -68.9044197884130654
  @DF-UKS Final Energy:   -68.92125331922071
    Total Energy =                        -68.9212533192207104
  @DF-UKS Final Energy:   -68.92721730828872
    Total Energy =                        -68.9272173082887178
  @DF-UKS Final Energy:   -68.93073590053662
    Total Energy =                        -68.9307359005366180
  @DF-UKS Final Energy:   -68.93276207038210
    Total Energy =                        -68.9327620703820969
  @DF-UKS Final Energy:   -68.93351076918583
    Total Energy =                        -68.9335107691858298
  @DF-UKS Final Energy:   -68.93392408969547
    Total Energy =                        -68.9339240896954664
  @DF-UKS Final Energy:   -68.93412289706235
    Total Energy =                        -68.9341228970623519
  @DF-UKS Final Energy:   -68.93418610543601
    Total Energy =                        -68.9341861054360123
  @DF-UKS Final Energy:   -68.93421332152737
    Total Energy =                        -68.9342133215273662
  @DF-UKS Final Energy:   -68.93422031302951
    Total Energy =                        -68.9342203130295132
  Basis Set: (CC-PVDZ AUX)
    Blend: CC-PVDZ-JKFIT + DEF2-UNIVERSAL-JKFIT
  Basis Set: CC-PVDZ
    Blend: CC-PVDZ
  Basis Set: (CC-PVDZ AUX)
    Blend: CC-PVDZ-JKFIT + DEF2-UNIVERSAL-JKFIT
  @DF-UKS Final Energy:   -68.93422138482754
    Total Energy =                        -68.9342213848275378
  Basis Set: CC-PVDZ
    Blend: CC-PVDZ
  Basis Set: (CC-PVDZ AUX)
    Blend: CC-PVDZ-JKFIT + DEF2-UNIVERSAL-JKFIT
  Charge       = 1
  Multiplicity = 5
  Basis Set: CC-PVDZ
    Blend: CC-PVDZ
  Basis Set: (CC-PVDZ AUX)
    Blend: CC-PVDZ-JKFIT + DEF2-UNIVERSAL-JKFIT

    Orbital Energies [Eh]
    ---------------------

    Alpha Occupied:

       1A1   -14.756352     2A1    -4.470675     3A1    -1.116448
       4A1    -0.690316     1B2    -0.648629     1B1    -0.648629
       5A1    -0.497338

    Alpha Virtual:

       2B2    -0.320950     2B1    -0.320950     6A1    -0.253478
       7A1    -0.050077     3B2    -0.032696     3B1    -0.032696
       8A1    -0.023234     4B1     0.183243     4B2     0.183243
       1A2     0.194202     9A1     0.194203    10A1     0.286341
       5B2     0.473150     5B1     0.473150    11A1     0.480593
      12A1     0.870925    13A1     1.382380     2A2     1.382385
       6B1     1.431381     6B2     1.431381    14A1     1.571948

    Beta Occupied:

       1A1   -14.698187     2A1    -4.454722     3A1    -0.923494

    Beta Virtual:

       4A1    -0.469227     1B1    -0.397325     1B2    -0.397325
       5A1    -0.333864     2B1    -0.248007     2B2    -0.248007
       6A1    -0.172649     7A1    -0.025006     3B2    -0.013824
       3B1    -0.013824     8A1     0.017368     9A1     0.261183
       1A2     0.261183     4B1     0.261853     4B2     0.261853
      10A1     0.365604     5B2     0.568235     5B1     0.568235
      11A1     0.577929    12A1     0.958128    13A1     1.532005
       2A2     1.532019     6B1     1.574408     6B2     1.574408
      14A1     1.707569

    Final Occupation by Irrep:
             A1    A2    B1    B2
    DOCC [     3,    0,    0,    0 ]
    SOCC [     2,    0,    1,    1 ]
    NA   [     5,    0,    1,    1 ]
    NB   [     3,    0,    0,    0 ]

  @DF-UKS Final Energy:   -68.93422143622340

   => Energetics <=

    Nuclear Repulsion Energy =              6.9286356785107719
    One-Electron Energy =                -103.3910897464652408
    Two-Electron Energy =                  35.0650159924663285
    DFT Exchange-Correlation Energy =      -7.5367833607352619
    Empirical Dispersion Energy =           0.0000000000000000
    VV10 Nonlocal Energy =                  0.0000000000000000
    Total Energy =                        -68.9342214362233960

  UHF NO Occupations:
  HONO-2 :    1 B2 1.0000000
  HONO-1 :    5 A1 1.0000000
  HONO-0 :    1 B1 1.0000000
  LUNO+0 :    6 A1 0.0013164
  LUNO+1 :    7 A1 0.0000004
  LUNO+2 :    8 A1 0.0000002
  LUNO+3 :    9 A1 0.0000000

Computation Completed

Properties will be evaluated at   0.000000,   0.000000,   0.000000 [a0]

Properties computed using the SCF density matrix

 Multipole Moments:

 ------------------------------------------------------------------------------------
     Multipole            Electronic (a.u.)      Nuclear  (a.u.)        Total (a.u.)
 ------------------------------------------------------------------------------------

 L = 1.  Multiply by 2.5417464519 to convert [e a0] to [Debye]
 Dipole X            :          0.0000000            0.0000000            0.0000000
 Dipole Y            :          0.0000000            0.0000000            0.0000000
 Dipole Z            :          2.4238141           -1.2419303            1.1818837
 Magnitude           :                                                    1.1818837

 ------------------------------------------------------------------------------------

*** tstop() called on Joses-MacBook-Pro-2.local at Thu Jul 17 13:15:44 2025
Module time:
	user time   =       2.18 seconds =       0.04 minutes
	system time =       2.95 seconds =       0.05 minutes
	total time  =          1 seconds =       0.02 minutes
Total time:
	user time   =      54.36 seconds =       0.91 minutes
	system time =      69.61 seconds =       1.16 minutes
	total time  =         12 seconds =       0.20 minutes

*** tstart() called on Joses-MacBook-Pro-2.local
*** at Thu Jul 17 13:15:44 2025

         ------------------------------------------------------------
                                   SCF GRAD
                          Rob Parrish, Justin Turney,
                       Andy Simmonett, and Alex Sokolov
         ------------------------------------------------------------

  ==> Geometry <==

    Molecular point group: c2v
    Full point group: C_inf_v

    Geometry (in Angstrom), charge = 1, multiplicity = 5:

       Center              X                  Y                   Z               Mass
    ------------   -----------------  -----------------  -----------------  -----------------
         BE           0.000000000000     0.000000000000     1.301124911897     9.012183065000
         N            0.000000000000     0.000000000000    -0.837385840619    14.003074004430

  Nuclear repulsion =    6.928635678510772

  ==> Basis Set <==

  Basis Set: CC-PVDZ
    Blend: CC-PVDZ
    Number of shells: 12
    Number of basis functions: 28
    Number of Cartesian functions: 30
    Spherical Harmonics?: true
    Max angular momentum: 2

  ==> DFJKGrad: Density-Fitted SCF Gradients <==

    Gradient:                    1
    J tasked:                  Yes
    K tasked:                  Yes
    wK tasked:                  No
    OpenMP threads:              1
    Integrals threads:           1
    Memory [MiB]:              375
    Schwarz Cutoff:          1E-12
    Fitting Condition:       1E-10

   => Auxiliary Basis Set <=

  Basis Set: (CC-PVDZ AUX)
    Blend: CC-PVDZ-JKFIT + DEF2-UNIVERSAL-JKFIT
    Number of shells: 41
    Number of basis functions: 121
    Number of Cartesian functions: 141
    Spherical Harmonics?: true
    Max angular momentum: 3

  ==> DFT Potential <==

   => LibXC <=

    Version 6.2.2
    S. Lehtola, C. Steigemann, M. J.T. Oliveira, and M. A.L. Marques.,  SoftwareX 7, 1â€“5 (2018) (10.1016/j.softx.2017.11.002)

   => Composite Functional: B3LYP <=

    B3LYP Hyb-GGA Exchange-Correlation Functional

    P. J. Stephens, F. J. Devlin, C. F. Chabalowski, and M. J. Frisch.,  J. Phys. Chem. 98, 11623 (1994) (10.1021/j100096a001)

    Deriv               =              1
    GGA                 =           TRUE
    Meta                =          FALSE

    Exchange Hybrid     =           TRUE
    MP2 Hybrid          =          FALSE

   => Exchange Functionals <=

    0.0800   Slater exchange
    0.7200         Becke 88

   => Exact (HF) Exchange <=

    0.2000               HF

   => Correlation Functionals <=

    0.1900   Vosko, Wilk & Nusair (VWN5_RPA)
    0.8100   Lee, Yang & Parr

   => LibXC Density Thresholds  <==

    XC_HYB_GGA_XC_B3LYP:  1.00E-15

   => Molecular Quadrature <=

    Radial Scheme          =       TREUTLER
    Pruning Scheme         =           NONE
    Nuclear Scheme         =       TREUTLER

    Blocking Scheme        =         OCTREE
    BS radius alpha        =              1
    Pruning alpha          =              1
    Radial Points          =             75
    Spherical Points       =            302
    Total Points           =          43603
    Total Blocks           =            408
    Max Points             =            256
    Max Functions          =             28
    Weights Tolerance      =       1.00E-15

  -Total Gradient:
     Atom            X                  Y                   Z
    ------   -----------------  -----------------  -----------------
       1        0.000000000000     0.000000000000    -0.000001271875
       2        0.000000000000    -0.000000000000     0.000016363333

*** tstop() called on Joses-MacBook-Pro-2.local at Thu Jul 17 13:15:44 2025
Module time:
	user time   =       0.70 seconds =       0.01 minutes
	system time =       1.16 seconds =       0.02 minutes
	total time  =          0 seconds =       0.00 minutes
Total time:
	user time   =      55.07 seconds =       0.92 minutes
	system time =      70.77 seconds =       1.18 minutes
	total time  =         12 seconds =       0.20 minutes

    			-----------------------------------------

    			 OPTKING 3.0: for geometry optimizations

    			     By R.A. King, Bethel University

    			        with contributions from

    			    A.V. Copan, J. Cayton, A. Heide

    			-----------------------------------------

	                            ===> Fragment 1 <==

	 Z (Atomic Numbers)          Masses                          Geom
	       4.000000             9.012183          0.00000000  0.00000000  2.45876974
	       7.000000            14.003074          0.00000000  0.00000000 -1.58242990

	 - Coordinate -           - BOHR/RAD -       - ANG/DEG -
	 R(1,2)           =         4.041200           2.138511

	        --- Internal Coordinate Step in ANG or DEG, aJ/ANG or AJ/DEG ---
	-------------------------------------------------------------------------------
	           Coordinate      Previous         Force          Change          New
	           ----------      --------        ------          ------        ------
	               R(1,2)       2.13851        0.00007        0.00043       2.13894
	-------------------------------------------------------------------------------

	                                 ==> Convergence Check <==

	Measures of convergence in internal coordinates in au.

	Criteria marked as inactive (o), active & met (*), and active & unmet ( ).

	----------------------------------------------------------------------------------------------
	   Step    Total Energy     Delta E     Max Force     RMS Force      Max Disp      RMS Disp
	----------------------------------------------------------------------------------------------
	  Convergence Criteria     1.00e-06 *    3.00e-04 *             o    1.20e-03 *             o
	----------------------------------------------------------------------------------------------
	    15     -68.93422144   -5.14e-08 *    8.82e-06 *    8.82e-06 o    8.16e-04 *    8.16e-04 o  ~
	----------------------------------------------------------------------------------------------

Next Geometry in Ang
	Fragment 1 (Ang)

	   Be   0.0000000000   0.0000000000   1.3013409093
	    N   0.0000000000   0.0000000000  -0.8376018380

    Final optimized geometry and variables:
    Molecular point group: c2v
    Full point group: C_inf_v

    Geometry (in Angstrom), charge = 1, multiplicity = 5:

    BE           0.000000000000     0.000000000000     1.301124911897
    N            0.000000000000     0.000000000000    -0.837385840619

    Psi4 stopped on: Thursday, 17 July 2025 01:15PM
    Psi4 wall time for execution: 0:00:12.42

*** Psi4 exiting successfully. Buy a developer a beer!
