                               Psi4 1.9.1 release

  ==> Input File <==

--------------------------------------------------------------------------
molecule {
1 5
O   0.00000        0.60000        0.00000
F   0.00000       -0.60000        0.00000
}

set {
basis              cc-pvdz
reference          uks
maxiter            500
geom_maxiter       500
DAMPING_PERCENTAGE 1
guess              SAP
}

optimize('b3lyp')
--------------------------------------------------------------------------

    Molecular point group: c2v
  Charge       = 1
  Multiplicity = 5
  Basis Set: CC-PVDZ
    Blend: CC-PVDZ
  Basis Set: (CC-PVDZ AUX)
    Blend: CC-PVDZ-JKFIT
  @DF-UKS Final Energy:  -173.91551948153935
    Total Energy =                       -173.9155194815393486
 Dipole X            :          0.0000000            0.0000000            0.0000000
 Dipole Y            :          0.0000000            0.0000000            0.0000000
 Dipole Z            :         -0.1339493            0.5205619            0.3866126
 Magnitude           :                                                    0.3866126
    Molecular point group: c2v
  Basis Set: CC-PVDZ
    Blend: CC-PVDZ
  Basis Set: (CC-PVDZ AUX)
    Blend: CC-PVDZ-JKFIT
  Basis Set: CC-PVDZ
    Blend: CC-PVDZ
  Basis Set: (CC-PVDZ AUX)
    Blend: CC-PVDZ-JKFIT
  @DF-UKS Final Energy:  -174.17381727220945
    Total Energy =                       -174.1738172722094760
  Basis Set: CC-PVDZ
    Blend: CC-PVDZ
  Basis Set: (CC-PVDZ AUX)
    Blend: CC-PVDZ-JKFIT
  Basis Set: CC-PVDZ
    Blend: CC-PVDZ
  @DF-UKS Final Energy:  -174.22544891858394
    Total Energy =                       -174.2254489185839645
  @DF-UKS Final Energy:  -174.26335113925091
    Total Energy =                       -174.2633511392509149
  @DF-UKS Final Energy:  -174.28039667862052
    Total Energy =                       -174.2803966786205194
  @DF-UKS Final Energy:  -174.28879364954332
    Total Energy =                       -174.2887936495433223
  @DF-UKS Final Energy:  -174.29286963657850
    Total Energy =                       -174.2928696365785015
  @DF-UKS Final Energy:  -174.29502425168229
    Total Energy =                       -174.2950242516822925
  @DF-UKS Final Energy:  -174.29633972722959
    Total Energy =                       -174.2963397272295936
  @DF-UKS Final Energy:  -174.29746625943196
    Total Energy =                       -174.2974662594319852
  @DF-UKS Final Energy:  -174.29926052028242
    Total Energy =                       -174.2992605202824166
  @DF-UKS Final Energy:  -174.29929434208248
    Total Energy =                       -174.2992943420824759
  @DF-UKS Final Energy:  -174.29932844336631
    Total Energy =                       -174.2993284433663064
  @DF-UKS Final Energy:  -174.30238927552250
    Total Energy =                       -174.3023892755225006
  @DF-UKS Final Energy:  -174.30243833355132
    Total Energy =                       -174.3024383335512937
  @DF-UKS Final Energy:  -174.30248742807692
    Total Energy =                       -174.3024874280769438
  @DF-UKS Final Energy:  -174.30521731947118
    Total Energy =                       -174.3052173194711827
  @DF-UKS Final Energy:  -174.30526036729952
    Total Energy =                       -174.3052603672995247
  @DF-UKS Final Energy:  -174.30737223441400
    Total Energy =                       -174.3073722344140037
  @DF-UKS Final Energy:  -174.30740553680670
    Total Energy =                       -174.3074055368066979
  @DF-UKS Final Energy:  -174.31994118620534
    Total Energy =                       -174.3199411862053125
  @DF-UKS Final Energy:  -174.31994229891211
    Total Energy =                       -174.3199422989121103
  @DF-UKS Final Energy:  -174.31994341095427
    Total Energy =                       -174.3199434109542381
  @DF-UKS Final Energy:  -174.31994452232735
    Total Energy =                       -174.3199445223273756
  @DF-UKS Final Energy:  -174.31994563303874
    Total Energy =                       -174.3199456330387136
  @DF-UKS Final Energy:  -174.31994674308336
    Total Energy =                       -174.3199467430833920
  @DF-UKS Final Energy:  -174.32012429678659
    Total Energy =                       -174.3201242967865880
  @DF-UKS Final Energy:  -174.32012530987629
    Total Energy =                       -174.3201253098762891
  @DF-UKS Final Energy:  -174.32012631582538
    Total Energy =                       -174.3201263158253767
  @DF-UKS Final Energy:  -174.32012732120981
    Total Energy =                       -174.3201273212097817
  @DF-UKS Final Energy:  -174.32012832603181
    Total Energy =                       -174.3201283260318064
  @DF-UKS Final Energy:  -174.32012933029117
    Total Energy =                       -174.3201293302911665
  @DF-UKS Final Energy:  -174.32013033398607
    Total Energy =                       -174.3201303339860715
  @DF-UKS Final Energy:  -174.32013133711948
    Total Energy =                       -174.3201313371194772
  @DF-UKS Final Energy:  -174.32013233969400
    Total Energy =                       -174.3201323396939983
  @DF-UKS Final Energy:  -174.32013334170466
    Total Energy =                       -174.3201333417046612
  @DF-UKS Final Energy:  -174.32013434315621
    Total Energy =                       -174.3201343431562123
  @DF-UKS Final Energy:  -174.32013534404851
    Total Energy =                       -174.3201353440485093
  Basis Set: (CC-PVDZ AUX)
    Blend: CC-PVDZ-JKFIT
  Basis Set: CC-PVDZ
    Blend: CC-PVDZ
  Basis Set: (CC-PVDZ AUX)
    Blend: CC-PVDZ-JKFIT
  @DF-UKS Final Energy:  -174.32013634438050
    Total Energy =                       -174.3201363443805008
  Basis Set: CC-PVDZ
    Blend: CC-PVDZ
  Basis Set: (CC-PVDZ AUX)
    Blend: CC-PVDZ-JKFIT
  Charge       = 1
  Multiplicity = 5
  Basis Set: CC-PVDZ
    Blend: CC-PVDZ
  Basis Set: (CC-PVDZ AUX)
    Blend: CC-PVDZ-JKFIT

    Orbital Energies [Eh]
    ---------------------

    Alpha Occupied:

       1A1   -25.020787     2A1   -19.794908     3A1    -1.468341
       4A1    -1.429017     5A1    -0.883569     1B2    -0.872633
       1B1    -0.872633     6A1    -0.746249     2B1    -0.667653
       2B2    -0.667653

    Alpha Virtual:

       7A1     0.462762     3B2     0.468373     3B1     0.468373
       8A1     0.688568     9A1     0.862199     4B1     0.908617
       4B2     0.908617    10A1     1.236624    11A1     2.020961
       5B2     2.023591     5B1     2.023591     1A2     2.031495
      12A1     2.031495    13A1     3.227576     6B1     3.246692
       6B2     3.246692    14A1     3.306830     2A2     3.306830

    Beta Occupied:

       1A1   -24.980338     2A1   -19.720664     3A1    -1.312385
       4A1    -1.244589     1B1    -0.591330     1B2    -0.591330

    Beta Virtual:

       2B2    -0.584553     2B1    -0.584553     5A1    -0.559973
       6A1    -0.434787     3B2     0.569737     3B1     0.569737
       7A1     0.576523     8A1     0.794015     4B1     0.942205
       4B2     0.942205     9A1     0.976195    10A1     1.295445
       1A2     2.191410    11A1     2.191410     5B2     2.196022
       5B1     2.196022    12A1     2.198363     2A2     3.347730
      13A1     3.347730     6B1     3.359333     6B2     3.359333
      14A1     3.376767

    Final Occupation by Irrep:
             A1    A2    B1    B2
    DOCC [     4,    0,    1,    1 ]
    SOCC [     2,    0,    1,    1 ]
    NA   [     6,    0,    2,    2 ]
    NB   [     4,    0,    1,    1 ]

  @DF-UKS Final Energy:  -174.32013734415324

   => Energetics <=

    Nuclear Repulsion Energy =              2.4415281818063157
    One-Electron Energy =                -241.9815744169221148
    Two-Electron Energy =                  80.0895896354768979
    DFT Exchange-Correlation Energy =     -14.8696807445143442
    Empirical Dispersion Energy =           0.0000000000000000
    VV10 Nonlocal Energy =                  0.0000000000000000
    Total Energy =                       -174.3201373441532382

  UHF NO Occupations:
  HONO-2 :    6 A1 1.0000000
  HONO-1 :    2 B2 1.0000000
  HONO-0 :    2 B1 1.0000000
  LUNO+0 :    7 A1 0.0007648
  LUNO+1 :    3 B2 0.0007239
  LUNO+2 :    3 B1 0.0007239
  LUNO+3 :    8 A1 0.0003150

Computation Completed

Properties will be evaluated at   0.000000,   0.000000,   0.000000 [a0]

Properties computed using the SCF density matrix

 Multipole Moments:

 ------------------------------------------------------------------------------------
     Multipole            Electronic (a.u.)      Nuclear  (a.u.)        Total (a.u.)
 ------------------------------------------------------------------------------------

 L = 1.  Multiply by 2.5417464519 to convert [e a0] to [Debye]
 Dipole X            :          0.0000000            0.0000000            0.0000000
 Dipole Y            :          0.0000000            0.0000000            0.0000000
 Dipole Z            :          1.0772902            6.7696008            7.8468911
 Magnitude           :                                                    7.8468911

 ------------------------------------------------------------------------------------

*** tstop() called on Joses-MacBook-Pro-2.local at Thu Jul 17 14:04:37 2025
Module time:
	user time   =       2.24 seconds =       0.04 minutes
	system time =       5.31 seconds =       0.09 minutes
	total time  =          1 seconds =       0.02 minutes
Total time:
	user time   =     554.88 seconds =       9.25 minutes
	system time =    1382.32 seconds =      23.04 minutes
	total time  =        193 seconds =       3.22 minutes

*** tstart() called on Joses-MacBook-Pro-2.local
*** at Thu Jul 17 14:04:37 2025

         ------------------------------------------------------------
                                   SCF GRAD
                          Rob Parrish, Justin Turney,
                       Andy Simmonett, and Alex Sokolov
         ------------------------------------------------------------

  ==> Geometry <==

    Molecular point group: c2v
    Full point group: C_inf_v

    Geometry (in Angstrom), charge = 1, multiplicity = 5:

       Center              X                  Y                   Z               Mass
    ------------   -----------------  -----------------  -----------------  -----------------
         O            0.000000000000     0.000000000000     8.472349569088    15.994914619570
         F            0.000000000000     0.000000000000    -7.132942006966    18.998403162730

  Nuclear repulsion =    2.441528181806316

  ==> Basis Set <==

  Basis Set: CC-PVDZ
    Blend: CC-PVDZ
    Number of shells: 12
    Number of basis functions: 28
    Number of Cartesian functions: 30
    Spherical Harmonics?: true
    Max angular momentum: 2

  ==> DFJKGrad: Density-Fitted SCF Gradients <==

    Gradient:                    1
    J tasked:                  Yes
    K tasked:                  Yes
    wK tasked:                  No
    OpenMP threads:              1
    Integrals threads:           1
    Memory [MiB]:              375
    Schwarz Cutoff:          1E-12
    Fitting Condition:       1E-10

   => Auxiliary Basis Set <=

  Basis Set: (CC-PVDZ AUX)
    Blend: CC-PVDZ-JKFIT
    Number of shells: 48
    Number of basis functions: 140
    Number of Cartesian functions: 162
    Spherical Harmonics?: true
    Max angular momentum: 3

  ==> DFT Potential <==

   => LibXC <=

    Version 6.2.2
    S. Lehtola, C. Steigemann, M. J.T. Oliveira, and M. A.L. Marques.,  SoftwareX 7, 1â€“5 (2018) (10.1016/j.softx.2017.11.002)

   => Composite Functional: B3LYP <=

    B3LYP Hyb-GGA Exchange-Correlation Functional

    P. J. Stephens, F. J. Devlin, C. F. Chabalowski, and M. J. Frisch.,  J. Phys. Chem. 98, 11623 (1994) (10.1021/j100096a001)

    Deriv               =              1
    GGA                 =           TRUE
    Meta                =          FALSE

    Exchange Hybrid     =           TRUE
    MP2 Hybrid          =          FALSE

   => Exchange Functionals <=

    0.0800   Slater exchange
    0.7200         Becke 88

   => Exact (HF) Exchange <=

    0.2000               HF

   => Correlation Functionals <=

    0.1900   Vosko, Wilk & Nusair (VWN5_RPA)
    0.8100   Lee, Yang & Parr

   => LibXC Density Thresholds  <==

    XC_HYB_GGA_XC_B3LYP:  1.00E-15

   => Molecular Quadrature <=

    Radial Scheme          =       TREUTLER
    Pruning Scheme         =           NONE
    Nuclear Scheme         =       TREUTLER

    Blocking Scheme        =         OCTREE
    BS radius alpha        =              1
    Pruning alpha          =              1
    Radial Points          =             75
    Spherical Points       =            302
    Total Points           =          41676
    Total Blocks           =            427
    Max Points             =            256
    Max Functions          =             14
    Weights Tolerance      =       1.00E-15

  -Total Gradient:
     Atom            X                  Y                   Z
    ------   -----------------  -----------------  -----------------
       1        0.000000000000    -0.000000000000    -0.000177090894
       2        0.000000000000    -0.000000000000     0.000177217746

*** tstop() called on Joses-MacBook-Pro-2.local at Thu Jul 17 14:04:37 2025
Module time:
	user time   =       0.33 seconds =       0.01 minutes
	system time =       0.83 seconds =       0.01 minutes
	total time  =          0 seconds =       0.00 minutes
Total time:
	user time   =     555.21 seconds =       9.25 minutes
	system time =    1383.15 seconds =      23.05 minutes
	total time  =        193 seconds =       3.22 minutes

    			-----------------------------------------

    			 OPTKING 3.0: for geometry optimizations

    			     By R.A. King, Bethel University

    			        with contributions from

    			    A.V. Copan, J. Cayton, A. Heide

    			-----------------------------------------

	                            ===> Fragment 1 <==

	 Z (Atomic Numbers)          Masses                          Geom
	       8.000000            15.994915          0.00000000   0.00000000  16.01042032
	       9.000000            18.998403          0.00000000   0.00000000 -13.47930686

	 - Coordinate -           - BOHR/RAD -       - ANG/DEG -
	 R(1,2)           =        29.489727          15.605292

	        --- Internal Coordinate Step in ANG or DEG, aJ/ANG or AJ/DEG ---
	-------------------------------------------------------------------------------
	           Coordinate      Previous         Force          Change          New
	           ----------      --------        ------          ------        ------
	               R(1,2)      15.60529        0.00146        0.00299      15.60828
	-------------------------------------------------------------------------------

	                                 ==> Convergence Check <==

	Measures of convergence in internal coordinates in au.

	Criteria marked as inactive (o), active & met (*), and active & unmet ( ).

	----------------------------------------------------------------------------------------------
	   Step    Total Energy     Delta E     Max Force     RMS Force      Max Disp      RMS Disp
	----------------------------------------------------------------------------------------------
	  Convergence Criteria     1.00e-06 *    3.00e-04 *             o    1.20e-03 *             o
	----------------------------------------------------------------------------------------------
	   192    -174.32013734   -1.00e-06 *    1.77e-04 *    1.77e-04 o    5.65e-03      5.65e-03 o  ~
	----------------------------------------------------------------------------------------------

Next Geometry in Ang
	Fragment 1 (Ang)

	    O   0.0000000000   0.0000000000   8.4738432337
	    F   0.0000000000   0.0000000000  -7.1344356716

    Final optimized geometry and variables:
    Molecular point group: c2v
    Full point group: C_inf_v

    Geometry (in Angstrom), charge = 1, multiplicity = 5:

    O            0.000000000000     0.000000000000     8.472349569088
    F            0.000000000000     0.000000000000    -7.132942006966

    Psi4 stopped on: Thursday, 17 July 2025 02:04PM
    Psi4 wall time for execution: 0:03:13.92

*** Psi4 exiting successfully. Buy a developer a beer!
