                               Psi4 1.9.1 release

  ==> Input File <==

--------------------------------------------------------------------------
molecule {
1 5
C   0.00000        0.60000        0.00000
Na   0.00000       -0.60000        0.00000
}

set {
basis              cc-pvdz
reference          uks
maxiter            500
geom_maxiter       500
DAMPING_PERCENTAGE 1
guess              SAP
}

optimize('b3lyp')
--------------------------------------------------------------------------

    Molecular point group: c2v
  Charge       = 1
  Multiplicity = 5
  Basis Set: CC-PVDZ
    Blend: CC-PVDZ
  Basis Set: (CC-PVDZ AUX)
    Blend: CC-PVDZ-JKFIT + DEF2-UNIVERSAL-JKFIT
  @DF-UKS Final Energy:  -199.25844471340611
    Total Energy =                       -199.2584447134061065
 Dipole X            :          0.0000000            0.0000000            0.0000000
 Dipole Y            :          0.0000000            0.0000000            0.0000000
 Dipole Z            :         -1.0622532            0.3848790           -0.6773742
 Magnitude           :                                                    0.6773742
    Molecular point group: c2v
  Basis Set: CC-PVDZ
    Blend: CC-PVDZ
  Basis Set: (CC-PVDZ AUX)
    Blend: CC-PVDZ-JKFIT + DEF2-UNIVERSAL-JKFIT
  Basis Set: CC-PVDZ
    Blend: CC-PVDZ
  Basis Set: (CC-PVDZ AUX)
    Blend: CC-PVDZ-JKFIT + DEF2-UNIVERSAL-JKFIT
  @DF-UKS Final Energy:  -199.42080317007961
    Total Energy =                       -199.4208031700796084
  Basis Set: CC-PVDZ
    Blend: CC-PVDZ
  Basis Set: (CC-PVDZ AUX)
    Blend: CC-PVDZ-JKFIT + DEF2-UNIVERSAL-JKFIT
  Basis Set: CC-PVDZ
    Blend: CC-PVDZ
  @DF-UKS Final Energy:  -199.56571559676013
    Total Energy =                       -199.5657155967601284
  @DF-UKS Final Energy:  -199.66160882400834
    Total Energy =                       -199.6616088240083400
  @DF-UKS Final Energy:  -199.71787778720514
    Total Energy =                       -199.7178777872051398
  @DF-UKS Final Energy:  -199.74705219649854
    Total Energy =                       -199.7470521964985437
  @DF-UKS Final Energy:  -199.76221723289615
    Total Energy =                       -199.7622172328961483
  @DF-UKS Final Energy:  -199.77003663139277
    Total Energy =                       -199.7700366313927702
  @DF-UKS Final Energy:  -199.77402413485441
    Total Energy =                       -199.7740241348544146
  @DF-UKS Final Energy:  -199.77585272124844
    Total Energy =                       -199.7758527212484410
  @DF-UKS Final Energy:  -199.77654134325661
    Total Energy =                       -199.7765413432566106
  @DF-UKS Final Energy:  -199.77673081217813
    Total Energy =                       -199.7767308121781298
  @DF-UKS Final Energy:  -199.77675704370321
    Total Energy =                       -199.7767570437032134
  Basis Set: (CC-PVDZ AUX)
    Blend: CC-PVDZ-JKFIT + DEF2-UNIVERSAL-JKFIT
  Basis Set: CC-PVDZ
    Blend: CC-PVDZ
  Basis Set: (CC-PVDZ AUX)
    Blend: CC-PVDZ-JKFIT + DEF2-UNIVERSAL-JKFIT
  @DF-UKS Final Energy:  -199.77676164675574
    Total Energy =                       -199.7767616467557161
  Basis Set: CC-PVDZ
    Blend: CC-PVDZ
  Basis Set: (CC-PVDZ AUX)
    Blend: CC-PVDZ-JKFIT + DEF2-UNIVERSAL-JKFIT
  Charge       = 1
  Multiplicity = 5
  Basis Set: CC-PVDZ
    Blend: CC-PVDZ
  Basis Set: (CC-PVDZ AUX)
    Blend: CC-PVDZ-JKFIT + DEF2-UNIVERSAL-JKFIT

    Orbital Energies [Eh]
    ---------------------

    Alpha Occupied:

       1A1   -38.763628     2A1   -10.501519     3A1    -2.501119
       4A1    -1.432278     1B1    -1.432271     1B2    -1.432271
       5A1    -0.820296     6A1    -0.479651     2B2    -0.470110
       2B1    -0.470110

    Alpha Virtual:

       7A1    -0.244281     3B2    -0.149198     3B1    -0.149198
       8A1    -0.134690     9A1    -0.069257     4B2    -0.047471
       4B1    -0.047471    10A1    -0.045987     5B1     0.004310
       5B2     0.004310     1A2     0.010659    11A1     0.010660
      12A1     0.047797     6B2     0.313715     6B1     0.313715
      13A1     0.344536    14A1     0.603799     2A2     0.904625
      15A1     0.904710     7B2     0.919043     7B1     0.919043
      16A1     0.954917

    Beta Occupied:

       1A1   -38.763479     2A1   -10.432303     3A1    -2.500852
       1B1    -1.432152     1B2    -1.432152     4A1    -1.432015

    Beta Virtual:

       5A1    -0.454963     6A1    -0.259907     7A1    -0.179612
       2B1    -0.179370     2B2    -0.179370     3B2    -0.127927
       3B1    -0.127927     8A1    -0.107599     9A1    -0.059035
       4B2    -0.046428     4B1    -0.046428    10A1    -0.027312
       1A2     0.006528    11A1     0.006531     5B1     0.019566
       5B2     0.019566    12A1     0.074209     6B2     0.444066
       6B1     0.444066    13A1     0.473155    14A1     0.745668
       2A2     1.143531    15A1     1.143895     7B1     1.155601
       7B2     1.155601    16A1     1.183303

    Final Occupation by Irrep:
             A1    A2    B1    B2
    DOCC [     4,    0,    1,    1 ]
    SOCC [     2,    0,    1,    1 ]
    NA   [     6,    0,    2,    2 ]
    NB   [     4,    0,    1,    1 ]

  @DF-UKS Final Energy:  -199.77676191469854

   => Energetics <=

    Nuclear Repulsion Energy =             11.6679147821766218
    One-Electron Energy =                -297.2836268861972258
    Two-Electron Energy =                 101.6404683410865175
    DFT Exchange-Correlation Energy =     -15.8015181517644567
    Empirical Dispersion Energy =           0.0000000000000000
    VV10 Nonlocal Energy =                  0.0000000000000000
    Total Energy =                       -199.7767619146985396

  UHF NO Occupations:
  HONO-2 :    5 A1 1.0000000
  HONO-1 :    2 B1 1.0000000
  HONO-0 :    6 A1 1.0000000
  LUNO+0 :    7 A1 0.0000013
  LUNO+1 :    8 A1 0.0000010
  LUNO+2 :    3 B1 0.0000001
  LUNO+3 :    3 B2 0.0000001

Computation Completed

Properties will be evaluated at   0.000000,   0.000000,   0.000000 [a0]

Properties computed using the SCF density matrix

 Multipole Moments:

 ------------------------------------------------------------------------------------
     Multipole            Electronic (a.u.)      Nuclear  (a.u.)        Total (a.u.)
 ------------------------------------------------------------------------------------

 L = 1.  Multiply by 2.5417464519 to convert [e a0] to [Debye]
 Dipole X            :          0.0000000            0.0000000            0.0000000
 Dipole Y            :          0.0000000            0.0000000            0.0000000
 Dipole Z            :         -2.6112940            0.9600522           -1.6512418
 Magnitude           :                                                    1.6512418

 ------------------------------------------------------------------------------------

*** tstop() called on Joses-MacBook-Pro-2.local at Thu Jul 17 13:43:05 2025
Module time:
	user time   =       1.78 seconds =       0.03 minutes
	system time =       3.41 seconds =       0.06 minutes
	total time  =          1 seconds =       0.02 minutes
Total time:
	user time   =      54.51 seconds =       0.91 minutes
	system time =      84.00 seconds =       1.40 minutes
	total time  =         14 seconds =       0.23 minutes

*** tstart() called on Joses-MacBook-Pro-2.local
*** at Thu Jul 17 13:43:05 2025

         ------------------------------------------------------------
                                   SCF GRAD
                          Rob Parrish, Justin Turney,
                       Andy Simmonett, and Alex Sokolov
         ------------------------------------------------------------

  ==> Geometry <==

    Molecular point group: c2v
    Full point group: C_inf_v

    Geometry (in Angstrom), charge = 1, multiplicity = 5:

       Center              X                  Y                   Z               Mass
    ------------   -----------------  -----------------  -----------------  -----------------
         C            0.000000000000     0.000000000000     1.966732768547    12.000000000000
         NA           0.000000000000     0.000000000000    -1.026578080583    22.989769282000

  Nuclear repulsion =   11.667914782176622

  ==> Basis Set <==

  Basis Set: CC-PVDZ
    Blend: CC-PVDZ
    Number of shells: 14
    Number of basis functions: 32
    Number of Cartesian functions: 34
    Spherical Harmonics?: true
    Max angular momentum: 2

  ==> DFJKGrad: Density-Fitted SCF Gradients <==

    Gradient:                    1
    J tasked:                  Yes
    K tasked:                  Yes
    wK tasked:                  No
    OpenMP threads:              1
    Integrals threads:           1
    Memory [MiB]:              375
    Schwarz Cutoff:          1E-12
    Fitting Condition:       1E-10

   => Auxiliary Basis Set <=

  Basis Set: (CC-PVDZ AUX)
    Blend: CC-PVDZ-JKFIT + DEF2-UNIVERSAL-JKFIT
    Number of shells: 58
    Number of basis functions: 182
    Number of Cartesian functions: 218
    Spherical Harmonics?: true
    Max angular momentum: 4

  ==> DFT Potential <==

   => LibXC <=

    Version 6.2.2
    S. Lehtola, C. Steigemann, M. J.T. Oliveira, and M. A.L. Marques.,  SoftwareX 7, 1â€“5 (2018) (10.1016/j.softx.2017.11.002)

   => Composite Functional: B3LYP <=

    B3LYP Hyb-GGA Exchange-Correlation Functional

    P. J. Stephens, F. J. Devlin, C. F. Chabalowski, and M. J. Frisch.,  J. Phys. Chem. 98, 11623 (1994) (10.1021/j100096a001)

    Deriv               =              1
    GGA                 =           TRUE
    Meta                =          FALSE

    Exchange Hybrid     =           TRUE
    MP2 Hybrid          =          FALSE

   => Exchange Functionals <=

    0.0800   Slater exchange
    0.7200         Becke 88

   => Exact (HF) Exchange <=

    0.2000               HF

   => Correlation Functionals <=

    0.1900   Vosko, Wilk & Nusair (VWN5_RPA)
    0.8100   Lee, Yang & Parr

   => LibXC Density Thresholds  <==

    XC_HYB_GGA_XC_B3LYP:  1.00E-15

   => Molecular Quadrature <=

    Radial Scheme          =       TREUTLER
    Pruning Scheme         =           NONE
    Nuclear Scheme         =       TREUTLER

    Blocking Scheme        =         OCTREE
    BS radius alpha        =              1
    Pruning alpha          =              1
    Radial Points          =             75
    Spherical Points       =            302
    Total Points           =          43853
    Total Blocks           =            426
    Max Points             =            254
    Max Functions          =             32
    Weights Tolerance      =       1.00E-15

  -Total Gradient:
     Atom            X                  Y                   Z
    ------   -----------------  -----------------  -----------------
       1       -0.000000000000     0.000000000000    -0.000021862824
       2        0.000000000000     0.000000000000     0.000004440858

*** tstop() called on Joses-MacBook-Pro-2.local at Thu Jul 17 13:43:05 2025
Module time:
	user time   =       0.69 seconds =       0.01 minutes
	system time =       2.20 seconds =       0.04 minutes
	total time  =          0 seconds =       0.00 minutes
Total time:
	user time   =      55.20 seconds =       0.92 minutes
	system time =      86.20 seconds =       1.44 minutes
	total time  =         14 seconds =       0.23 minutes

    			-----------------------------------------

    			 OPTKING 3.0: for geometry optimizations

    			     By R.A. King, Bethel University

    			        with contributions from

    			    A.V. Copan, J. Cayton, A. Heide

    			-----------------------------------------

	                            ===> Fragment 1 <==

	 Z (Atomic Numbers)          Masses                          Geom
	       6.000000            12.000000          0.00000000  0.00000000  3.71658629
	      11.000000            22.989769          0.00000000  0.00000000 -1.93995142

	 - Coordinate -           - BOHR/RAD -       - ANG/DEG -
	 R(1,2)           =         5.656538           2.993311

	        --- Internal Coordinate Step in ANG or DEG, aJ/ANG or AJ/DEG ---
	-------------------------------------------------------------------------------
	           Coordinate      Previous         Force          Change          New
	           ----------      --------        ------          ------        ------
	               R(1,2)       2.99331        0.00011        0.00125       2.99456
	-------------------------------------------------------------------------------

	                                 ==> Convergence Check <==

	Measures of convergence in internal coordinates in au.

	Criteria marked as inactive (o), active & met (*), and active & unmet ( ).

	----------------------------------------------------------------------------------------------
	   Step    Total Energy     Delta E     Max Force     RMS Force      Max Disp      RMS Disp
	----------------------------------------------------------------------------------------------
	  Convergence Criteria     1.00e-06 *    3.00e-04 *             o    1.20e-03 *             o
	----------------------------------------------------------------------------------------------
	    15    -199.77676191   -2.68e-07 *    1.32e-05 *    1.32e-05 o    2.36e-03      2.36e-03 o  ~
	----------------------------------------------------------------------------------------------

Next Geometry in Ang
	Fragment 1 (Ang)

	    C   0.0000000000   0.0000000000   1.9673581355
	   Na   0.0000000000   0.0000000000  -1.0272034475

    Final optimized geometry and variables:
    Molecular point group: c2v
    Full point group: C_inf_v

    Geometry (in Angstrom), charge = 1, multiplicity = 5:

    C            0.000000000000     0.000000000000     1.966732768547
    NA           0.000000000000     0.000000000000    -1.026578080583

    Psi4 stopped on: Thursday, 17 July 2025 01:43PM
    Psi4 wall time for execution: 0:00:14.77

*** Psi4 exiting successfully. Buy a developer a beer!
