                               Psi4 1.9.1 release

  ==> Input File <==

--------------------------------------------------------------------------
molecule {
1 5
Be   0.00000        0.60000        0.00000
F   0.00000       -0.60000        0.00000
}

set {
basis              cc-pvdz
reference          uks
maxiter            500
geom_maxiter       500
DAMPING_PERCENTAGE 1
guess              SAP
}

optimize('b3lyp')
--------------------------------------------------------------------------

    Molecular point group: c2v
  Charge       = 1
  Multiplicity = 5
  Basis Set: CC-PVDZ
    Blend: CC-PVDZ
  Basis Set: (CC-PVDZ AUX)
    Blend: CC-PVDZ-JKFIT + DEF2-UNIVERSAL-JKFIT
  @DF-UKS Final Energy:  -113.30217736049852
    Total Energy =                       -113.3021773604985185
 Dipole X            :          0.0000000            0.0000000            0.0000000
 Dipole Y            :          0.0000000            0.0000000            0.0000000
 Dipole Z            :         -0.6138556           -0.4141822           -1.0280378
 Magnitude           :                                                    1.0280378
    Molecular point group: c2v
  Basis Set: CC-PVDZ
    Blend: CC-PVDZ
  Basis Set: (CC-PVDZ AUX)
    Blend: CC-PVDZ-JKFIT + DEF2-UNIVERSAL-JKFIT
  Basis Set: CC-PVDZ
    Blend: CC-PVDZ
  Basis Set: (CC-PVDZ AUX)
    Blend: CC-PVDZ-JKFIT + DEF2-UNIVERSAL-JKFIT
  @DF-UKS Final Energy:  -113.47459200571190
    Total Energy =                       -113.4745920057118838
  Basis Set: CC-PVDZ
    Blend: CC-PVDZ
  Basis Set: (CC-PVDZ AUX)
    Blend: CC-PVDZ-JKFIT + DEF2-UNIVERSAL-JKFIT
  Basis Set: CC-PVDZ
    Blend: CC-PVDZ
  @DF-UKS Final Energy:  -113.53862567382495
    Total Energy =                       -113.5386256738249529
  @DF-UKS Final Energy:  -113.59446897216577
    Total Energy =                       -113.5944689721657710
  @DF-UKS Final Energy:  -113.62961360059546
    Total Energy =                       -113.6296136005954622
  @DF-UKS Final Energy:  -113.64873144493421
    Total Energy =                       -113.6487314449342279
  @DF-UKS Final Energy:  -113.65796652536619
    Total Energy =                       -113.6579665253661915
  @DF-UKS Final Energy:  -113.66236133044582
    Total Energy =                       -113.6623613304458189
  @DF-UKS Final Energy:  -113.66441209120006
    Total Energy =                       -113.6644120912000346
  @DF-UKS Final Energy:  -113.66532458500303
    Total Energy =                       -113.6653245850030345
  @DF-UKS Final Energy:  -113.66569356736692
    Total Energy =                       -113.6656935673669153
  @DF-UKS Final Energy:  -113.66581844222790
    Total Energy =                       -113.6658184422279021
  @DF-UKS Final Energy:  -113.66585130068087
    Total Energy =                       -113.6658513006808704
  Basis Set: (CC-PVDZ AUX)
    Blend: CC-PVDZ-JKFIT + DEF2-UNIVERSAL-JKFIT
  Basis Set: CC-PVDZ
    Blend: CC-PVDZ
  Basis Set: (CC-PVDZ AUX)
    Blend: CC-PVDZ-JKFIT + DEF2-UNIVERSAL-JKFIT
  @DF-UKS Final Energy:  -113.66585506894599
    Total Energy =                       -113.6658550689460014
  Basis Set: CC-PVDZ
    Blend: CC-PVDZ
  Basis Set: (CC-PVDZ AUX)
    Blend: CC-PVDZ-JKFIT + DEF2-UNIVERSAL-JKFIT
  Charge       = 1
  Multiplicity = 5
  Basis Set: CC-PVDZ
    Blend: CC-PVDZ
  Basis Set: (CC-PVDZ AUX)
    Blend: CC-PVDZ-JKFIT + DEF2-UNIVERSAL-JKFIT

    Orbital Energies [Eh]
    ---------------------

    Alpha Occupied:

       1A1   -25.581292     2A1    -4.261600     3A1    -1.919308
       1B1    -1.212789     1B2    -1.212615     4A1    -1.115361
       5A1    -0.419041     2B2    -0.279862

    Alpha Virtual:

       6A1    -0.220370     2B1    -0.205272     7A1     0.001440
       3B2     0.030333     3B1     0.049961     8A1     0.066067
       4B2     0.292606     9A1     0.294005     1A2     0.301697
       4B1     0.312200    10A1     0.313829     5B1     0.509200
       5B2     0.509617    11A1     0.598550    12A1     0.908758
       2A2     2.735317    13A1     2.735518     6B1     2.806612
       6B2     2.806755    14A1     2.832402

    Beta Occupied:

       1A1   -25.512435     2A1    -4.243274     3A1    -1.725122
       4A1    -1.047327

    Beta Virtual:

       1B1    -0.853284     1B2    -0.853035     5A1    -0.267758
       6A1    -0.164144     2B1    -0.143084     2B2    -0.112956
       7A1     0.044093     3B1     0.074566     8A1     0.098495
       3B2     0.100040     9A1     0.367705     4B1     0.379261
       4B2     0.408141     1A2     0.414855    10A1     0.418063
       5B1     0.624932     5B2     0.625561    11A1     0.633291
      12A1     0.997430     6B1     2.919106     6B2     2.919264
      13A1     2.929198     2A2     2.948943    14A1     2.949126

    Final Occupation by Irrep:
             A1    A2    B1    B2
    DOCC [     4,    0,    0,    0 ]
    SOCC [     1,    0,    1,    2 ]
    NA   [     5,    0,    1,    2 ]
    NB   [     4,    0,    0,    0 ]

  @DF-UKS Final Energy:  -113.66585559573960

   => Energetics <=

    Nuclear Repulsion Energy =              5.3808509596787770
    One-Electron Energy =                -162.1926041139547010
    Two-Electron Energy =                  53.3955747615851450
    DFT Exchange-Correlation Energy =     -10.2496772030488259
    Empirical Dispersion Energy =           0.0000000000000000
    VV10 Nonlocal Energy =                  0.0000000000000000
    Total Energy =                       -113.6658555957396004

  UHF NO Occupations:
  HONO-2 :    2 B2 1.0000000
  HONO-1 :    5 A1 1.0000000
  HONO-0 :    1 B1 1.0000000
  LUNO+0 :    6 A1 0.0006347
  LUNO+1 :    7 A1 0.0002112
  LUNO+2 :    8 A1 0.0000008
  LUNO+3 :    9 A1 0.0000000

Computation Completed

Properties will be evaluated at   0.000000,   0.000000,   0.000000 [a0]

Properties computed using the SCF density matrix

 Multipole Moments:

 ------------------------------------------------------------------------------------
     Multipole            Electronic (a.u.)      Nuclear  (a.u.)        Total (a.u.)
 ------------------------------------------------------------------------------------

 L = 1.  Multiply by 2.5417464519 to convert [e a0] to [Debye]
 Dipole X            :          0.0000000            0.0000000            0.0000000
 Dipole Y            :          0.0000000            0.0000000            0.0000000
 Dipole Z            :         -0.3175206           -1.2219765           -1.5394970
 Magnitude           :                                                    1.5394970

 ------------------------------------------------------------------------------------

*** tstop() called on Joses-MacBook-Pro-2.local at Thu Jul 17 13:19:54 2025
Module time:
	user time   =       1.04 seconds =       0.02 minutes
	system time =       2.94 seconds =       0.05 minutes
	total time  =          0 seconds =       0.00 minutes
Total time:
	user time   =      64.65 seconds =       1.08 minutes
	system time =      84.06 seconds =       1.40 minutes
	total time  =         16 seconds =       0.27 minutes

*** tstart() called on Joses-MacBook-Pro-2.local
*** at Thu Jul 17 13:19:54 2025

         ------------------------------------------------------------
                                   SCF GRAD
                          Rob Parrish, Justin Turney,
                       Andy Simmonett, and Alex Sokolov
         ------------------------------------------------------------

  ==> Geometry <==

    Molecular point group: c2v
    Full point group: C_inf_v

    Geometry (in Angstrom), charge = 1, multiplicity = 5:

       Center              X                  Y                   Z               Mass
    ------------   -----------------  -----------------  -----------------  -----------------
         BE           0.000000000000     0.000000000000     2.401306364300     9.012183065000
         F            0.000000000000     0.000000000000    -1.139096394831    18.998403162730

  Nuclear repulsion =    5.380850959678777

  ==> Basis Set <==

  Basis Set: CC-PVDZ
    Blend: CC-PVDZ
    Number of shells: 12
    Number of basis functions: 28
    Number of Cartesian functions: 30
    Spherical Harmonics?: true
    Max angular momentum: 2

  ==> DFJKGrad: Density-Fitted SCF Gradients <==

    Gradient:                    1
    J tasked:                  Yes
    K tasked:                  Yes
    wK tasked:                  No
    OpenMP threads:              1
    Integrals threads:           1
    Memory [MiB]:              375
    Schwarz Cutoff:          1E-12
    Fitting Condition:       1E-10

   => Auxiliary Basis Set <=

  Basis Set: (CC-PVDZ AUX)
    Blend: CC-PVDZ-JKFIT + DEF2-UNIVERSAL-JKFIT
    Number of shells: 41
    Number of basis functions: 121
    Number of Cartesian functions: 141
    Spherical Harmonics?: true
    Max angular momentum: 3

  ==> DFT Potential <==

   => LibXC <=

    Version 6.2.2
    S. Lehtola, C. Steigemann, M. J.T. Oliveira, and M. A.L. Marques.,  SoftwareX 7, 1â€“5 (2018) (10.1016/j.softx.2017.11.002)

   => Composite Functional: B3LYP <=

    B3LYP Hyb-GGA Exchange-Correlation Functional

    P. J. Stephens, F. J. Devlin, C. F. Chabalowski, and M. J. Frisch.,  J. Phys. Chem. 98, 11623 (1994) (10.1021/j100096a001)

    Deriv               =              1
    GGA                 =           TRUE
    Meta                =          FALSE

    Exchange Hybrid     =           TRUE
    MP2 Hybrid          =          FALSE

   => Exchange Functionals <=

    0.0800   Slater exchange
    0.7200         Becke 88

   => Exact (HF) Exchange <=

    0.2000               HF

   => Correlation Functionals <=

    0.1900   Vosko, Wilk & Nusair (VWN5_RPA)
    0.8100   Lee, Yang & Parr

   => LibXC Density Thresholds  <==

    XC_HYB_GGA_XC_B3LYP:  1.00E-15

   => Molecular Quadrature <=

    Radial Scheme          =       TREUTLER
    Pruning Scheme         =           NONE
    Nuclear Scheme         =       TREUTLER

    Blocking Scheme        =         OCTREE
    BS radius alpha        =              1
    Pruning alpha          =              1
    Radial Points          =             75
    Spherical Points       =            302
    Total Points           =          43668
    Total Blocks           =            402
    Max Points             =            255
    Max Functions          =             28
    Weights Tolerance      =       1.00E-15

  -Total Gradient:
     Atom            X                  Y                   Z
    ------   -----------------  -----------------  -----------------
       1        0.000000000000    -0.000000000000    -0.000014072464
       2       -0.000000000000    -0.000000000000     0.000014994609

*** tstop() called on Joses-MacBook-Pro-2.local at Thu Jul 17 13:19:54 2025
Module time:
	user time   =       0.50 seconds =       0.01 minutes
	system time =       1.41 seconds =       0.02 minutes
	total time  =          0 seconds =       0.00 minutes
Total time:
	user time   =      65.15 seconds =       1.09 minutes
	system time =      85.47 seconds =       1.42 minutes
	total time  =         16 seconds =       0.27 minutes

    			-----------------------------------------

    			 OPTKING 3.0: for geometry optimizations

    			     By R.A. King, Bethel University

    			        with contributions from

    			    A.V. Copan, J. Cayton, A. Heide

    			-----------------------------------------

	                            ===> Fragment 1 <==

	 Z (Atomic Numbers)          Masses                          Geom
	       4.000000             9.012183          0.00000000  0.00000000  4.53781137
	       9.000000            18.998403          0.00000000  0.00000000 -2.15258022

	 - Coordinate -           - BOHR/RAD -       - ANG/DEG -
	 R(1,2)           =         6.690392           3.540403

	        --- Internal Coordinate Step in ANG or DEG, aJ/ANG or AJ/DEG ---
	-------------------------------------------------------------------------------
	           Coordinate      Previous         Force          Change          New
	           ----------      --------        ------          ------        ------
	               R(1,2)       3.54040        0.00012        0.00410       3.54451
	-------------------------------------------------------------------------------

	                                 ==> Convergence Check <==

	Measures of convergence in internal coordinates in au.

	Criteria marked as inactive (o), active & met (*), and active & unmet ( ).

	----------------------------------------------------------------------------------------------
	   Step    Total Energy     Delta E     Max Force     RMS Force      Max Disp      RMS Disp
	----------------------------------------------------------------------------------------------
	  Convergence Criteria     1.00e-06 *    3.00e-04 *             o    1.20e-03 *             o
	----------------------------------------------------------------------------------------------
	    15    -113.66585560   -5.27e-07 *    1.45e-05 *    1.45e-05 o    7.76e-03      7.76e-03 o  ~
	----------------------------------------------------------------------------------------------

Next Geometry in Ang
	Fragment 1 (Ang)

	   Be   0.0000000000   0.0000000000   2.4033583847
	    F   0.0000000000   0.0000000000  -1.1411484152

    Final optimized geometry and variables:
    Molecular point group: c2v
    Full point group: C_inf_v

    Geometry (in Angstrom), charge = 1, multiplicity = 5:

    BE           0.000000000000     0.000000000000     2.401306364300
    F            0.000000000000     0.000000000000    -1.139096394831

    Psi4 stopped on: Thursday, 17 July 2025 01:19PM
    Psi4 wall time for execution: 0:00:17.32

*** Psi4 exiting successfully. Buy a developer a beer!
