                               Psi4 1.9.1 release

  ==> Input File <==

--------------------------------------------------------------------------
molecule {
1 5
B   0.00000        0.60000        0.00000
Mg   0.00000       -0.60000        0.00000
}

set {
basis              cc-pvdz
reference          uks
maxiter            500
geom_maxiter       500
DAMPING_PERCENTAGE 1
guess              SAP
}

optimize('b3lyp')
--------------------------------------------------------------------------

    Molecular point group: c2v
  Charge       = 1
  Multiplicity = 5
  Basis Set: CC-PVDZ
    Blend: CC-PVDZ
  Basis Set: (CC-PVDZ AUX)
    Blend: CC-PVDZ-JKFIT + DEF2-UNIVERSAL-JKFIT
  @DF-UKS Final Energy:  -223.86354862577258
    Total Energy =                       -223.8635486257726086
 Dipole X            :          0.0000000            0.0000000            0.0000000
 Dipole Y            :          0.0000000            0.0000000            0.0000000
 Dipole Z            :          0.0044535           -0.7896955           -0.7852420
 Magnitude           :                                                    0.7852420
    Molecular point group: c2v
  Basis Set: CC-PVDZ
    Blend: CC-PVDZ
  Basis Set: (CC-PVDZ AUX)
    Blend: CC-PVDZ-JKFIT + DEF2-UNIVERSAL-JKFIT
  Basis Set: CC-PVDZ
    Blend: CC-PVDZ
  Basis Set: (CC-PVDZ AUX)
    Blend: CC-PVDZ-JKFIT + DEF2-UNIVERSAL-JKFIT
  @DF-UKS Final Energy:  -224.00475706865365
    Total Energy =                       -224.0047570686536744
  Basis Set: CC-PVDZ
    Blend: CC-PVDZ
  Basis Set: (CC-PVDZ AUX)
    Blend: CC-PVDZ-JKFIT + DEF2-UNIVERSAL-JKFIT
  Basis Set: CC-PVDZ
    Blend: CC-PVDZ
  @DF-UKS Final Energy:  -224.14379933223290
    Total Energy =                       -224.1437993322329305
  @DF-UKS Final Energy:  -224.25109381356799
    Total Energy =                       -224.2510938135679908
  @DF-UKS Final Energy:  -224.30236039330350
    Total Energy =                       -224.3023603933035020
  @DF-UKS Final Energy:  -224.32469314847495
    Total Energy =                       -224.3246931484749496
  @DF-UKS Final Energy:  -224.33404980574505
    Total Energy =                       -224.3340498057450532
  @DF-UKS Final Energy:  -224.33740161609779
    Total Energy =                       -224.3374016160977931
  @DF-UKS Final Energy:  -224.33819131409419
    Total Energy =                       -224.3381913140941890
  @DF-UKS Final Energy:  -224.33847199358581
    Total Energy =                       -224.3384719935857845
  @DF-UKS Final Energy:  -224.33852436662011
    Total Energy =                       -224.3385243666201063
  @DF-UKS Final Energy:  -224.33853546017068
    Total Energy =                       -224.3385354601706467
  Basis Set: (CC-PVDZ AUX)
    Blend: CC-PVDZ-JKFIT + DEF2-UNIVERSAL-JKFIT
  Basis Set: CC-PVDZ
    Blend: CC-PVDZ
  Basis Set: (CC-PVDZ AUX)
    Blend: CC-PVDZ-JKFIT + DEF2-UNIVERSAL-JKFIT
  @DF-UKS Final Energy:  -224.33853838938131
    Total Energy =                       -224.3385383893813128
  Basis Set: CC-PVDZ
    Blend: CC-PVDZ
  Basis Set: (CC-PVDZ AUX)
    Blend: CC-PVDZ-JKFIT + DEF2-UNIVERSAL-JKFIT
  Charge       = 1
  Multiplicity = 5
  Basis Set: CC-PVDZ
    Blend: CC-PVDZ
  Basis Set: (CC-PVDZ AUX)
    Blend: CC-PVDZ-JKFIT + DEF2-UNIVERSAL-JKFIT

    Orbital Energies [Eh]
    ---------------------

    Alpha Occupied:

       1A1   -47.177722     2A1    -7.067356     3A1    -3.448558
       4A1    -2.192346     1B2    -2.191583     1B1    -2.191583
       5A1    -0.671582     6A1    -0.460016     2B2    -0.408812
       2B1    -0.408812

    Alpha Virtual:

       7A1    -0.337858     3B2    -0.238677     3B1    -0.238677
       8A1    -0.160917     9A1    -0.079495     4B2    -0.036903
       4B1    -0.036903    10A1    -0.013999    11A1     0.050589
       1A2     0.050590     5B2     0.054695     5B1     0.054695
      12A1     0.087835     6B2     0.139955     6B1     0.139955
      13A1     0.250490    14A1     0.332642     2A2     0.474716
      15A1     0.474719     7B2     0.575214     7B1     0.575214
      16A1     0.828446

    Beta Occupied:

       1A1   -47.174431     2A1    -7.027269     3A1    -3.442800
       4A1    -2.188168     1B2    -2.187258     1B1    -2.187258

    Beta Virtual:

       5A1    -0.438749     6A1    -0.335779     2B1    -0.233853
       2B2    -0.233853     7A1    -0.227652     3B1    -0.146765
       3B2    -0.146765     8A1    -0.110951     9A1    -0.058200
       4B1    -0.017024     4B2    -0.017024    10A1     0.023874
      11A1     0.088153     1A2     0.088157     5B2     0.118621
       5B1     0.118621    12A1     0.141884     6B1     0.217474
       6B2     0.217474    13A1     0.308654    14A1     0.429635
       2A2     0.647837    15A1     0.647841     7B1     0.718524
       7B2     0.718524    16A1     0.943673

    Final Occupation by Irrep:
             A1    A2    B1    B2
    DOCC [     4,    0,    1,    1 ]
    SOCC [     2,    0,    1,    1 ]
    NA   [     6,    0,    2,    2 ]
    NB   [     4,    0,    1,    1 ]

  @DF-UKS Final Energy:  -224.33853868935495

   => Energetics <=

    Nuclear Repulsion Energy =             13.3167748551434908
    One-Electron Energy =                -333.2230268214353828
    Two-Electron Energy =                 111.8742510483429555
    DFT Exchange-Correlation Energy =     -16.3065377714059920
    Empirical Dispersion Energy =           0.0000000000000000
    VV10 Nonlocal Energy =                  0.0000000000000000
    Total Energy =                       -224.3385386893549480

  UHF NO Occupations:
  HONO-2 :    2 B2 1.0000000
  HONO-1 :    2 B1 1.0000000
  HONO-0 :    6 A1 1.0000000
  LUNO+0 :    7 A1 0.0000013
  LUNO+1 :    8 A1 0.0000005
  LUNO+2 :    3 B1 0.0000004
  LUNO+3 :    3 B2 0.0000004

Computation Completed

Properties will be evaluated at   0.000000,   0.000000,   0.000000 [a0]

Properties computed using the SCF density matrix

 Multipole Moments:

 ------------------------------------------------------------------------------------
     Multipole            Electronic (a.u.)      Nuclear  (a.u.)        Total (a.u.)
 ------------------------------------------------------------------------------------

 L = 1.  Multiply by 2.5417464519 to convert [e a0] to [Debye]
 Dipole X            :          0.0000000            0.0000000            0.0000000
 Dipole Y            :          0.0000000            0.0000000            0.0000000
 Dipole Z            :          0.0325191           -1.5690317           -1.5365126
 Magnitude           :                                                    1.5365126

 ------------------------------------------------------------------------------------

*** tstop() called on Joses-MacBook-Pro-2.local at Thu Jul 17 13:34:45 2025
Module time:
	user time   =       2.01 seconds =       0.03 minutes
	system time =       3.70 seconds =       0.06 minutes
	total time  =          1 seconds =       0.02 minutes
Total time:
	user time   =      63.27 seconds =       1.05 minutes
	system time =      83.21 seconds =       1.39 minutes
	total time  =         16 seconds =       0.27 minutes

*** tstart() called on Joses-MacBook-Pro-2.local
*** at Thu Jul 17 13:34:45 2025

         ------------------------------------------------------------
                                   SCF GRAD
                          Rob Parrish, Justin Turney,
                       Andy Simmonett, and Alex Sokolov
         ------------------------------------------------------------

  ==> Geometry <==

    Molecular point group: c2v
    Full point group: C_inf_v

    Geometry (in Angstrom), charge = 1, multiplicity = 5:

       Center              X                  Y                   Z               Mass
    ------------   -----------------  -----------------  -----------------  -----------------
         B            0.000000000000     0.000000000000     1.634165016518    11.009305360000
         MG           0.000000000000     0.000000000000    -0.750093408332    23.985041697000

  Nuclear repulsion =   13.316774855143491

  ==> Basis Set <==

  Basis Set: CC-PVDZ
    Blend: CC-PVDZ
    Number of shells: 14
    Number of basis functions: 32
    Number of Cartesian functions: 34
    Spherical Harmonics?: true
    Max angular momentum: 2

  ==> DFJKGrad: Density-Fitted SCF Gradients <==

    Gradient:                    1
    J tasked:                  Yes
    K tasked:                  Yes
    wK tasked:                  No
    OpenMP threads:              1
    Integrals threads:           1
    Memory [MiB]:              375
    Schwarz Cutoff:          1E-12
    Fitting Condition:       1E-10

   => Auxiliary Basis Set <=

  Basis Set: (CC-PVDZ AUX)
    Blend: CC-PVDZ-JKFIT + DEF2-UNIVERSAL-JKFIT
    Number of shells: 58
    Number of basis functions: 182
    Number of Cartesian functions: 218
    Spherical Harmonics?: true
    Max angular momentum: 4

  ==> DFT Potential <==

   => LibXC <=

    Version 6.2.2
    S. Lehtola, C. Steigemann, M. J.T. Oliveira, and M. A.L. Marques.,  SoftwareX 7, 1â€“5 (2018) (10.1016/j.softx.2017.11.002)

   => Composite Functional: B3LYP <=

    B3LYP Hyb-GGA Exchange-Correlation Functional

    P. J. Stephens, F. J. Devlin, C. F. Chabalowski, and M. J. Frisch.,  J. Phys. Chem. 98, 11623 (1994) (10.1021/j100096a001)

    Deriv               =              1
    GGA                 =           TRUE
    Meta                =          FALSE

    Exchange Hybrid     =           TRUE
    MP2 Hybrid          =          FALSE

   => Exchange Functionals <=

    0.0800   Slater exchange
    0.7200         Becke 88

   => Exact (HF) Exchange <=

    0.2000               HF

   => Correlation Functionals <=

    0.1900   Vosko, Wilk & Nusair (VWN5_RPA)
    0.8100   Lee, Yang & Parr

   => LibXC Density Thresholds  <==

    XC_HYB_GGA_XC_B3LYP:  1.00E-15

   => Molecular Quadrature <=

    Radial Scheme          =       TREUTLER
    Pruning Scheme         =           NONE
    Nuclear Scheme         =       TREUTLER

    Blocking Scheme        =         OCTREE
    BS radius alpha        =              1
    Pruning alpha          =              1
    Radial Points          =             75
    Spherical Points       =            302
    Total Points           =          43282
    Total Blocks           =            419
    Max Points             =            256
    Max Functions          =             32
    Weights Tolerance      =       1.00E-15

  -Total Gradient:
     Atom            X                  Y                   Z
    ------   -----------------  -----------------  -----------------
       1        0.000000000000    -0.000000000000    -0.000033163284
       2        0.000000000000    -0.000000000000     0.000016440825

*** tstop() called on Joses-MacBook-Pro-2.local at Thu Jul 17 13:34:45 2025
Module time:
	user time   =       0.56 seconds =       0.01 minutes
	system time =       2.18 seconds =       0.04 minutes
	total time  =          0 seconds =       0.00 minutes
Total time:
	user time   =      63.83 seconds =       1.06 minutes
	system time =      85.40 seconds =       1.42 minutes
	total time  =         16 seconds =       0.27 minutes

    			-----------------------------------------

    			 OPTKING 3.0: for geometry optimizations

    			     By R.A. King, Bethel University

    			        with contributions from

    			    A.V. Copan, J. Cayton, A. Heide

    			-----------------------------------------

	                            ===> Fragment 1 <==

	 Z (Atomic Numbers)          Masses                          Geom
	       5.000000            11.009305          0.00000000  0.00000000  3.08812433
	      12.000000            23.985042          0.00000000  0.00000000 -1.41747111

	 - Coordinate -           - BOHR/RAD -       - ANG/DEG -
	 R(1,2)           =         4.505595           2.384258

	        --- Internal Coordinate Step in ANG or DEG, aJ/ANG or AJ/DEG ---
	-------------------------------------------------------------------------------
	           Coordinate      Previous         Force          Change          New
	           ----------      --------        ------          ------        ------
	               R(1,2)       2.38426        0.00020        0.00050       2.38475
	-------------------------------------------------------------------------------

	                                 ==> Convergence Check <==

	Measures of convergence in internal coordinates in au.

	Criteria marked as inactive (o), active & met (*), and active & unmet ( ).

	----------------------------------------------------------------------------------------------
	   Step    Total Energy     Delta E     Max Force     RMS Force      Max Disp      RMS Disp
	----------------------------------------------------------------------------------------------
	  Convergence Criteria     1.00e-06 *    3.00e-04 *             o    1.20e-03 *             o
	----------------------------------------------------------------------------------------------
	    14    -224.33853869   -3.00e-07 *    2.48e-05 *    2.48e-05 o    9.37e-04 *    9.37e-04 o  ~
	----------------------------------------------------------------------------------------------

Next Geometry in Ang
	Fragment 1 (Ang)

	    B   0.0000000000   0.0000000000   1.6344130167
	   Mg   0.0000000000   0.0000000000  -0.7503414085

    Final optimized geometry and variables:
    Molecular point group: c2v
    Full point group: C_inf_v

    Geometry (in Angstrom), charge = 1, multiplicity = 5:

    B            0.000000000000     0.000000000000     1.634165016518
    MG           0.000000000000     0.000000000000    -0.750093408332

    Psi4 stopped on: Thursday, 17 July 2025 01:34PM
    Psi4 wall time for execution: 0:00:16.51

*** Psi4 exiting successfully. Buy a developer a beer!
