                               Psi4 1.9.1 release

  ==> Input File <==

--------------------------------------------------------------------------
molecule {
1 5
B   0.00000        0.60000        0.00000
Ar   0.00000       -0.60000        0.00000
}

set {
basis              cc-pvdz
reference          uks
maxiter            500
geom_maxiter       500
DAMPING_PERCENTAGE 1
guess              SAP
}

optimize('b3lyp')
--------------------------------------------------------------------------

    Molecular point group: c2v
  Charge       = 1
  Multiplicity = 5
  Basis Set: CC-PVDZ
    Blend: CC-PVDZ
  Basis Set: (CC-PVDZ AUX)
    Blend: CC-PVDZ-JKFIT
  @DF-UKS Final Energy:  -550.93504725527055
    Total Energy =                       -550.9350472552705469
 Dipole X            :          0.0000000            0.0000000            0.0000000
 Dipole Y            :          0.0000000            0.0000000            0.0000000
 Dipole Z            :         -1.1798353            0.0731583           -1.1066770
 Magnitude           :                                                    1.1066770
    Molecular point group: c2v
  Basis Set: CC-PVDZ
    Blend: CC-PVDZ
  Basis Set: (CC-PVDZ AUX)
    Blend: CC-PVDZ-JKFIT
  Basis Set: CC-PVDZ
    Blend: CC-PVDZ
  Basis Set: (CC-PVDZ AUX)
    Blend: CC-PVDZ-JKFIT
  @DF-UKS Final Energy:  -551.17766943636343
    Total Energy =                       -551.1776694363634306
  Basis Set: CC-PVDZ
    Blend: CC-PVDZ
  Basis Set: (CC-PVDZ AUX)
    Blend: CC-PVDZ-JKFIT
  Basis Set: CC-PVDZ
    Blend: CC-PVDZ
  @DF-UKS Final Energy:  -551.30029581710141
    Total Energy =                       -551.3002958171013006
  @DF-UKS Final Energy:  -551.37034615777532
    Total Energy =                       -551.3703461577752023
  @DF-UKS Final Energy:  -551.41300569228679
    Total Energy =                       -551.4130056922866743
  @DF-UKS Final Energy:  -551.44099612998184
    Total Energy =                       -551.4409961299818406
  @DF-UKS Final Energy:  -551.45944566279286
    Total Energy =                       -551.4594456627928594
  @DF-UKS Final Energy:  -551.47092545898352
    Total Energy =                       -551.4709254589834018
  @DF-UKS Final Energy:  -551.47761488320998
    Total Energy =                       -551.4776148832099807
  @DF-UKS Final Energy:  -551.48135412688373
    Total Energy =                       -551.4813541268838435
  @DF-UKS Final Energy:  -551.48342535451036
    Total Energy =                       -551.4834253545103593
  @DF-UKS Final Energy:  -551.48466987581639
    Total Energy =                       -551.4846698758165076
  @DF-UKS Final Energy:  -551.48556280615480
    Total Energy =                       -551.4855628061548032
  @DF-UKS Final Energy:  -551.48557033203724
    Total Energy =                       -551.4855703320372413
  @DF-UKS Final Energy:  -551.48557782071271
    Total Energy =                       -551.4855778207127059
  @DF-UKS Final Energy:  -551.48558527101193
    Total Energy =                       -551.4855852710119279
  @DF-UKS Final Energy:  -551.48645413394559
    Total Energy =                       -551.4864541339456991
  @DF-UKS Final Energy:  -551.48645852835045
    Total Energy =                       -551.4864585283504539
  @DF-UKS Final Energy:  -551.48646290855936
    Total Energy =                       -551.4864629085593606
  @DF-UKS Final Energy:  -551.48646727855237
    Total Energy =                       -551.4864672785523680
  @DF-UKS Final Energy:  -551.48817611144068
    Total Energy =                       -551.4881761114406800
  @DF-UKS Final Energy:  -551.48817719384465
    Total Energy =                       -551.4881771938447628
  @DF-UKS Final Energy:  -551.48847521380401
    Total Energy =                       -551.4884752138038948
  @DF-UKS Final Energy:  -551.48847589655031
    Total Energy =                       -551.4884758965503124
  @DF-UKS Final Energy:  -551.48847657683757
    Total Energy =                       -551.4884765768375701
  @DF-UKS Final Energy:  -551.48847725630321
    Total Energy =                       -551.4884772563032129
  @DF-UKS Final Energy:  -551.48847793497055
    Total Energy =                       -551.4884779349705468
  @DF-UKS Final Energy:  -551.48847861285515
    Total Energy =                       -551.4884786128550331
  @DF-UKS Final Energy:  -551.48847928993928
    Total Energy =                       -551.4884792899391641
  @DF-UKS Final Energy:  -551.48847996619133
    Total Energy =                       -551.4884799661912211
  @DF-UKS Final Energy:  -551.48848064165350
    Total Energy =                       -551.4884806416534957
  @DF-UKS Final Energy:  -551.48848131631496
    Total Energy =                       -551.4884813163149602
  @DF-UKS Final Energy:  -551.48848199016845
    Total Energy =                       -551.4884819901684523
  @DF-UKS Final Energy:  -551.48848266321477
    Total Energy =                       -551.4884826632147679
  @DF-UKS Final Energy:  -551.48848333548176
    Total Energy =                       -551.4884833354816465
  @DF-UKS Final Energy:  -551.48848400694385
    Total Energy =                       -551.4884840069438496
  @DF-UKS Final Energy:  -551.48848467760763
    Total Energy =                       -551.4884846776076301
  @DF-UKS Final Energy:  -551.48848534749038
    Total Energy =                       -551.4884853474903821
  Basis Set: (CC-PVDZ AUX)
    Blend: CC-PVDZ-JKFIT
  Basis Set: CC-PVDZ
    Blend: CC-PVDZ
  Basis Set: (CC-PVDZ AUX)
    Blend: CC-PVDZ-JKFIT
  @DF-UKS Final Energy:  -551.48871190033049
    Total Energy =                       -551.4887119003304861
  Basis Set: CC-PVDZ
    Blend: CC-PVDZ
  Basis Set: (CC-PVDZ AUX)
    Blend: CC-PVDZ-JKFIT
  Charge       = 1
  Multiplicity = 5
  Basis Set: CC-PVDZ
    Blend: CC-PVDZ
  Basis Set: (CC-PVDZ AUX)
    Blend: CC-PVDZ-JKFIT

    Orbital Energies [Eh]
    ---------------------

    Alpha Occupied:

       1A1  -115.632974     2A1   -11.659165     1B2    -9.232058
       3A1    -9.201777     1B1    -9.201771     4A1    -6.957095
       5A1    -1.454609     2B2    -0.932620     6A1    -0.866445
       2B1    -0.866374     7A1    -0.520147     3B2    -0.290678
       3B1    -0.290665

    Alpha Virtual:

       8A1    -0.200577     4B2     0.182905     4B1     0.182945
       5B2     0.186553     9A1     0.199424     5B1     0.219424
      10A1     0.219582    11A1     0.248372    12A1     0.316567
      13A1     0.327686     6B2     0.338004     1A2     0.338042
       6B1     0.389127    14A1     0.389128     2A2     0.572729
      15A1     0.572732     7B2     0.577507     7B1     0.577518
      16A1     0.590669

    Beta Occupied:

       1A1  -115.624075     2A1   -11.650672     1B2    -9.203783
       3A1    -9.196671     1B1    -9.196665     4A1    -6.917762
       5A1    -1.391765     6A1    -0.846734     2B1    -0.846661

    Beta Virtual:

       2B2    -0.740495     7A1    -0.272568     8A1    -0.105552
       3B2    -0.061030     3B1    -0.061005     9A1     0.225799
       4B1     0.226323     4B2     0.229706    10A1     0.244817
       5B2     0.282296     5B1     0.282326    11A1     0.342749
      12A1     0.343896     6B1     0.399297    13A1     0.399298
       6B2     0.405074     1A2     0.405114    14A1     0.415602
      15A1     0.704353     7B2     0.720115     7B1     0.720130
       2A2     0.754255    16A1     0.754256

    Final Occupation by Irrep:
             A1    A2    B1    B2
    DOCC [     6,    0,    2,    1 ]
    SOCC [     1,    0,    1,    2 ]
    NA   [     7,    0,    3,    3 ]
    NB   [     6,    0,    2,    1 ]

  @DF-UKS Final Energy:  -551.48871233359523

   => Energetics <=

    Nuclear Repulsion Energy =              7.4818933737479467
    One-Electron Energy =                -766.2169709069645478
    Two-Electron Energy =                 234.9990895533773028
    DFT Exchange-Correlation Energy =     -27.7527243537559798
    Empirical Dispersion Energy =           0.0000000000000000
    VV10 Nonlocal Energy =                  0.0000000000000000
    Total Energy =                       -551.4887123335952310

  UHF NO Occupations:
  HONO-2 :    3 B1 1.0000000
  HONO-1 :    3 B2 1.0000000
  HONO-0 :    7 A1 1.0000000
  LUNO+0 :    8 A1 0.0008192
  LUNO+1 :    9 A1 0.0000230
  LUNO+2 :    4 B1 0.0000230
  LUNO+3 :   10 A1 0.0000007

Computation Completed

Properties will be evaluated at   0.000000,   0.000000,   0.000000 [a0]

Properties computed using the SCF density matrix

 Multipole Moments:

 ------------------------------------------------------------------------------------
     Multipole            Electronic (a.u.)      Nuclear  (a.u.)        Total (a.u.)
 ------------------------------------------------------------------------------------

 L = 1.  Multiply by 2.5417464519 to convert [e a0] to [Debye]
 Dipole X            :          0.0000000            0.0000000            0.0000000
 Dipole Y            :          0.0000000            0.0000000            0.0000000
 Dipole Z            :         -2.9134635            0.3880740           -2.5253896
 Magnitude           :                                                    2.5253896

 ------------------------------------------------------------------------------------

*** tstop() called on Joses-MacBook-Pro-2.local at Thu Jul 17 13:40:22 2025
Module time:
	user time   =       0.74 seconds =       0.01 minutes
	system time =       2.09 seconds =       0.03 minutes
	total time  =          0 seconds =       0.00 minutes
Total time:
	user time   =     171.02 seconds =       2.85 minutes
	system time =     290.63 seconds =       4.84 minutes
	total time  =         44 seconds =       0.73 minutes

*** tstart() called on Joses-MacBook-Pro-2.local
*** at Thu Jul 17 13:40:22 2025

         ------------------------------------------------------------
                                   SCF GRAD
                          Rob Parrish, Justin Turney,
                       Andy Simmonett, and Alex Sokolov
         ------------------------------------------------------------

  ==> Geometry <==

    Molecular point group: c2v
    Full point group: C_inf_v

    Geometry (in Angstrom), charge = 1, multiplicity = 5:

       Center              X                  Y                   Z               Mass
    ------------   -----------------  -----------------  -----------------  -----------------
         B            0.000000000000     0.000000000000     4.990619812914    11.009305360000
         AR           0.000000000000     0.000000000000    -1.374874398405    39.962383123700

  Nuclear repulsion =    7.481893373747947

  ==> Basis Set <==

  Basis Set: CC-PVDZ
    Blend: CC-PVDZ
    Number of shells: 14
    Number of basis functions: 32
    Number of Cartesian functions: 34
    Spherical Harmonics?: true
    Max angular momentum: 2

  ==> DFJKGrad: Density-Fitted SCF Gradients <==

    Gradient:                    1
    J tasked:                  Yes
    K tasked:                  Yes
    wK tasked:                  No
    OpenMP threads:              1
    Integrals threads:           1
    Memory [MiB]:              375
    Schwarz Cutoff:          1E-12
    Fitting Condition:       1E-10

   => Auxiliary Basis Set <=

  Basis Set: (CC-PVDZ AUX)
    Blend: CC-PVDZ-JKFIT
    Number of shells: 60
    Number of basis functions: 182
    Number of Cartesian functions: 211
    Spherical Harmonics?: true
    Max angular momentum: 3

  ==> DFT Potential <==

   => LibXC <=

    Version 6.2.2
    S. Lehtola, C. Steigemann, M. J.T. Oliveira, and M. A.L. Marques.,  SoftwareX 7, 1â€“5 (2018) (10.1016/j.softx.2017.11.002)

   => Composite Functional: B3LYP <=

    B3LYP Hyb-GGA Exchange-Correlation Functional

    P. J. Stephens, F. J. Devlin, C. F. Chabalowski, and M. J. Frisch.,  J. Phys. Chem. 98, 11623 (1994) (10.1021/j100096a001)

    Deriv               =              1
    GGA                 =           TRUE
    Meta                =          FALSE

    Exchange Hybrid     =           TRUE
    MP2 Hybrid          =          FALSE

   => Exchange Functionals <=

    0.0800   Slater exchange
    0.7200         Becke 88

   => Exact (HF) Exchange <=

    0.2000               HF

   => Correlation Functionals <=

    0.1900   Vosko, Wilk & Nusair (VWN5_RPA)
    0.8100   Lee, Yang & Parr

   => LibXC Density Thresholds  <==

    XC_HYB_GGA_XC_B3LYP:  1.00E-15

   => Molecular Quadrature <=

    Radial Scheme          =       TREUTLER
    Pruning Scheme         =           NONE
    Nuclear Scheme         =       TREUTLER

    Blocking Scheme        =         OCTREE
    BS radius alpha        =              1
    Pruning alpha          =              1
    Radial Points          =             75
    Spherical Points       =            302
    Total Points           =          42204
    Total Blocks           =            441
    Max Points             =            255
    Max Functions          =             32
    Weights Tolerance      =       1.00E-15

  -Total Gradient:
     Atom            X                  Y                   Z
    ------   -----------------  -----------------  -----------------
       1       -0.000000000000    -0.000000000000    -0.000233186360
       2        0.000000000000     0.000000000000     0.000232983536

*** tstop() called on Joses-MacBook-Pro-2.local at Thu Jul 17 13:40:22 2025
Module time:
	user time   =       0.77 seconds =       0.01 minutes
	system time =       1.00 seconds =       0.02 minutes
	total time  =          0 seconds =       0.00 minutes
Total time:
	user time   =     171.80 seconds =       2.86 minutes
	system time =     291.63 seconds =       4.86 minutes
	total time  =         44 seconds =       0.73 minutes

    			-----------------------------------------

    			 OPTKING 3.0: for geometry optimizations

    			     By R.A. King, Bethel University

    			        with contributions from

    			    A.V. Copan, J. Cayton, A. Heide

    			-----------------------------------------

	                            ===> Fragment 1 <==

	 Z (Atomic Numbers)          Masses                          Geom
	       5.000000            11.009305          0.00000000  0.00000000  9.43090464
	      18.000000            39.962383          0.00000000  0.00000000 -2.59813607

	 - Coordinate -           - BOHR/RAD -       - ANG/DEG -
	 R(1,2)           =        12.029041           6.365494

	        --- Internal Coordinate Step in ANG or DEG, aJ/ANG or AJ/DEG ---
	-------------------------------------------------------------------------------
	           Coordinate      Previous         Force          Change          New
	           ----------      --------        ------          ------        ------
	               R(1,2)       6.36549        0.00192        0.00098       6.36648
	-------------------------------------------------------------------------------

	                                 ==> Convergence Check <==

	Measures of convergence in internal coordinates in au.

	Criteria marked as inactive (o), active & met (*), and active & unmet ( ).

	----------------------------------------------------------------------------------------------
	   Step    Total Energy     Delta E     Max Force     RMS Force      Max Disp      RMS Disp
	----------------------------------------------------------------------------------------------
	  Convergence Criteria     1.00e-06 *    3.00e-04 *             o    1.20e-03 *             o
	----------------------------------------------------------------------------------------------
	    66    -551.48871233   -4.33e-07 *    2.33e-04 *    2.33e-04 o    1.85e-03      1.85e-03 o  ~
	----------------------------------------------------------------------------------------------

Next Geometry in Ang
	Fragment 1 (Ang)

	    B   0.0000000000   0.0000000000   4.9911103955
	   Ar   0.0000000000   0.0000000000  -1.3753649810

    Final optimized geometry and variables:
    Molecular point group: c2v
    Full point group: C_inf_v

    Geometry (in Angstrom), charge = 1, multiplicity = 5:

    B            0.000000000000     0.000000000000     4.990619812914
    AR           0.000000000000     0.000000000000    -1.374874398405

    Psi4 stopped on: Thursday, 17 July 2025 01:40PM
    Psi4 wall time for execution: 0:00:44.76

*** Psi4 exiting successfully. Buy a developer a beer!
