                               Psi4 1.9.1 release

  ==> Input File <==

--------------------------------------------------------------------------
molecule {
1 5
C   0.00000        0.60000        0.00000
Al   0.00000       -0.60000        0.00000
}

set {
basis              cc-pvdz
reference          uks
maxiter            500
geom_maxiter       500
DAMPING_PERCENTAGE 1
guess              SAP
}

optimize('b3lyp')
--------------------------------------------------------------------------

    Molecular point group: c2v
  Charge       = 1
  Multiplicity = 5
  Basis Set: CC-PVDZ
    Blend: CC-PVDZ
  Basis Set: (CC-PVDZ AUX)
    Blend: CC-PVDZ-JKFIT
  @DF-UKS Final Energy:  -279.48996566580087
    Total Energy =                       -279.4899656658008666
 Dipole X            :          0.0000000            0.0000000            0.0000000
 Dipole Y            :          0.0000000            0.0000000            0.0000000
 Dipole Z            :         -0.7955654            0.3425940           -0.4529715
 Magnitude           :                                                    0.4529715
    Molecular point group: c2v
  Basis Set: CC-PVDZ
    Blend: CC-PVDZ
  Basis Set: (CC-PVDZ AUX)
    Blend: CC-PVDZ-JKFIT
  Basis Set: CC-PVDZ
    Blend: CC-PVDZ
  Basis Set: (CC-PVDZ AUX)
    Blend: CC-PVDZ-JKFIT
  @DF-UKS Final Energy:  -279.76720685910664
    Total Energy =                       -279.7672068591066363
  Basis Set: CC-PVDZ
    Blend: CC-PVDZ
  Basis Set: (CC-PVDZ AUX)
    Blend: CC-PVDZ-JKFIT
  Basis Set: CC-PVDZ
    Blend: CC-PVDZ
  @DF-UKS Final Energy:  -279.90841472450126
    Total Energy =                       -279.9084147245012559
  @DF-UKS Final Energy:  -279.96612714676621
    Total Energy =                       -279.9661271467662118
  @DF-UKS Final Energy:  -279.98792117874024
    Total Energy =                       -279.9879211787402369
  @DF-UKS Final Energy:  -279.99288576546962
    Total Energy =                       -279.9928857654696230
  @DF-UKS Final Energy:  -279.99445743654513
    Total Energy =                       -279.9944574365451331
  @DF-UKS Final Energy:  -279.99468653818360
    Total Energy =                       -279.9946865381836005
  @DF-UKS Final Energy:  -279.99472251894178
    Total Energy =                       -279.9947225189417850
  Basis Set: (CC-PVDZ AUX)
    Blend: CC-PVDZ-JKFIT
  Basis Set: CC-PVDZ
    Blend: CC-PVDZ
  Basis Set: (CC-PVDZ AUX)
    Blend: CC-PVDZ-JKFIT
  @DF-UKS Final Energy:  -279.99472912307681
    Total Energy =                       -279.9947291230768656
  Basis Set: CC-PVDZ
    Blend: CC-PVDZ
  Basis Set: (CC-PVDZ AUX)
    Blend: CC-PVDZ-JKFIT
  Charge       = 1
  Multiplicity = 5
  Basis Set: CC-PVDZ
    Blend: CC-PVDZ
  Basis Set: (CC-PVDZ AUX)
    Blend: CC-PVDZ-JKFIT

    Orbital Energies [Eh]
    ---------------------

    Alpha Occupied:

       1A1   -56.416804     2A1   -10.511868     3A1    -4.491611
       1B1    -3.045166     1B2    -3.045166     4A1    -3.042109
       5A1    -0.883386     6A1    -0.615498     2B2    -0.512635
       2B1    -0.512635     7A1    -0.503545

    Alpha Virtual:

       3B2    -0.300337     3B1    -0.300337     8A1    -0.182415
       9A1    -0.051607     4B1    -0.007582     4B2    -0.007582
       1A2    -0.003180    10A1    -0.003180    11A1     0.016394
       5B2     0.053406     5B1     0.053406    12A1     0.181778
       6B2     0.302403     6B1     0.302403    13A1     0.396664
      14A1     0.609079     2A2     0.893438    15A1     0.893441
       7B2     1.025699     7B1     1.025699    16A1     1.321122

    Beta Occupied:

       1A1   -56.410810     2A1   -10.470921     3A1    -4.482537
       1B1    -3.037973     1B2    -3.037973     4A1    -3.031934
       5A1    -0.753044

    Beta Virtual:

       6A1    -0.446252     2B2    -0.348608     2B1    -0.348608
       7A1    -0.319969     3B2    -0.216690     3B1    -0.216690
       8A1    -0.138537     9A1    -0.024740     4B1     0.012160
       4B2     0.012160    10A1     0.040481     1A2     0.040481
      11A1     0.070013     5B2     0.121398     5B1     0.121398
      12A1     0.230277     6B2     0.371896     6B1     0.371896
      13A1     0.473229    14A1     0.685937     2A2     1.009010
      15A1     1.009019     7B2     1.138286     7B1     1.138286
      16A1     1.419667

    Final Occupation by Irrep:
             A1    A2    B1    B2
    DOCC [     5,    0,    1,    1 ]
    SOCC [     2,    0,    1,    1 ]
    NA   [     7,    0,    2,    2 ]
    NB   [     5,    0,    1,    1 ]

  @DF-UKS Final Energy:  -279.99472949982516

   => Energetics <=

    Nuclear Repulsion Energy =             22.0581454743277803
    One-Electron Energy =                -425.6358272476700222
    Two-Electron Energy =                 142.7007909032019484
    DFT Exchange-Correlation Energy =     -19.1178386296848331
    Empirical Dispersion Energy =           0.0000000000000000
    VV10 Nonlocal Energy =                  0.0000000000000000
    Total Energy =                       -279.9947294998251550

  UHF NO Occupations:
  HONO-2 :    7 A1 1.0000000
  HONO-1 :    2 B2 1.0000000
  HONO-0 :    2 B1 1.0000000
  LUNO+0 :    8 A1 0.0009564
  LUNO+1 :    3 B1 0.0000008
  LUNO+2 :    3 B2 0.0000008
  LUNO+3 :    9 A1 0.0000004

Computation Completed

Properties will be evaluated at   0.000000,   0.000000,   0.000000 [a0]

Properties computed using the SCF density matrix

 Multipole Moments:

 ------------------------------------------------------------------------------------
     Multipole            Electronic (a.u.)      Nuclear  (a.u.)        Total (a.u.)
 ------------------------------------------------------------------------------------

 L = 1.  Multiply by 2.5417464519 to convert [e a0] to [Debye]
 Dipole X            :          0.0000000            0.0000000            0.0000000
 Dipole Y            :          0.0000000            0.0000000            0.0000000
 Dipole Z            :         -1.6035076            0.5342263           -1.0692813
 Magnitude           :                                                    1.0692813

 ------------------------------------------------------------------------------------

*** tstop() called on Joses-MacBook-Pro-2.local at Thu Jul 17 13:44:27 2025
Module time:
	user time   =       2.07 seconds =       0.03 minutes
	system time =       3.59 seconds =       0.06 minutes
	total time  =          0 seconds =       0.00 minutes
Total time:
	user time   =      37.21 seconds =       0.62 minutes
	system time =      70.46 seconds =       1.17 minutes
	total time  =         10 seconds =       0.17 minutes

*** tstart() called on Joses-MacBook-Pro-2.local
*** at Thu Jul 17 13:44:27 2025

         ------------------------------------------------------------
                                   SCF GRAD
                          Rob Parrish, Justin Turney,
                       Andy Simmonett, and Alex Sokolov
         ------------------------------------------------------------

  ==> Geometry <==

    Molecular point group: c2v
    Full point group: C_inf_v

    Geometry (in Angstrom), charge = 1, multiplicity = 5:

       Center              X                  Y                   Z               Mass
    ------------   -----------------  -----------------  -----------------  -----------------
         C            0.000000000000     0.000000000000     1.295192954022    12.000000000000
         AL           0.000000000000     0.000000000000    -0.576035181648    26.981538530000

  Nuclear repulsion =   22.058145474327780

  ==> Basis Set <==

  Basis Set: CC-PVDZ
    Blend: CC-PVDZ
    Number of shells: 14
    Number of basis functions: 32
    Number of Cartesian functions: 34
    Spherical Harmonics?: true
    Max angular momentum: 2

  ==> DFJKGrad: Density-Fitted SCF Gradients <==

    Gradient:                    1
    J tasked:                  Yes
    K tasked:                  Yes
    wK tasked:                  No
    OpenMP threads:              1
    Integrals threads:           1
    Memory [MiB]:              375
    Schwarz Cutoff:          1E-12
    Fitting Condition:       1E-10

   => Auxiliary Basis Set <=

  Basis Set: (CC-PVDZ AUX)
    Blend: CC-PVDZ-JKFIT
    Number of shells: 60
    Number of basis functions: 182
    Number of Cartesian functions: 211
    Spherical Harmonics?: true
    Max angular momentum: 3

  ==> DFT Potential <==

   => LibXC <=

    Version 6.2.2
    S. Lehtola, C. Steigemann, M. J.T. Oliveira, and M. A.L. Marques.,  SoftwareX 7, 1â€“5 (2018) (10.1016/j.softx.2017.11.002)

   => Composite Functional: B3LYP <=

    B3LYP Hyb-GGA Exchange-Correlation Functional

    P. J. Stephens, F. J. Devlin, C. F. Chabalowski, and M. J. Frisch.,  J. Phys. Chem. 98, 11623 (1994) (10.1021/j100096a001)

    Deriv               =              1
    GGA                 =           TRUE
    Meta                =          FALSE

    Exchange Hybrid     =           TRUE
    MP2 Hybrid          =          FALSE

   => Exchange Functionals <=

    0.0800   Slater exchange
    0.7200         Becke 88

   => Exact (HF) Exchange <=

    0.2000               HF

   => Correlation Functionals <=

    0.1900   Vosko, Wilk & Nusair (VWN5_RPA)
    0.8100   Lee, Yang & Parr

   => LibXC Density Thresholds  <==

    XC_HYB_GGA_XC_B3LYP:  1.00E-15

   => Molecular Quadrature <=

    Radial Scheme          =       TREUTLER
    Pruning Scheme         =           NONE
    Nuclear Scheme         =       TREUTLER

    Blocking Scheme        =         OCTREE
    BS radius alpha        =              1
    Pruning alpha          =              1
    Radial Points          =             75
    Spherical Points       =            302
    Total Points           =          43253
    Total Blocks           =            402
    Max Points             =            256
    Max Functions          =             32
    Weights Tolerance      =       1.00E-15

  -Total Gradient:
     Atom            X                  Y                   Z
    ------   -----------------  -----------------  -----------------
       1        0.000000000000     0.000000000000    -0.000064739145
       2        0.000000000000    -0.000000000000     0.000044062339

*** tstop() called on Joses-MacBook-Pro-2.local at Thu Jul 17 13:44:28 2025
Module time:
	user time   =       1.17 seconds =       0.02 minutes
	system time =       1.89 seconds =       0.03 minutes
	total time  =          1 seconds =       0.02 minutes
Total time:
	user time   =      38.38 seconds =       0.64 minutes
	system time =      72.35 seconds =       1.21 minutes
	total time  =         11 seconds =       0.18 minutes

    			-----------------------------------------

    			 OPTKING 3.0: for geometry optimizations

    			     By R.A. King, Bethel University

    			        with contributions from

    			    A.V. Copan, J. Cayton, A. Heide

    			-----------------------------------------

	                            ===> Fragment 1 <==

	 Z (Atomic Numbers)          Masses                          Geom
	       6.000000            12.000000          0.00000000  0.00000000  2.44755996
	      13.000000            26.981539          0.00000000  0.00000000 -1.08854873

	 - Coordinate -           - BOHR/RAD -       - ANG/DEG -
	 R(1,2)           =         3.536109           1.871228

	        --- Internal Coordinate Step in ANG or DEG, aJ/ANG or AJ/DEG ---
	-------------------------------------------------------------------------------
	           Coordinate      Previous         Force          Change          New
	           ----------      --------        ------          ------        ------
	               R(1,2)       1.87123        0.00045        0.00013       1.87136
	-------------------------------------------------------------------------------

	                                 ==> Convergence Check <==

	Measures of convergence in internal coordinates in au.

	Criteria marked as inactive (o), active & met (*), and active & unmet ( ).

	----------------------------------------------------------------------------------------------
	   Step    Total Energy     Delta E     Max Force     RMS Force      Max Disp      RMS Disp
	----------------------------------------------------------------------------------------------
	  Convergence Criteria     1.00e-06 *    3.00e-04 *             o    1.20e-03 *             o
	----------------------------------------------------------------------------------------------
	    11    -279.99472950   -3.77e-07 *    5.44e-05 *    5.44e-05 o    2.52e-04 *    2.52e-04 o  ~
	----------------------------------------------------------------------------------------------

Next Geometry in Ang
	Fragment 1 (Ang)

	    C   0.0000000000   0.0000000000   1.2952597033
	   Al   0.0000000000   0.0000000000  -0.5761019309

    Final optimized geometry and variables:
    Molecular point group: c2v
    Full point group: C_inf_v

    Geometry (in Angstrom), charge = 1, multiplicity = 5:

    C            0.000000000000     0.000000000000     1.295192954022
    AL           0.000000000000     0.000000000000    -0.576035181648

    Psi4 stopped on: Thursday, 17 July 2025 01:44PM
    Psi4 wall time for execution: 0:00:11.26

*** Psi4 exiting successfully. Buy a developer a beer!
