                               Psi4 1.9.1 release

  ==> Input File <==

--------------------------------------------------------------------------
molecule {
1 5
Al   0.00000        0.60000        0.00000
S   0.00000       -0.60000        0.00000
}

set {
basis              cc-pvdz
reference          uks
maxiter            500
geom_maxiter       500
DAMPING_PERCENTAGE 1
guess              SAP
}

optimize('b3lyp')
--------------------------------------------------------------------------

    Molecular point group: c2v
  Charge       = 1
  Multiplicity = 5
  Basis Set: CC-PVDZ
    Blend: CC-PVDZ
  Basis Set: (CC-PVDZ AUX)
    Blend: CC-PVDZ-JKFIT
  @DF-UKS Final Energy:  -638.75742919903450
    Total Energy =                       -638.7574291990345046
 Dipole X            :          0.0000000            0.0000000            0.0000000
 Dipole Y            :          0.0000000            0.0000000            0.0000000
 Dipole Z            :         -0.3549401           -0.6180494           -0.9729895
 Magnitude           :                                                    0.9729895
    Molecular point group: c2v
  Basis Set: CC-PVDZ
    Blend: CC-PVDZ
  Basis Set: (CC-PVDZ AUX)
    Blend: CC-PVDZ-JKFIT
  Basis Set: CC-PVDZ
    Blend: CC-PVDZ
  Basis Set: (CC-PVDZ AUX)
    Blend: CC-PVDZ-JKFIT
  @DF-UKS Final Energy:  -638.78553099890109
    Total Energy =                       -638.7855309989008674
  Basis Set: CC-PVDZ
    Blend: CC-PVDZ
  Basis Set: (CC-PVDZ AUX)
    Blend: CC-PVDZ-JKFIT
  Basis Set: CC-PVDZ
    Blend: CC-PVDZ
  @DF-UKS Final Energy:  -638.83910894977919
    Total Energy =                       -638.8391089497791882
  @DF-UKS Final Energy:  -639.02632135225213
    Total Energy =                       -639.0263213522521255
  @DF-UKS Final Energy:  -639.63780364453771
    Total Energy =                       -639.6378036445377120
  @DF-UKS Final Energy:  -639.86138168764467
    Total Energy =                       -639.8613816876446663
  @DF-UKS Final Energy:  -639.98520316648614
    Total Energy =                       -639.9852031664861443
  @DF-UKS Final Energy:  -640.13033768602816
    Total Energy =                       -640.1303376860280423
  @DF-UKS Final Energy:  -640.16814876283399
    Total Energy =                       -640.1681487628339937
  @DF-UKS Final Energy:  -640.17969671773631
    Total Energy =                       -640.1796967177363058
  @DF-UKS Final Energy:  -640.18442338966827
    Total Energy =                       -640.1844233896683818
  @DF-UKS Final Energy:  -640.18546616106505
    Total Energy =                       -640.1854661610650510
  @DF-UKS Final Energy:  -640.18578359051105
    Total Energy =                       -640.1857835905110505
  @DF-UKS Final Energy:  -640.18583127465376
    Total Energy =                       -640.1858312746538786
  @DF-UKS Final Energy:  -640.18583896195082
    Total Energy =                       -640.1858389619507079
  Basis Set: (CC-PVDZ AUX)
    Blend: CC-PVDZ-JKFIT
  Basis Set: CC-PVDZ
    Blend: CC-PVDZ
  Basis Set: (CC-PVDZ AUX)
    Blend: CC-PVDZ-JKFIT
  @DF-UKS Final Energy:  -640.18584036321568
    Total Energy =                       -640.1858403632155614
  Basis Set: CC-PVDZ
    Blend: CC-PVDZ
  Basis Set: (CC-PVDZ AUX)
    Blend: CC-PVDZ-JKFIT
  Charge       = 1
  Multiplicity = 5
  Basis Set: CC-PVDZ
    Blend: CC-PVDZ
  Basis Set: (CC-PVDZ AUX)
    Blend: CC-PVDZ-JKFIT

    Orbital Energies [Eh]
    ---------------------

    Alpha Occupied:

       1A1   -89.234932     2A1   -56.340933     3A1    -8.291158
       1B2    -6.258607     1B1    -6.258352     4A1    -6.246228
       5A1    -4.418347     2B2    -2.972727     6A1    -2.971102
       2B1    -2.968554     7A1    -1.016513     8A1    -0.629569
       3B2    -0.604559     3B1    -0.603457     9A1    -0.515655
       4B1    -0.350596

    Alpha Virtual:

       4B2    -0.289140    10A1    -0.238409    11A1    -0.052291
      12A1     0.004141     5B1     0.006005     5B2     0.015006
       6B1     0.018782     6B2     0.026229     1A2     0.028466
      13A1     0.034835    14A1     0.082287     7B2     0.231376
       7B1     0.233772     2A2     0.251719    15A1     0.251810
      16A1     0.276040    17A1     0.319107     8B1     0.357432
       8B2     0.358057    18A1     0.640887

    Beta Occupied:

       1A1   -89.221387     2A1   -56.334655     3A1    -8.277371
       1B2    -6.234681     1B1    -6.233904     4A1    -6.233187
       5A1    -4.409051     2B2    -2.967060     6A1    -2.965213
       2B1    -2.954284     7A1    -0.910098     8A1    -0.576182

    Beta Virtual:

       3B2    -0.440075     3B1    -0.435838     9A1    -0.396378
       4B2    -0.250421     4B1    -0.223338    10A1    -0.197458
      11A1    -0.035952    12A1     0.029056     5B2     0.035013
       5B1     0.053601     6B2     0.055843     6B1     0.077069
      13A1     0.091203     1A2     0.093564    14A1     0.126658
       7B2     0.286535     7B1     0.289646    15A1     0.306056
      16A1     0.363985     2A2     0.364480    17A1     0.367645
       8B2     0.419838     8B1     0.426603    18A1     0.686582

    Final Occupation by Irrep:
             A1    A2    B1    B2
    DOCC [     8,    0,    2,    2 ]
    SOCC [     1,    0,    2,    1 ]
    NA   [     9,    0,    4,    3 ]
    NB   [     8,    0,    2,    2 ]

  @DF-UKS Final Energy:  -640.18584041820009

   => Energetics <=

    Nuclear Repulsion Energy =             42.2622267299264252
    One-Electron Energy =                -962.6600368611884733
    Two-Electron Energy =                 315.6537324962764046
    DFT Exchange-Correlation Energy =     -35.4417627832143651
    Empirical Dispersion Energy =           0.0000000000000000
    VV10 Nonlocal Energy =                  0.0000000000000000
    Total Energy =                       -640.1858404181999731

  UHF NO Occupations:
  HONO-2 :    3 B1 1.0000000
  HONO-1 :    4 B1 1.0000000
  HONO-0 :    9 A1 1.0000000
  LUNO+0 :   10 A1 0.0026148
  LUNO+1 :   11 A1 0.0005500
  LUNO+2 :    4 B2 0.0000008
  LUNO+3 :   12 A1 0.0000004

Computation Completed

Properties will be evaluated at   0.000000,   0.000000,   0.000000 [a0]

Properties computed using the SCF density matrix

 Multipole Moments:

 ------------------------------------------------------------------------------------
     Multipole            Electronic (a.u.)      Nuclear  (a.u.)        Total (a.u.)
 ------------------------------------------------------------------------------------

 L = 1.  Multiply by 2.5417464519 to convert [e a0] to [Debye]
 Dipole X            :          0.0000000            0.0000000            0.0000000
 Dipole Y            :          0.0000000            0.0000000            0.0000000
 Dipole Z            :          1.7819838           -1.3413868            0.4405970
 Magnitude           :                                                    0.4405970

 ------------------------------------------------------------------------------------

*** tstop() called on Joses-MacBook-Pro-2.local at Thu Jul 17 15:20:55 2025
Module time:
	user time   =       7.10 seconds =       0.12 minutes
	system time =       2.14 seconds =       0.04 minutes
	total time  =          1 seconds =       0.02 minutes
Total time:
	user time   =     195.52 seconds =       3.26 minutes
	system time =      48.34 seconds =       0.81 minutes
	total time  =         23 seconds =       0.38 minutes

*** tstart() called on Joses-MacBook-Pro-2.local
*** at Thu Jul 17 15:20:55 2025

         ------------------------------------------------------------
                                   SCF GRAD
                          Rob Parrish, Justin Turney,
                       Andy Simmonett, and Alex Sokolov
         ------------------------------------------------------------

  ==> Geometry <==

    Molecular point group: c2v
    Full point group: C_inf_v

    Geometry (in Angstrom), charge = 1, multiplicity = 5:

       Center              X                  Y                   Z               Mass
    ------------   -----------------  -----------------  -----------------  -----------------
         AL           0.000000000000     0.000000000000     1.412447978214    26.981538530000
         S            0.000000000000     0.000000000000    -1.191978440743    31.972071174400

  Nuclear repulsion =   42.262226729926425

  ==> Basis Set <==

  Basis Set: CC-PVDZ
    Blend: CC-PVDZ
    Number of shells: 16
    Number of basis functions: 36
    Number of Cartesian functions: 38
    Spherical Harmonics?: true
    Max angular momentum: 2

  ==> DFJKGrad: Density-Fitted SCF Gradients <==

    Gradient:                    1
    J tasked:                  Yes
    K tasked:                  Yes
    wK tasked:                  No
    OpenMP threads:              1
    Integrals threads:           1
    Memory [MiB]:              375
    Schwarz Cutoff:          1E-12
    Fitting Condition:       1E-10

   => Auxiliary Basis Set <=

  Basis Set: (CC-PVDZ AUX)
    Blend: CC-PVDZ-JKFIT
    Number of shells: 72
    Number of basis functions: 224
    Number of Cartesian functions: 260
    Spherical Harmonics?: true
    Max angular momentum: 3

  ==> DFT Potential <==

   => LibXC <=

    Version 6.2.2
    S. Lehtola, C. Steigemann, M. J.T. Oliveira, and M. A.L. Marques.,  SoftwareX 7, 1â€“5 (2018) (10.1016/j.softx.2017.11.002)

   => Composite Functional: B3LYP <=

    B3LYP Hyb-GGA Exchange-Correlation Functional

    P. J. Stephens, F. J. Devlin, C. F. Chabalowski, and M. J. Frisch.,  J. Phys. Chem. 98, 11623 (1994) (10.1021/j100096a001)

    Deriv               =              1
    GGA                 =           TRUE
    Meta                =          FALSE

    Exchange Hybrid     =           TRUE
    MP2 Hybrid          =          FALSE

   => Exchange Functionals <=

    0.0800   Slater exchange
    0.7200         Becke 88

   => Exact (HF) Exchange <=

    0.2000               HF

   => Correlation Functionals <=

    0.1900   Vosko, Wilk & Nusair (VWN5_RPA)
    0.8100   Lee, Yang & Parr

   => LibXC Density Thresholds  <==

    XC_HYB_GGA_XC_B3LYP:  1.00E-15

   => Molecular Quadrature <=

    Radial Scheme          =       TREUTLER
    Pruning Scheme         =           NONE
    Nuclear Scheme         =       TREUTLER

    Blocking Scheme        =         OCTREE
    BS radius alpha        =              1
    Pruning alpha          =              1
    Radial Points          =             75
    Spherical Points       =            302
    Total Points           =          42699
    Total Blocks           =            404
    Max Points             =            255
    Max Functions          =             36
    Weights Tolerance      =       1.00E-15

  -Total Gradient:
     Atom            X                  Y                   Z
    ------   -----------------  -----------------  -----------------
       1       -0.000000000000     0.000000000000     0.000001571304
       2       -0.000000000000    -0.000000000000     0.000025941090

*** tstop() called on Joses-MacBook-Pro-2.local at Thu Jul 17 15:20:56 2025
Module time:
	user time   =       2.82 seconds =       0.05 minutes
	system time =       0.68 seconds =       0.01 minutes
	total time  =          1 seconds =       0.02 minutes
Total time:
	user time   =     198.35 seconds =       3.31 minutes
	system time =      49.02 seconds =       0.82 minutes
	total time  =         24 seconds =       0.40 minutes

    			-----------------------------------------

    			 OPTKING 3.0: for geometry optimizations

    			     By R.A. King, Bethel University

    			        with contributions from

    			    A.V. Copan, J. Cayton, A. Heide

    			-----------------------------------------

	                            ===> Fragment 1 <==

	 Z (Atomic Numbers)          Masses                          Geom
	      13.000000            26.981539          0.00000000  0.00000000  2.66913985
	      16.000000            31.972071          0.00000000  0.00000000 -2.25251280

	 - Coordinate -           - BOHR/RAD -       - ANG/DEG -
	 R(1,2)           =         4.921653           2.604426

	        --- Internal Coordinate Step in ANG or DEG, aJ/ANG or AJ/DEG ---
	-------------------------------------------------------------------------------
	           Coordinate      Previous         Force          Change          New
	           ----------      --------        ------          ------        ------
	               R(1,2)       2.60443        0.00010        0.00016       2.60459
	-------------------------------------------------------------------------------

	                                 ==> Convergence Check <==

	Measures of convergence in internal coordinates in au.

	Criteria marked as inactive (o), active & met (*), and active & unmet ( ).

	----------------------------------------------------------------------------------------------
	   Step    Total Energy     Delta E     Max Force     RMS Force      Max Disp      RMS Disp
	----------------------------------------------------------------------------------------------
	  Convergence Criteria     1.00e-06 *    3.00e-04 *             o    1.20e-03 *             o
	----------------------------------------------------------------------------------------------
	    17    -640.18584042   -5.50e-08 *    1.22e-05 *    1.22e-05 o    3.12e-04 *    3.12e-04 o  ~
	----------------------------------------------------------------------------------------------

Next Geometry in Ang
	Fragment 1 (Ang)

	   Al   0.0000000000   0.0000000000   1.4125304241
	    S   0.0000000000   0.0000000000  -1.1920608866

    Final optimized geometry and variables:
    Molecular point group: c2v
    Full point group: C_inf_v

    Geometry (in Angstrom), charge = 1, multiplicity = 5:

    AL           0.000000000000     0.000000000000     1.412447978214
    S            0.000000000000     0.000000000000    -1.191978440743

    Psi4 stopped on: Thursday, 17 July 2025 03:20PM
    Psi4 wall time for execution: 0:00:24.00

*** Psi4 exiting successfully. Buy a developer a beer!
