                               Psi4 1.9.1 release

  ==> Input File <==

--------------------------------------------------------------------------
molecule {
1 5
O   0.00000        0.60000        0.00000
Cl   0.00000       -0.60000        0.00000
}

set {
basis              cc-pvdz
reference          uks
maxiter            500
geom_maxiter       500
DAMPING_PERCENTAGE 1
guess              SAP
}

optimize('b3lyp')
--------------------------------------------------------------------------

    Molecular point group: c2v
  Charge       = 1
  Multiplicity = 5
  Basis Set: CC-PVDZ
    Blend: CC-PVDZ
  Basis Set: (CC-PVDZ AUX)
    Blend: CC-PVDZ-JKFIT
  @DF-UKS Final Energy:  -534.23079717157179
    Total Energy =                       -534.2307971715717940
 Dipole X            :          0.0000000            0.0000000            0.0000000
 Dipole Y            :          0.0000000            0.0000000            0.0000000
 Dipole Z            :         -0.1181915            0.3487254            0.2305338
 Magnitude           :                                                    0.2305338
    Molecular point group: c2v
  Basis Set: CC-PVDZ
    Blend: CC-PVDZ
  Basis Set: (CC-PVDZ AUX)
    Blend: CC-PVDZ-JKFIT
  Basis Set: CC-PVDZ
    Blend: CC-PVDZ
  Basis Set: (CC-PVDZ AUX)
    Blend: CC-PVDZ-JKFIT
  @DF-UKS Final Energy:  -534.41511426870454
    Total Energy =                       -534.4151142687045422
  Basis Set: CC-PVDZ
    Blend: CC-PVDZ
  Basis Set: (CC-PVDZ AUX)
    Blend: CC-PVDZ-JKFIT
  Basis Set: CC-PVDZ
    Blend: CC-PVDZ
  @DF-UKS Final Energy:  -534.54617003168573
    Total Energy =                       -534.5461700316857332
  @DF-UKS Final Energy:  -534.64466589991764
    Total Energy =                       -534.6446658999176407
  @DF-UKS Final Energy:  -534.71329907082747
    Total Energy =                       -534.7132990708274747
  @DF-UKS Final Energy:  -534.74391312431123
    Total Energy =                       -534.7439131243112342
  @DF-UKS Final Energy:  -534.75876018618169
    Total Energy =                       -534.7587601861816893
  @DF-UKS Final Energy:  -534.76578768933166
    Total Energy =                       -534.7657876893316597
  @DF-UKS Final Energy:  -534.76916787396760
    Total Energy =                       -534.7691678739676036
  @DF-UKS Final Energy:  -534.77091962958536
    Total Energy =                       -534.7709196295853644
  @DF-UKS Final Energy:  -534.77202045507227
    Total Energy =                       -534.7720204550722656
  @DF-UKS Final Energy:  -534.77308332824077
    Total Energy =                       -534.7730833282407730
  @DF-UKS Final Energy:  -534.77505992676527
    Total Energy =                       -534.7750599267651523
  @DF-UKS Final Energy:  -534.77509136663537
    Total Energy =                       -534.7750913666353654
  @DF-UKS Final Energy:  -534.77512301907825
    Total Energy =                       -534.7751230190782508
  @DF-UKS Final Energy:  -534.77795107340933
    Total Energy =                       -534.7779510734093265
  @DF-UKS Final Energy:  -534.77799325612477
    Total Energy =                       -534.7779932561247733
  @DF-UKS Final Energy:  -534.77803543059440
    Total Energy =                       -534.7780354305944002
  @DF-UKS Final Energy:  -534.78061310811256
    Total Energy =                       -534.7806131081125613
  @DF-UKS Final Energy:  -534.78065181484340
    Total Energy =                       -534.7806518148433952
  @DF-UKS Final Energy:  -534.79608865294244
    Total Energy =                       -534.7960886529424442
  @DF-UKS Final Energy:  -534.79608967584761
    Total Energy =                       -534.7960896758476110
  @DF-UKS Final Energy:  -534.79609070816491
    Total Energy =                       -534.7960907081649111
  @DF-UKS Final Energy:  -534.79609173811275
    Total Energy =                       -534.7960917381127501
  @DF-UKS Final Energy:  -534.79609276675546
    Total Energy =                       -534.7960927667554643
  @DF-UKS Final Energy:  -534.79609378965176
    Total Energy =                       -534.7960937896517635
  @DF-UKS Final Energy:  -534.79609482925832
    Total Energy =                       -534.7960948292583225
  @DF-UKS Final Energy:  -534.79609584795082
    Total Energy =                       -534.7960958479508236
  @DF-UKS Final Energy:  -534.79609688392236
    Total Energy =                       -534.7960968839223597
  @DF-UKS Final Energy:  -534.79609789983658
    Total Energy =                       -534.7960978998364681
  @DF-UKS Final Energy:  -534.79609893633028
    Total Energy =                       -534.7960989363302815
  @DF-UKS Final Energy:  -534.79609996192448
    Total Energy =                       -534.7960999619244831
  @DF-UKS Final Energy:  -534.79610098690512
    Total Energy =                       -534.7961009869052305
  @DF-UKS Final Energy:  -534.79610200351385
    Total Energy =                       -534.7961020035138517
  @DF-UKS Final Energy:  -534.79610302953563
    Total Energy =                       -534.7961030295356295
  @DF-UKS Final Energy:  -534.79610405342441
    Total Energy =                       -534.7961040534244148
  @DF-UKS Final Energy:  -534.79610507260384
    Total Energy =                       -534.7961050726038366
  @DF-UKS Final Energy:  -534.79610610365307
    Total Energy =                       -534.7961061036530737
  Basis Set: (CC-PVDZ AUX)
    Blend: CC-PVDZ-JKFIT
  Basis Set: CC-PVDZ
    Blend: CC-PVDZ
  Basis Set: (CC-PVDZ AUX)
    Blend: CC-PVDZ-JKFIT
  @DF-UKS Final Energy:  -534.79628660553749
    Total Energy =                       -534.7962866055374889
  Basis Set: CC-PVDZ
    Blend: CC-PVDZ
  Basis Set: (CC-PVDZ AUX)
    Blend: CC-PVDZ-JKFIT
  Charge       = 1
  Multiplicity = 5
  Basis Set: CC-PVDZ
    Blend: CC-PVDZ
  Basis Set: (CC-PVDZ AUX)
    Blend: CC-PVDZ-JKFIT

    Orbital Energies [Eh]
    ---------------------

    Alpha Occupied:

       1A1  -101.828678     2A1   -19.665326     3A1    -9.739934
       4A1    -7.511723     1B2    -7.492733     1B1    -7.492733
       5A1    -1.354811     6A1    -1.064965     7A1    -0.775530
       2B1    -0.757466     2B2    -0.757466     8A1    -0.609049
       3B2    -0.565282     3B1    -0.565282

    Alpha Virtual:

       9A1     0.323855     4B2     0.348272     4B1     0.348272
      10A1     0.389427    11A1     0.441724     5B2     0.452070
       5B1     0.452070     1A2     0.486304    12A1     0.486304
      13A1     0.545965     6B1     0.555732     6B2     0.555732
      14A1     0.779544    15A1     2.127413     7B1     2.131796
       7B2     2.131796     2A2     2.145042    16A1     2.145042

    Beta Occupied:

       1A1  -101.818131     2A1   -19.597611     3A1    -9.729635
       4A1    -7.486535     1B2    -7.482066     1B1    -7.482066
       5A1    -1.149373     6A1    -0.986304     2B1    -0.508495
       2B2    -0.508495

    Beta Virtual:

       3B2    -0.502162     3B1    -0.502162     7A1    -0.462683
       8A1    -0.433630     4B2     0.366665     4B1     0.366665
       9A1     0.371296    10A1     0.418802    11A1     0.521341
       1A2     0.521341     5B2     0.527536     5B1     0.527536
      12A1     0.534845     6B1     0.649726     6B2     0.649726
      13A1     0.660688    14A1     0.878776    15A1     2.286781
       2A2     2.286781     7B1     2.293457     7B2     2.293457
      16A1     2.297530

    Final Occupation by Irrep:
             A1    A2    B1    B2
    DOCC [     6,    0,    2,    2 ]
    SOCC [     2,    0,    1,    1 ]
    NA   [     8,    0,    3,    3 ]
    NB   [     6,    0,    2,    2 ]

  @DF-UKS Final Energy:  -534.79628753710642

   => Energetics <=

    Nuclear Repulsion Energy =              4.3115051112303702
    One-Electron Energy =                -740.4556324336006128
    Two-Electron Energy =                 230.5826791968137002
    DFT Exchange-Correlation Energy =     -29.2348394115499204
    Empirical Dispersion Energy =           0.0000000000000000
    VV10 Nonlocal Energy =                  0.0000000000000000
    Total Energy =                       -534.7962875371064229

  UHF NO Occupations:
  HONO-2 :    7 A1 1.0000000
  HONO-1 :    3 B1 1.0000000
  HONO-0 :    8 A1 1.0000000
  LUNO+0 :    4 B2 0.0008965
  LUNO+1 :    4 B1 0.0008965
  LUNO+2 :    9 A1 0.0006681
  LUNO+3 :   10 A1 0.0005918

Computation Completed

Properties will be evaluated at   0.000000,   0.000000,   0.000000 [a0]

Properties computed using the SCF density matrix

 Multipole Moments:

 ------------------------------------------------------------------------------------
     Multipole            Electronic (a.u.)      Nuclear  (a.u.)        Total (a.u.)
 ------------------------------------------------------------------------------------

 L = 1.  Multiply by 2.5417464519 to convert [e a0] to [Debye]
 Dipole X            :          0.0000000            0.0000000            0.0000000
 Dipole Y            :          0.0000000            0.0000000            0.0000000
 Dipole Z            :          2.1796667            4.8508009            7.0304676
 Magnitude           :                                                    7.0304676

 ------------------------------------------------------------------------------------

*** tstop() called on Joses-MacBook-Pro-2.local at Thu Jul 17 14:23:55 2025
Module time:
	user time   =       4.53 seconds =       0.08 minutes
	system time =       3.52 seconds =       0.06 minutes
	total time  =          1 seconds =       0.02 minutes
Total time:
	user time   =    1011.75 seconds =      16.86 minutes
	system time =     944.24 seconds =      15.74 minutes
	total time  =        565 seconds =       9.42 minutes

*** tstart() called on Joses-MacBook-Pro-2.local
*** at Thu Jul 17 14:23:55 2025

         ------------------------------------------------------------
                                   SCF GRAD
                          Rob Parrish, Justin Turney,
                       Andy Simmonett, and Alex Sokolov
         ------------------------------------------------------------

  ==> Geometry <==

    Molecular point group: c2v
    Full point group: C_inf_v

    Geometry (in Angstrom), charge = 1, multiplicity = 5:

       Center              X                  Y                   Z               Mass
    ------------   -----------------  -----------------  -----------------  -----------------
         O            0.000000000000     0.000000000000    11.453309461338    15.994914619570
         CL           0.000000000000     0.000000000000    -5.238796611704    34.968852682000

  Nuclear repulsion =    4.311505111230370

  ==> Basis Set <==

  Basis Set: CC-PVDZ
    Blend: CC-PVDZ
    Number of shells: 14
    Number of basis functions: 32
    Number of Cartesian functions: 34
    Spherical Harmonics?: true
    Max angular momentum: 2

  ==> DFJKGrad: Density-Fitted SCF Gradients <==

    Gradient:                    1
    J tasked:                  Yes
    K tasked:                  Yes
    wK tasked:                  No
    OpenMP threads:              1
    Integrals threads:           1
    Memory [MiB]:              375
    Schwarz Cutoff:          1E-12
    Fitting Condition:       1E-10

   => Auxiliary Basis Set <=

  Basis Set: (CC-PVDZ AUX)
    Blend: CC-PVDZ-JKFIT
    Number of shells: 60
    Number of basis functions: 182
    Number of Cartesian functions: 211
    Spherical Harmonics?: true
    Max angular momentum: 3

  ==> DFT Potential <==

   => LibXC <=

    Version 6.2.2
    S. Lehtola, C. Steigemann, M. J.T. Oliveira, and M. A.L. Marques.,  SoftwareX 7, 1â€“5 (2018) (10.1016/j.softx.2017.11.002)

   => Composite Functional: B3LYP <=

    B3LYP Hyb-GGA Exchange-Correlation Functional

    P. J. Stephens, F. J. Devlin, C. F. Chabalowski, and M. J. Frisch.,  J. Phys. Chem. 98, 11623 (1994) (10.1021/j100096a001)

    Deriv               =              1
    GGA                 =           TRUE
    Meta                =          FALSE

    Exchange Hybrid     =           TRUE
    MP2 Hybrid          =          FALSE

   => Exchange Functionals <=

    0.0800   Slater exchange
    0.7200         Becke 88

   => Exact (HF) Exchange <=

    0.2000               HF

   => Correlation Functionals <=

    0.1900   Vosko, Wilk & Nusair (VWN5_RPA)
    0.8100   Lee, Yang & Parr

   => LibXC Density Thresholds  <==

    XC_HYB_GGA_XC_B3LYP:  1.00E-15

   => Molecular Quadrature <=

    Radial Scheme          =       TREUTLER
    Pruning Scheme         =           NONE
    Nuclear Scheme         =       TREUTLER

    Blocking Scheme        =         OCTREE
    BS radius alpha        =              1
    Pruning alpha          =              1
    Radial Points          =             75
    Spherical Points       =            302
    Total Points           =          41125
    Total Blocks           =            427
    Max Points             =            256
    Max Functions          =             18
    Weights Tolerance      =       1.00E-15

  -Total Gradient:
     Atom            X                  Y                   Z
    ------   -----------------  -----------------  -----------------
       1        0.000000000000     0.000000000000    -0.000181178106
       2        0.000000000000     0.000000000000     0.000180751590

*** tstop() called on Joses-MacBook-Pro-2.local at Thu Jul 17 14:23:55 2025
Module time:
	user time   =       0.54 seconds =       0.01 minutes
	system time =       1.07 seconds =       0.02 minutes
	total time  =          0 seconds =       0.00 minutes
Total time:
	user time   =    1012.29 seconds =      16.87 minutes
	system time =     945.31 seconds =      15.76 minutes
	total time  =        565 seconds =       9.42 minutes

    			-----------------------------------------

    			 OPTKING 3.0: for geometry optimizations

    			     By R.A. King, Bethel University

    			        with contributions from

    			    A.V. Copan, J. Cayton, A. Heide

    			-----------------------------------------

	                            ===> Fragment 1 <==

	 Z (Atomic Numbers)          Masses                          Geom
	       8.000000            15.994915          0.00000000   0.00000000  21.64361811
	      17.000000            34.968853          0.00000000  0.00000000 -9.89989082

	 - Coordinate -           - BOHR/RAD -       - ANG/DEG -
	 R(1,2)           =        31.543509          16.692106

	        --- Internal Coordinate Step in ANG or DEG, aJ/ANG or AJ/DEG ---
	-------------------------------------------------------------------------------
	           Coordinate      Previous         Force          Change          New
	           ----------      --------        ------          ------        ------
	               R(1,2)      16.69211        0.00149        0.00273      16.69483
	-------------------------------------------------------------------------------

	                                 ==> Convergence Check <==

	Measures of convergence in internal coordinates in au.

	Criteria marked as inactive (o), active & met (*), and active & unmet ( ).

	----------------------------------------------------------------------------------------------
	   Step    Total Energy     Delta E     Max Force     RMS Force      Max Disp      RMS Disp
	----------------------------------------------------------------------------------------------
	  Convergence Criteria     1.00e-06 *    3.00e-04 *             o    1.20e-03 *             o
	----------------------------------------------------------------------------------------------
	   205    -534.79628754   -9.32e-07 *    1.81e-04 *    1.81e-04 o    5.15e-03      5.15e-03 o  ~
	----------------------------------------------------------------------------------------------

Next Geometry in Ang
	Fragment 1 (Ang)

	    O   0.0000000000   0.0000000000  11.4546733928
	   Cl   0.0000000000   0.0000000000  -5.2401605432

    Final optimized geometry and variables:
    Molecular point group: c2v
    Full point group: C_inf_v

    Geometry (in Angstrom), charge = 1, multiplicity = 5:

    O            0.000000000000     0.000000000000    11.453309461338
    CL           0.000000000000     0.000000000000    -5.238796611704

    Psi4 stopped on: Thursday, 17 July 2025 02:23PM
    Psi4 wall time for execution: 0:09:25.98

*** Psi4 exiting successfully. Buy a developer a beer!
