                               Psi4 1.9.1 release

  ==> Input File <==

--------------------------------------------------------------------------
molecule {
1 5
Mg   0.00000        0.60000        0.00000
Cl   0.00000       -0.60000        0.00000
}

set {
basis              cc-pvdz
reference          uks
maxiter            500
geom_maxiter       500
DAMPING_PERCENTAGE 1
guess              SAP
}

optimize('b3lyp')
--------------------------------------------------------------------------

    Molecular point group: c2v
  Charge       = 1
  Multiplicity = 5
  Basis Set: CC-PVDZ
    Blend: CC-PVDZ
  Basis Set: (CC-PVDZ AUX)
    Blend: CC-PVDZ-JKFIT + DEF2-UNIVERSAL-JKFIT
  @DF-UKS Final Energy:  -658.28549319333456
    Total Energy =                       -658.2854931933345597
 Dipole X            :          0.0000000            0.0000000            0.0000000
 Dipole Y            :          0.0000000            0.0000000            0.0000000
 Dipole Z            :         -1.8346994            0.4569863           -1.3777131
 Magnitude           :                                                    1.3777131
    Molecular point group: c2v
  Basis Set: CC-PVDZ
    Blend: CC-PVDZ
  Basis Set: (CC-PVDZ AUX)
    Blend: CC-PVDZ-JKFIT + DEF2-UNIVERSAL-JKFIT
  Basis Set: CC-PVDZ
    Blend: CC-PVDZ
  Basis Set: (CC-PVDZ AUX)
    Blend: CC-PVDZ-JKFIT + DEF2-UNIVERSAL-JKFIT
  @DF-UKS Final Energy:  -658.30997473644959
    Total Energy =                       -658.3099747364494760
  Basis Set: CC-PVDZ
    Blend: CC-PVDZ
  Basis Set: (CC-PVDZ AUX)
    Blend: CC-PVDZ-JKFIT + DEF2-UNIVERSAL-JKFIT
  Basis Set: CC-PVDZ
    Blend: CC-PVDZ
  @DF-UKS Final Energy:  -658.35669345473491
    Total Energy =                       -658.3566934547347955
  @DF-UKS Final Energy:  -658.52054663593162
    Total Energy =                       -658.5205466359316233
  @DF-UKS Final Energy:  -659.08177749059553
    Total Energy =                       -659.0817774905955275
  @DF-UKS Final Energy:  -659.30073147886412
    Total Energy =                       -659.3007314788642361
  @DF-UKS Final Energy:  -659.43359730792349
    Total Energy =                       -659.4335973079234918
  @DF-UKS Final Energy:  -659.51727984253671
    Total Energy =                       -659.5172798425367091
  @DF-UKS Final Energy:  -659.57356823145642
    Total Energy =                       -659.5735682314564201
  @DF-UKS Final Energy:  -659.61208995755067
    Total Energy =                       -659.6120899575506655
  @DF-UKS Final Energy:  -659.61589005903227
    Total Energy =                       -659.6158900590322673
  @DF-UKS Final Energy:  -659.64117923371543
    Total Energy =                       -659.6411792337153202
  @DF-UKS Final Energy:  -659.64238847568822
    Total Energy =                       -659.6423884756882217
  @DF-UKS Final Energy:  -659.65472853010317
    Total Energy =                       -659.6547285301030570
  @DF-UKS Final Energy:  -659.65507687210379
    Total Energy =                       -659.6550768721037912
  @DF-UKS Final Energy:  -659.66084747916682
    Total Energy =                       -659.6608474791668186
  @DF-UKS Final Energy:  -659.66094202320380
    Total Energy =                       -659.6609420232038019
  @DF-UKS Final Energy:  -659.66366522124054
    Total Energy =                       -659.6636652212405352
  @DF-UKS Final Energy:  -659.66369029473344
    Total Energy =                       -659.6636902947334420
  @DF-UKS Final Energy:  -659.66500031361215
    Total Energy =                       -659.6650003136121541
  @DF-UKS Final Energy:  -659.66568128059998
    Total Energy =                       -659.6656812805999834
  @DF-UKS Final Energy:  -659.66568320355725
    Total Energy =                       -659.6656832035572506
  @DF-UKS Final Energy:  -659.66605009376451
    Total Energy =                       -659.6660500937645111
  @DF-UKS Final Energy:  -659.66605075286975
    Total Energy =                       -659.6660507528697508
  @DF-UKS Final Energy:  -659.66605141302682
    Total Energy =                       -659.6660514130268211
  @DF-UKS Final Energy:  -659.66605207179873
    Total Energy =                       -659.6660520717986174
  @DF-UKS Final Energy:  -659.66605272912113
    Total Energy =                       -659.6660527291211338
  @DF-UKS Final Energy:  -659.66605338496822
    Total Energy =                       -659.6660533849682224
  @DF-UKS Final Energy:  -659.66605403931192
    Total Energy =                       -659.6660540393120300
  @DF-UKS Final Energy:  -659.66605469224100
    Total Energy =                       -659.6660546922410049
  @DF-UKS Final Energy:  -659.66605534371320
    Total Energy =                       -659.6660553437131966
  @DF-UKS Final Energy:  -659.66605599385912
    Total Energy =                       -659.6660559938591177
  @DF-UKS Final Energy:  -659.66605664251279
    Total Energy =                       -659.6660566425127854
  @DF-UKS Final Energy:  -659.66605728972104
    Total Energy =                       -659.6660572897211523
  @DF-UKS Final Energy:  -659.66605793544556
    Total Energy =                       -659.6660579354454512
  @DF-UKS Final Energy:  -659.66630377053764
    Total Energy =                       -659.6663037705376382
  @DF-UKS Final Energy:  -659.66630407338403
    Total Energy =                       -659.6663040733840262
  @DF-UKS Final Energy:  -659.66630437006472
    Total Energy =                       -659.6663043700647222
  Basis Set: (CC-PVDZ AUX)
    Blend: CC-PVDZ-JKFIT + DEF2-UNIVERSAL-JKFIT
  Basis Set: CC-PVDZ
    Blend: CC-PVDZ
  Basis Set: (CC-PVDZ AUX)
    Blend: CC-PVDZ-JKFIT + DEF2-UNIVERSAL-JKFIT
  @DF-UKS Final Energy:  -659.66630466649224
    Total Energy =                       -659.6663046664922376
  Basis Set: CC-PVDZ
    Blend: CC-PVDZ
  Basis Set: (CC-PVDZ AUX)
    Blend: CC-PVDZ-JKFIT + DEF2-UNIVERSAL-JKFIT
  Charge       = 1
  Multiplicity = 5
  Basis Set: CC-PVDZ
    Blend: CC-PVDZ
  Basis Set: (CC-PVDZ AUX)
    Blend: CC-PVDZ-JKFIT + DEF2-UNIVERSAL-JKFIT

    Orbital Energies [Eh]
    ---------------------

    Alpha Occupied:

       1A1  -102.078625     2A1   -46.987042     3A1    -9.984460
       4A1    -7.753880     1B1    -7.753870     1B2    -7.727407
       5A1    -3.266134     6A1    -2.010556     2B2    -2.010399
       2B1    -2.007346     7A1    -1.291464     8A1    -0.813993
       3B1    -0.813719     3B2    -0.754707     9A1    -0.350201
       4B1    -0.206984

    Alpha Virtual:

      10A1    -0.170651     4B2    -0.156582    11A1    -0.034880
      12A1     0.030903     5B1     0.032332     5B2     0.042566
       6B1     0.163462    13A1     0.165240     7B1     0.167148
       1A2     0.169649    14A1     0.176219     6B2     0.177490
      15A1     0.185448     7B2     0.194912    16A1     0.213829
       8B1     0.214333    17A1     0.250606     2A2     0.259455
       8B2     0.259545    18A1     0.278655

    Beta Occupied:

       1A1  -102.063424     2A1   -46.982810     3A1    -9.969557
       4A1    -7.724758     1B1    -7.724744     1B2    -7.718513
       5A1    -3.259065     6A1    -2.006273     2B2    -2.006199
       2B1    -1.998411     7A1    -1.178762     3B2    -0.720294

    Beta Virtual:

       8A1    -0.622402     3B1    -0.621936     9A1    -0.243233
      10A1    -0.130787     4B2    -0.114998     4B1    -0.095004
      11A1    -0.002758    12A1     0.053982     5B2     0.064283
       5B1     0.080711     6B2     0.206662    13A1     0.208184
       6B1     0.212178     7B2     0.212967    14A1     0.226861
       7B1     0.233720     1A2     0.236650    15A1     0.243047
      16A1     0.289214     2A2     0.327996     8B2     0.328044
      17A1     0.332224     8B1     0.342284    18A1     0.344528

    Final Occupation by Irrep:
             A1    A2    B1    B2
    DOCC [     7,    0,    2,    3 ]
    SOCC [     2,    0,    2,    0 ]
    NA   [     9,    0,    4,    3 ]
    NB   [     7,    0,    2,    3 ]

  @DF-UKS Final Energy:  -659.66630496280493

   => Energetics <=

    Nuclear Repulsion Energy =             21.1480846689571109
    One-Electron Energy =                -947.0555878869295157
    Two-Electron Energy =                 301.9324217016292664
    DFT Exchange-Correlation Energy =     -35.6912234464617910
    Empirical Dispersion Energy =           0.0000000000000000
    VV10 Nonlocal Energy =                  0.0000000000000000
    Total Energy =                       -659.6663049628049293

  UHF NO Occupations:
  HONO-2 :    8 A1 1.0000000
  HONO-1 :    4 B1 1.0000000
  HONO-0 :    9 A1 1.0000000
  LUNO+0 :   10 A1 0.0009966
  LUNO+1 :    4 B2 0.0001041
  LUNO+2 :   11 A1 0.0000009
  LUNO+3 :    5 B2 0.0000007

Computation Completed

Properties will be evaluated at   0.000000,   0.000000,   0.000000 [a0]

Properties computed using the SCF density matrix

 Multipole Moments:

 ------------------------------------------------------------------------------------
     Multipole            Electronic (a.u.)      Nuclear  (a.u.)        Total (a.u.)
 ------------------------------------------------------------------------------------

 L = 1.  Multiply by 2.5417464519 to convert [e a0] to [Debye]
 Dipole X            :          0.0000000            0.0000000            0.0000000
 Dipole Y            :          0.0000000            0.0000000            0.0000000
 Dipole Z            :         -5.3608440            1.9439371           -3.4169070
 Magnitude           :                                                    3.4169070

 ------------------------------------------------------------------------------------

*** tstop() called on Joses-MacBook-Pro-2.local at Thu Jul 17 15:12:29 2025
Module time:
	user time   =       2.82 seconds =       0.05 minutes
	system time =       2.03 seconds =       0.03 minutes
	total time  =          1 seconds =       0.02 minutes
Total time:
	user time   =     425.42 seconds =       7.09 minutes
	system time =     181.39 seconds =       3.02 minutes
	total time  =         58 seconds =       0.97 minutes

*** tstart() called on Joses-MacBook-Pro-2.local
*** at Thu Jul 17 15:12:29 2025

         ------------------------------------------------------------
                                   SCF GRAD
                          Rob Parrish, Justin Turney,
                       Andy Simmonett, and Alex Sokolov
         ------------------------------------------------------------

  ==> Geometry <==

    Molecular point group: c2v
    Full point group: C_inf_v

    Geometry (in Angstrom), charge = 1, multiplicity = 5:

       Center              X                  Y                   Z               Mass
    ------------   -----------------  -----------------  -----------------  -----------------
         MG           0.000000000000     0.000000000000     3.027813661249    23.985041697000
         CL           0.000000000000     0.000000000000    -2.076769220204    34.968852682000

  Nuclear repulsion =   21.148084668957111

  ==> Basis Set <==

  Basis Set: CC-PVDZ
    Blend: CC-PVDZ
    Number of shells: 16
    Number of basis functions: 36
    Number of Cartesian functions: 38
    Spherical Harmonics?: true
    Max angular momentum: 2

  ==> DFJKGrad: Density-Fitted SCF Gradients <==

    Gradient:                    1
    J tasked:                  Yes
    K tasked:                  Yes
    wK tasked:                  No
    OpenMP threads:              1
    Integrals threads:           1
    Memory [MiB]:              375
    Schwarz Cutoff:          1E-12
    Fitting Condition:       1E-10

   => Auxiliary Basis Set <=

  Basis Set: (CC-PVDZ AUX)
    Blend: CC-PVDZ-JKFIT + DEF2-UNIVERSAL-JKFIT
    Number of shells: 70
    Number of basis functions: 224
    Number of Cartesian functions: 267
    Spherical Harmonics?: true
    Max angular momentum: 4

  ==> DFT Potential <==

   => LibXC <=

    Version 6.2.2
    S. Lehtola, C. Steigemann, M. J.T. Oliveira, and M. A.L. Marques.,  SoftwareX 7, 1â€“5 (2018) (10.1016/j.softx.2017.11.002)

   => Composite Functional: B3LYP <=

    B3LYP Hyb-GGA Exchange-Correlation Functional

    P. J. Stephens, F. J. Devlin, C. F. Chabalowski, and M. J. Frisch.,  J. Phys. Chem. 98, 11623 (1994) (10.1021/j100096a001)

    Deriv               =              1
    GGA                 =           TRUE
    Meta                =          FALSE

    Exchange Hybrid     =           TRUE
    MP2 Hybrid          =          FALSE

   => Exchange Functionals <=

    0.0800   Slater exchange
    0.7200         Becke 88

   => Exact (HF) Exchange <=

    0.2000               HF

   => Correlation Functionals <=

    0.1900   Vosko, Wilk & Nusair (VWN5_RPA)
    0.8100   Lee, Yang & Parr

   => LibXC Density Thresholds  <==

    XC_HYB_GGA_XC_B3LYP:  1.00E-15

   => Molecular Quadrature <=

    Radial Scheme          =       TREUTLER
    Pruning Scheme         =           NONE
    Nuclear Scheme         =       TREUTLER

    Blocking Scheme        =         OCTREE
    BS radius alpha        =              1
    Pruning alpha          =              1
    Radial Points          =             75
    Spherical Points       =            302
    Total Points           =          43159
    Total Blocks           =            448
    Max Points             =            256
    Max Functions          =             36
    Weights Tolerance      =       1.00E-15

  -Total Gradient:
     Atom            X                  Y                   Z
    ------   -----------------  -----------------  -----------------
       1       -0.000000000000     0.000000000000    -0.000305354238
       2       -0.000000000000    -0.000000000000     0.000294577166

*** tstop() called on Joses-MacBook-Pro-2.local at Thu Jul 17 15:12:29 2025
Module time:
	user time   =       2.00 seconds =       0.03 minutes
	system time =       1.82 seconds =       0.03 minutes
	total time  =          0 seconds =       0.00 minutes
Total time:
	user time   =     427.45 seconds =       7.12 minutes
	system time =     183.21 seconds =       3.05 minutes
	total time  =         58 seconds =       0.97 minutes

    			-----------------------------------------

    			 OPTKING 3.0: for geometry optimizations

    			     By R.A. King, Bethel University

    			        with contributions from

    			    A.V. Copan, J. Cayton, A. Heide

    			-----------------------------------------

	                            ===> Fragment 1 <==

	 Z (Atomic Numbers)          Masses                          Geom
	      12.000000            23.985042          0.00000000  0.00000000  5.72173858
	      17.000000            34.968853          0.00000000  0.00000000 -3.92452505

	 - Coordinate -           - BOHR/RAD -       - ANG/DEG -
	 R(1,2)           =         9.646264           5.104583

	        --- Internal Coordinate Step in ANG or DEG, aJ/ANG or AJ/DEG ---
	-------------------------------------------------------------------------------
	           Coordinate      Previous         Force          Change          New
	           ----------      --------        ------          ------        ------
	               R(1,2)       5.10458        0.00247        0.00050       5.10509
	-------------------------------------------------------------------------------

	                                 ==> Convergence Check <==

	Measures of convergence in internal coordinates in au.

	Criteria marked as inactive (o), active & met (*), and active & unmet ( ).

	----------------------------------------------------------------------------------------------
	   Step    Total Energy     Delta E     Max Force     RMS Force      Max Disp      RMS Disp
	----------------------------------------------------------------------------------------------
	  Convergence Criteria     1.00e-06 *    3.00e-04 *             o    1.20e-03 *             o
	----------------------------------------------------------------------------------------------
	    46    -659.66630496   -2.96e-07 *    3.00e-04 *    3.00e-04 o    9.54e-04 *    9.54e-04 o  ~
	----------------------------------------------------------------------------------------------

Next Geometry in Ang
	Fragment 1 (Ang)

	   Mg   0.0000000000   0.0000000000   3.0280660953
	   Cl   0.0000000000   0.0000000000  -2.0770216543

    Final optimized geometry and variables:
    Molecular point group: c2v
    Full point group: C_inf_v

    Geometry (in Angstrom), charge = 1, multiplicity = 5:

    MG           0.000000000000     0.000000000000     3.027813661249
    CL           0.000000000000     0.000000000000    -2.076769220204

    Psi4 stopped on: Thursday, 17 July 2025 03:12PM
    Psi4 wall time for execution: 0:00:58.86

*** Psi4 exiting successfully. Buy a developer a beer!
