                               Psi4 1.9.1 release

  ==> Input File <==

--------------------------------------------------------------------------
molecule {
1 5
C   0.00000        0.60000        0.00000
N   0.00000       -0.60000        0.00000
}

set {
basis              cc-pvdz
reference          uks
maxiter            500
geom_maxiter       500
DAMPING_PERCENTAGE 1
guess              SAP
}

optimize('b3lyp')
--------------------------------------------------------------------------

    Molecular point group: c2v
  Charge       = 1
  Multiplicity = 5
  Basis Set: CC-PVDZ
    Blend: CC-PVDZ
  Basis Set: (CC-PVDZ AUX)
    Blend: CC-PVDZ-JKFIT
  @DF-UKS Final Energy:   -91.99281244450704
    Total Energy =                        -91.9928124445070523
 Dipole X            :          0.0000000            0.0000000            0.0000000
 Dipole Y            :          0.0000000            0.0000000            0.0000000
 Dipole Z            :          0.6099005            0.0016085            0.6115090
 Magnitude           :                                                    0.6115090
    Molecular point group: c2v
  Basis Set: CC-PVDZ
    Blend: CC-PVDZ
  Basis Set: (CC-PVDZ AUX)
    Blend: CC-PVDZ-JKFIT
  Basis Set: CC-PVDZ
    Blend: CC-PVDZ
  Basis Set: (CC-PVDZ AUX)
    Blend: CC-PVDZ-JKFIT
  @DF-UKS Final Energy:   -92.06868481151945
    Total Energy =                        -92.0686848115194465
  Basis Set: CC-PVDZ
    Blend: CC-PVDZ
  Basis Set: (CC-PVDZ AUX)
    Blend: CC-PVDZ-JKFIT
  Basis Set: CC-PVDZ
    Blend: CC-PVDZ
  @DF-UKS Final Energy:   -92.07781977427837
    Total Energy =                        -92.0778197742783675
  @DF-UKS Final Energy:   -92.08130044669937
    Total Energy =                        -92.0813004466993732
  @DF-UKS Final Energy:   -92.08394203023482
    Total Energy =                        -92.0839420302348231
  @DF-UKS Final Energy:   -92.08463893166835
    Total Energy =                        -92.0846389316683656
  @DF-UKS Final Energy:   -92.08486624816004
    Total Energy =                        -92.0848662481600542
  @DF-UKS Final Energy:   -92.08496671592377
    Total Energy =                        -92.0849667159237697
  @DF-UKS Final Energy:   -92.08499578965942
    Total Energy =                        -92.0849957896594162
  Basis Set: (CC-PVDZ AUX)
    Blend: CC-PVDZ-JKFIT
  Basis Set: CC-PVDZ
    Blend: CC-PVDZ
  Basis Set: (CC-PVDZ AUX)
    Blend: CC-PVDZ-JKFIT
  @DF-UKS Final Energy:   -92.08500186256185
    Total Energy =                        -92.0850018625618389
  Basis Set: CC-PVDZ
    Blend: CC-PVDZ
  Basis Set: (CC-PVDZ AUX)
    Blend: CC-PVDZ-JKFIT
  Charge       = 1
  Multiplicity = 5
  Basis Set: CC-PVDZ
    Blend: CC-PVDZ
  Basis Set: (CC-PVDZ AUX)
    Blend: CC-PVDZ-JKFIT

    Orbital Energies [Eh]
    ---------------------

    Alpha Occupied:

       1A1   -14.866174     2A1   -10.747505     3A1    -1.262349
       4A1    -0.948623     1B2    -0.763439     5A1    -0.754669
       1B1    -0.745750     2B2    -0.606718

    Alpha Virtual:

       2B1    -0.497631     6A1    -0.296846     7A1     0.128808
       3B2     0.140616     3B1     0.157588     8A1     0.226615
       4B2     0.370920     4B1     0.373182     9A1     0.380681
       5B2     0.711018     5B1     0.714514     1A2     0.735295
      10A1     0.741660    11A1     0.811851    12A1     1.086936
       2A2     1.314806    13A1     1.315195     6B2     1.574425
       6B1     1.574674    14A1     1.932260

    Beta Occupied:

       1A1   -14.817331     2A1   -10.718013     3A1    -1.123384
       4A1    -0.806580

    Beta Virtual:

       5A1    -0.559086     1B1    -0.545171     1B2    -0.518154
       2B1    -0.396036     2B2    -0.361147     6A1    -0.196225
       7A1     0.166565     3B1     0.184130     3B2     0.213208
       8A1     0.283972     9A1     0.440402     4B1     0.455075
       4B2     0.466977     5B1     0.783920     5B2     0.812719
      10A1     0.823898     1A2     0.824654    11A1     0.884378
      12A1     1.174789     2A2     1.455457    13A1     1.455458
       6B1     1.674046     6B2     1.691422    14A1     2.024731

    Final Occupation by Irrep:
             A1    A2    B1    B2
    DOCC [     4,    0,    0,    0 ]
    SOCC [     1,    0,    1,    2 ]
    NA   [     5,    0,    1,    2 ]
    NB   [     4,    0,    0,    0 ]

  @DF-UKS Final Energy:   -92.08500235623767

   => Energetics <=

    Nuclear Repulsion Energy =             13.8065205998890601
    One-Electron Energy =                -146.8107952355658767
    Two-Electron Energy =                  50.3733777605420627
    DFT Exchange-Correlation Energy =      -9.4541054811029124
    Empirical Dispersion Energy =           0.0000000000000000
    VV10 Nonlocal Energy =                  0.0000000000000000
    Total Energy =                        -92.0850023562376521

  UHF NO Occupations:
  HONO-2 :    1 B1 1.0000000
  HONO-1 :    5 A1 1.0000000
  HONO-0 :    2 B2 1.0000000
  LUNO+0 :    6 A1 0.0024577
  LUNO+1 :    7 A1 0.0007173
  LUNO+2 :    8 A1 0.0000005
  LUNO+3 :    9 A1 0.0000002

Computation Completed

Properties will be evaluated at   0.000000,   0.000000,   0.000000 [a0]

Properties computed using the SCF density matrix

 Multipole Moments:

 ------------------------------------------------------------------------------------
     Multipole            Electronic (a.u.)      Nuclear  (a.u.)        Total (a.u.)
 ------------------------------------------------------------------------------------

 L = 1.  Multiply by 2.5417464519 to convert [e a0] to [Debye]
 Dipole X            :          0.0000000            0.0000000            0.0000000
 Dipole Y            :          0.0000000            0.0000000            0.0000000
 Dipole Z            :          0.4632856            0.0021577            0.4654433
 Magnitude           :                                                    0.4654433

 ------------------------------------------------------------------------------------

*** tstop() called on Joses-MacBook-Pro-2.local at Thu Jul 17 13:40:59 2025
Module time:
	user time   =       3.35 seconds =       0.06 minutes
	system time =       2.98 seconds =       0.05 minutes
	total time  =          1 seconds =       0.02 minutes
Total time:
	user time   =      36.35 seconds =       0.61 minutes
	system time =      59.02 seconds =       0.98 minutes
	total time  =          9 seconds =       0.15 minutes

*** tstart() called on Joses-MacBook-Pro-2.local
*** at Thu Jul 17 13:40:59 2025

         ------------------------------------------------------------
                                   SCF GRAD
                          Rob Parrish, Justin Turney,
                       Andy Simmonett, and Alex Sokolov
         ------------------------------------------------------------

  ==> Geometry <==

    Molecular point group: c2v
    Full point group: C_inf_v

    Geometry (in Angstrom), charge = 1, multiplicity = 5:

       Center              X                  Y                   Z               Mass
    ------------   -----------------  -----------------  -----------------  -----------------
         C            0.000000000000     0.000000000000     0.866891750155    12.000000000000
         N            0.000000000000     0.000000000000    -0.742886954577    14.003074004430

  Nuclear repulsion =   13.806520599889060

  ==> Basis Set <==

  Basis Set: CC-PVDZ
    Blend: CC-PVDZ
    Number of shells: 12
    Number of basis functions: 28
    Number of Cartesian functions: 30
    Spherical Harmonics?: true
    Max angular momentum: 2

  ==> DFJKGrad: Density-Fitted SCF Gradients <==

    Gradient:                    1
    J tasked:                  Yes
    K tasked:                  Yes
    wK tasked:                  No
    OpenMP threads:              1
    Integrals threads:           1
    Memory [MiB]:              375
    Schwarz Cutoff:          1E-12
    Fitting Condition:       1E-10

   => Auxiliary Basis Set <=

  Basis Set: (CC-PVDZ AUX)
    Blend: CC-PVDZ-JKFIT
    Number of shells: 48
    Number of basis functions: 140
    Number of Cartesian functions: 162
    Spherical Harmonics?: true
    Max angular momentum: 3

  ==> DFT Potential <==

   => LibXC <=

    Version 6.2.2
    S. Lehtola, C. Steigemann, M. J.T. Oliveira, and M. A.L. Marques.,  SoftwareX 7, 1â€“5 (2018) (10.1016/j.softx.2017.11.002)

   => Composite Functional: B3LYP <=

    B3LYP Hyb-GGA Exchange-Correlation Functional

    P. J. Stephens, F. J. Devlin, C. F. Chabalowski, and M. J. Frisch.,  J. Phys. Chem. 98, 11623 (1994) (10.1021/j100096a001)

    Deriv               =              1
    GGA                 =           TRUE
    Meta                =          FALSE

    Exchange Hybrid     =           TRUE
    MP2 Hybrid          =          FALSE

   => Exchange Functionals <=

    0.0800   Slater exchange
    0.7200         Becke 88

   => Exact (HF) Exchange <=

    0.2000               HF

   => Correlation Functionals <=

    0.1900   Vosko, Wilk & Nusair (VWN5_RPA)
    0.8100   Lee, Yang & Parr

   => LibXC Density Thresholds  <==

    XC_HYB_GGA_XC_B3LYP:  1.00E-15

   => Molecular Quadrature <=

    Radial Scheme          =       TREUTLER
    Pruning Scheme         =           NONE
    Nuclear Scheme         =       TREUTLER

    Blocking Scheme        =         OCTREE
    BS radius alpha        =              1
    Pruning alpha          =              1
    Radial Points          =             75
    Spherical Points       =            302
    Total Points           =          42733
    Total Blocks           =            384
    Max Points             =            256
    Max Functions          =             28
    Weights Tolerance      =       1.00E-15

  -Total Gradient:
     Atom            X                  Y                   Z
    ------   -----------------  -----------------  -----------------
       1        0.000000000000     0.000000000000    -0.000051647935
       2        0.000000000000     0.000000000000     0.000054313173

*** tstop() called on Joses-MacBook-Pro-2.local at Thu Jul 17 13:40:59 2025
Module time:
	user time   =       0.41 seconds =       0.01 minutes
	system time =       1.25 seconds =       0.02 minutes
	total time  =          0 seconds =       0.00 minutes
Total time:
	user time   =      36.77 seconds =       0.61 minutes
	system time =      60.27 seconds =       1.00 minutes
	total time  =          9 seconds =       0.15 minutes

    			-----------------------------------------

    			 OPTKING 3.0: for geometry optimizations

    			     By R.A. King, Bethel University

    			        with contributions from

    			    A.V. Copan, J. Cayton, A. Heide

    			-----------------------------------------

	                            ===> Fragment 1 <==

	 Z (Atomic Numbers)          Masses                          Geom
	       6.000000            12.000000          0.00000000  0.00000000  1.63818799
	       7.000000            14.003074          0.00000000  0.00000000 -1.40385289

	 - Coordinate -           - BOHR/RAD -       - ANG/DEG -
	 R(1,2)           =         3.042041           1.609779

	        --- Internal Coordinate Step in ANG or DEG, aJ/ANG or AJ/DEG ---
	-------------------------------------------------------------------------------
	           Coordinate      Previous         Force          Change          New
	           ----------      --------        ------          ------        ------
	               R(1,2)       1.60978        0.00044        0.00030       1.61008
	-------------------------------------------------------------------------------

	                                 ==> Convergence Check <==

	Measures of convergence in internal coordinates in au.

	Criteria marked as inactive (o), active & met (*), and active & unmet ( ).

	----------------------------------------------------------------------------------------------
	   Step    Total Energy     Delta E     Max Force     RMS Force      Max Disp      RMS Disp
	----------------------------------------------------------------------------------------------
	  Convergence Criteria     1.00e-06 *    3.00e-04 *             o    1.20e-03 *             o
	----------------------------------------------------------------------------------------------
	    11     -92.08500236   -4.94e-07 *    5.30e-05 *    5.30e-05 o    5.69e-04 *    5.69e-04 o  ~
	----------------------------------------------------------------------------------------------

Next Geometry in Ang
	Fragment 1 (Ang)

	    C   0.0000000000   0.0000000000   0.8670422584
	    N   0.0000000000   0.0000000000  -0.7430374628

    Final optimized geometry and variables:
    Molecular point group: c2v
    Full point group: C_inf_v

    Geometry (in Angstrom), charge = 1, multiplicity = 5:

    C            0.000000000000     0.000000000000     0.866891750155
    N            0.000000000000     0.000000000000    -0.742886954577

    Psi4 stopped on: Thursday, 17 July 2025 01:40PM
    Psi4 wall time for execution: 0:00:09.79

*** Psi4 exiting successfully. Buy a developer a beer!
