                               Psi4 1.9.1 release

  ==> Input File <==

--------------------------------------------------------------------------
molecule {
1 5
Al   0.00000        0.60000        0.00000
Ar   0.00000       -0.60000        0.00000
}

set {
basis              cc-pvdz
reference          uks
maxiter            500
geom_maxiter       500
DAMPING_PERCENTAGE 1
guess              SAP
}

optimize('b3lyp')
--------------------------------------------------------------------------

    Molecular point group: c2v
  Charge       = 1
  Multiplicity = 5
  Basis Set: CC-PVDZ
    Blend: CC-PVDZ
  Basis Set: (CC-PVDZ AUX)
    Blend: CC-PVDZ-JKFIT
  @DF-UKS Final Energy:  -767.72036974181913
    Total Energy =                       -767.7203697418192405
 Dipole X            :          0.0000000            0.0000000            0.0000000
 Dipole Y            :          0.0000000            0.0000000            0.0000000
 Dipole Z            :         -2.6041592            1.1464141           -1.4577452
 Magnitude           :                                                    1.4577452
    Molecular point group: c2v
  Basis Set: CC-PVDZ
    Blend: CC-PVDZ
  Basis Set: (CC-PVDZ AUX)
    Blend: CC-PVDZ-JKFIT
  Basis Set: CC-PVDZ
    Blend: CC-PVDZ
  Basis Set: (CC-PVDZ AUX)
    Blend: CC-PVDZ-JKFIT
  @DF-UKS Final Energy:  -767.75252819990931
    Total Energy =                       -767.7525281999091931
  Basis Set: CC-PVDZ
    Blend: CC-PVDZ
  Basis Set: (CC-PVDZ AUX)
    Blend: CC-PVDZ-JKFIT
  Basis Set: CC-PVDZ
    Blend: CC-PVDZ
  @DF-UKS Final Energy:  -767.81304024951851
    Total Energy =                       -767.8130402495183944
  @DF-UKS Final Energy:  -768.01744775458224
    Total Energy =                       -768.0174477545822356
  @DF-UKS Final Energy:  -768.56176100331209
    Total Energy =                       -768.5617610033120854
  @DF-UKS Final Energy:  -768.77321036206104
    Total Energy =                       -768.7732103620610360
  @DF-UKS Final Energy:  -768.92230655292076
    Total Energy =                       -768.9223065529207588
  @DF-UKS Final Energy:  -769.02955633424995
    Total Energy =                       -769.0295563342499463
  @DF-UKS Final Energy:  -769.09779489421999
    Total Energy =                       -769.0977948942201010
  @DF-UKS Final Energy:  -769.14075156116314
    Total Energy =                       -769.1407515611631425
  @DF-UKS Final Energy:  -769.16555382822446
    Total Energy =                       -769.1655538282244606
  @DF-UKS Final Energy:  -769.17943206329460
    Total Energy =                       -769.1794320632944846
  @DF-UKS Final Energy:  -769.18737469124505
    Total Energy =                       -769.1873746912450542
  @DF-UKS Final Energy:  -769.19214115797593
    Total Energy =                       -769.1921411579760388
  @DF-UKS Final Energy:  -769.19520095761368
    Total Energy =                       -769.1952009576136788
  @DF-UKS Final Energy:  -769.19523935389532
    Total Energy =                       -769.1952393538953174
  @DF-UKS Final Energy:  -769.19763809503809
    Total Energy =                       -769.1976380950380872
  @DF-UKS Final Energy:  -769.19765466396643
    Total Energy =                       -769.1976546639664321
  @DF-UKS Final Energy:  -769.19767112831732
    Total Energy =                       -769.1976711283174382
  @DF-UKS Final Energy:  -769.19935844565669
    Total Energy =                       -769.1993584456566850
  @DF-UKS Final Energy:  -769.20358049736774
    Total Energy =                       -769.2035804973677386
  @DF-UKS Final Energy:  -769.20358093719153
    Total Energy =                       -769.2035809371914183
  @DF-UKS Final Energy:  -769.20358137673065
    Total Energy =                       -769.2035813767305399
  @DF-UKS Final Energy:  -769.20358181596862
    Total Energy =                       -769.2035818159686187
  @DF-UKS Final Energy:  -769.20358225485893
    Total Energy =                       -769.2035822548589294
  @DF-UKS Final Energy:  -769.20358269353449
    Total Energy =                       -769.2035826935344858
  @DF-UKS Final Energy:  -769.20358313183579
    Total Energy =                       -769.2035831318357850
  @DF-UKS Final Energy:  -769.20358356990005
    Total Energy =                       -769.2035835699000472
  @DF-UKS Final Energy:  -769.20358400763450
    Total Energy =                       -769.2035840076345039
  @DF-UKS Final Energy:  -769.20358444513397
    Total Energy =                       -769.2035844451339699
  @DF-UKS Final Energy:  -769.20358488227043
    Total Energy =                       -769.2035848822704338
  @DF-UKS Final Energy:  -769.20358531912154
    Total Energy =                       -769.2035853191214301
  @DF-UKS Final Energy:  -769.20358575570935
    Total Energy =                       -769.2035857557093550
  @DF-UKS Final Energy:  -769.20358619200761
    Total Energy =                       -769.2035861920076059
  @DF-UKS Final Energy:  -769.20358662799947
    Total Energy =                       -769.2035866279994707
  @DF-UKS Final Energy:  -769.20358706366130
    Total Energy =                       -769.2035870636614163
  @DF-UKS Final Energy:  -769.20358749910042
    Total Energy =                       -769.2035874991004221
  @DF-UKS Final Energy:  -769.20358793421997
    Total Energy =                       -769.2035879342198541
  Basis Set: (CC-PVDZ AUX)
    Blend: CC-PVDZ-JKFIT
  Basis Set: CC-PVDZ
    Blend: CC-PVDZ
  Basis Set: (CC-PVDZ AUX)
    Blend: CC-PVDZ-JKFIT
  @DF-UKS Final Energy:  -769.20358836901505
    Total Energy =                       -769.2035883690149376
  Basis Set: CC-PVDZ
    Blend: CC-PVDZ
  Basis Set: (CC-PVDZ AUX)
    Blend: CC-PVDZ-JKFIT
  Charge       = 1
  Multiplicity = 5
  Basis Set: CC-PVDZ
    Blend: CC-PVDZ
  Basis Set: (CC-PVDZ AUX)
    Blend: CC-PVDZ-JKFIT

    Orbital Energies [Eh]
    ---------------------

    Alpha Occupied:

       1A1  -115.633093     2A1   -56.191020     3A1   -11.659288
       4A1    -9.232184     1B2    -9.201895     1B1    -9.201895
       5A1    -4.271250     6A1    -2.826816     2B2    -2.822769
       2B1    -2.822769     7A1    -1.454744     8A1    -0.932812
       3B2    -0.866513     3B1    -0.866513     9A1    -0.441118
       4B2    -0.230907     4B1    -0.230907

    Alpha Virtual:

      10A1    -0.176057    11A1     0.071007     5B1     0.121341
       5B2     0.121341    12A1     0.126383    13A1     0.152031
       1A2     0.152035     6B1     0.155382     6B2     0.155382
      14A1     0.164858    15A1     0.186257     7B2     0.219275
       7B1     0.219275    16A1     0.316444    17A1     0.327497
       8B2     0.337875     8B1     0.337875     2A2     0.389025
      18A1     0.389030

    Beta Occupied:

       1A1  -115.624195     2A1   -56.181895     3A1   -11.650797
       4A1    -9.203913     1B2    -9.196790     1B1    -9.196790
       5A1    -4.257983     6A1    -2.819069     2B2    -2.807558
       2B1    -2.807558     7A1    -1.391900     3B2    -0.846802
       3B1    -0.846802

    Beta Virtual:

       8A1    -0.740701     9A1    -0.279177    10A1    -0.114202
       4B2    -0.083177     4B1    -0.083177    11A1     0.123486
      12A1     0.158411     5B1     0.183097     5B2     0.183097
       6B1     0.226176     6B2     0.226176    13A1     0.229419
      14A1     0.235594     7B2     0.244590     7B1     0.244590
      15A1     0.269842     1A2     0.269844    16A1     0.343744
       2A2     0.399195    17A1     0.399199     8B2     0.404942
       8B1     0.404942    18A1     0.415426

    Final Occupation by Irrep:
             A1    A2    B1    B2
    DOCC [     7,    0,    3,    3 ]
    SOCC [     2,    0,    1,    1 ]
    NA   [     9,    0,    4,    4 ]
    NB   [     7,    0,    3,    3 ]

  @DF-UKS Final Energy:  -769.20383460064158

   => Energetics <=

    Nuclear Repulsion Energy =             16.0534104052556295
    One-Electron Energy =               -1086.6716188776422314
    Two-Electron Energy =                 340.9579642264509971
    DFT Exchange-Correlation Energy =     -39.5435903547060263
    Empirical Dispersion Energy =           0.0000000000000000
    VV10 Nonlocal Energy =                  0.0000000000000000
    Total Energy =                       -769.2038346006416987

  UHF NO Occupations:
  HONO-2 :    4 B2 1.0000000
  HONO-1 :    4 B1 1.0000000
  HONO-0 :    9 A1 1.0000000
  LUNO+0 :   10 A1 0.0008191
  LUNO+1 :    5 B1 0.0000230
  LUNO+2 :    5 B2 0.0000230
  LUNO+3 :   11 A1 0.0000009

Computation Completed

Properties will be evaluated at   0.000000,   0.000000,   0.000000 [a0]

Properties computed using the SCF density matrix

 Multipole Moments:

 ------------------------------------------------------------------------------------
     Multipole            Electronic (a.u.)      Nuclear  (a.u.)        Total (a.u.)
 ------------------------------------------------------------------------------------

 L = 1.  Multiply by 2.5417464519 to convert [e a0] to [Debye]
 Dipole X            :          0.0000000            0.0000000            0.0000000
 Dipole Y            :          0.0000000            0.0000000            0.0000000
 Dipole Z            :        -13.1142449            7.3690234           -5.7452215
 Magnitude           :                                                    5.7452215

 ------------------------------------------------------------------------------------

*** tstop() called on Joses-MacBook-Pro-2.local at Thu Jul 17 15:37:43 2025
Module time:
	user time   =       3.84 seconds =       0.06 minutes
	system time =       3.16 seconds =       0.05 minutes
	total time  =          1 seconds =       0.02 minutes
Total time:
	user time   =     543.12 seconds =       9.05 minutes
	system time =     440.25 seconds =       7.34 minutes
	total time  =         98 seconds =       1.63 minutes

*** tstart() called on Joses-MacBook-Pro-2.local
*** at Thu Jul 17 15:37:43 2025

         ------------------------------------------------------------
                                   SCF GRAD
                          Rob Parrish, Justin Turney,
                       Andy Simmonett, and Alex Sokolov
         ------------------------------------------------------------

  ==> Geometry <==

    Molecular point group: c2v
    Full point group: C_inf_v

    Geometry (in Angstrom), charge = 1, multiplicity = 5:

       Center              X                  Y                   Z               Mass
    ------------   -----------------  -----------------  -----------------  -----------------
         AL           0.000000000000     0.000000000000     4.604578809067    26.981538530000
         AR           0.000000000000     0.000000000000    -3.108889181276    39.962383123700

  Nuclear repulsion =   16.053410405255629

  ==> Basis Set <==

  Basis Set: CC-PVDZ
    Blend: CC-PVDZ
    Number of shells: 16
    Number of basis functions: 36
    Number of Cartesian functions: 38
    Spherical Harmonics?: true
    Max angular momentum: 2

  ==> DFJKGrad: Density-Fitted SCF Gradients <==

    Gradient:                    1
    J tasked:                  Yes
    K tasked:                  Yes
    wK tasked:                  No
    OpenMP threads:              1
    Integrals threads:           1
    Memory [MiB]:              375
    Schwarz Cutoff:          1E-12
    Fitting Condition:       1E-10

   => Auxiliary Basis Set <=

  Basis Set: (CC-PVDZ AUX)
    Blend: CC-PVDZ-JKFIT
    Number of shells: 72
    Number of basis functions: 224
    Number of Cartesian functions: 260
    Spherical Harmonics?: true
    Max angular momentum: 3

  ==> DFT Potential <==

   => LibXC <=

    Version 6.2.2
    S. Lehtola, C. Steigemann, M. J.T. Oliveira, and M. A.L. Marques.,  SoftwareX 7, 1â€“5 (2018) (10.1016/j.softx.2017.11.002)

   => Composite Functional: B3LYP <=

    B3LYP Hyb-GGA Exchange-Correlation Functional

    P. J. Stephens, F. J. Devlin, C. F. Chabalowski, and M. J. Frisch.,  J. Phys. Chem. 98, 11623 (1994) (10.1021/j100096a001)

    Deriv               =              1
    GGA                 =           TRUE
    Meta                =          FALSE

    Exchange Hybrid     =           TRUE
    MP2 Hybrid          =          FALSE

   => Exchange Functionals <=

    0.0800   Slater exchange
    0.7200         Becke 88

   => Exact (HF) Exchange <=

    0.2000               HF

   => Correlation Functionals <=

    0.1900   Vosko, Wilk & Nusair (VWN5_RPA)
    0.8100   Lee, Yang & Parr

   => LibXC Density Thresholds  <==

    XC_HYB_GGA_XC_B3LYP:  1.00E-15

   => Molecular Quadrature <=

    Radial Scheme          =       TREUTLER
    Pruning Scheme         =           NONE
    Nuclear Scheme         =       TREUTLER

    Blocking Scheme        =         OCTREE
    BS radius alpha        =              1
    Pruning alpha          =              1
    Radial Points          =             75
    Spherical Points       =            302
    Total Points           =          42914
    Total Blocks           =            455
    Max Points             =            250
    Max Functions          =             36
    Weights Tolerance      =       1.00E-15

  -Total Gradient:
     Atom            X                  Y                   Z
    ------   -----------------  -----------------  -----------------
       1        0.000000000000     0.000000000000    -0.000252853730
       2        0.000000000000     0.000000000000     0.000253787587

*** tstop() called on Joses-MacBook-Pro-2.local at Thu Jul 17 15:37:43 2025
Module time:
	user time   =       1.59 seconds =       0.03 minutes
	system time =       1.34 seconds =       0.02 minutes
	total time  =          0 seconds =       0.00 minutes
Total time:
	user time   =     544.78 seconds =       9.08 minutes
	system time =     441.61 seconds =       7.36 minutes
	total time  =         98 seconds =       1.63 minutes

    			-----------------------------------------

    			 OPTKING 3.0: for geometry optimizations

    			     By R.A. King, Bethel University

    			        with contributions from

    			    A.V. Copan, J. Cayton, A. Heide

    			-----------------------------------------

	                            ===> Fragment 1 <==

	 Z (Atomic Numbers)          Masses                          Geom
	      13.000000            26.981539          0.00000000  0.00000000  8.70139287
	      18.000000            39.962383          0.00000000  0.00000000 -5.87494911

	 - Coordinate -           - BOHR/RAD -       - ANG/DEG -
	 R(1,2)           =        14.576342           7.713468

	        --- Internal Coordinate Step in ANG or DEG, aJ/ANG or AJ/DEG ---
	-------------------------------------------------------------------------------
	           Coordinate      Previous         Force          Change          New
	           ----------      --------        ------          ------        ------
	               R(1,2)       7.71347        0.00209        0.00062       7.71409
	-------------------------------------------------------------------------------

	                                 ==> Convergence Check <==

	Measures of convergence in internal coordinates in au.

	Criteria marked as inactive (o), active & met (*), and active & unmet ( ).

	----------------------------------------------------------------------------------------------
	   Step    Total Energy     Delta E     Max Force     RMS Force      Max Disp      RMS Disp
	----------------------------------------------------------------------------------------------
	  Convergence Criteria     1.00e-06 *    3.00e-04 *             o    1.20e-03 *             o
	----------------------------------------------------------------------------------------------
	   105    -769.20383460   -2.46e-04      2.53e-04 *    2.53e-04 o    1.17e-03 *    1.17e-03 o  ~
	----------------------------------------------------------------------------------------------

Next Geometry in Ang
	Fragment 1 (Ang)

	   Al   0.0000000000   0.0000000000   4.6048886349
	   Ar   0.0000000000   0.0000000000  -3.1091990071

    Final optimized geometry and variables:
    Molecular point group: c2v
    Full point group: C_inf_v

    Geometry (in Angstrom), charge = 1, multiplicity = 5:

    AL           0.000000000000     0.000000000000     4.604578809067
    AR           0.000000000000     0.000000000000    -3.108889181276

    Psi4 stopped on: Thursday, 17 July 2025 03:37PM
    Psi4 wall time for execution: 0:01:38.69

*** Psi4 exiting successfully. Buy a developer a beer!
