                               Psi4 1.9.1 release

  ==> Input File <==

--------------------------------------------------------------------------
molecule {
1 5
Si   0.00000        0.60000        0.00000
P   0.00000       -0.60000        0.00000
}

set {
basis              cc-pvdz
reference          uks
maxiter            500
geom_maxiter       500
DAMPING_PERCENTAGE 1
guess              SAP
}

optimize('b3lyp')
--------------------------------------------------------------------------

    Molecular point group: c2v
  Charge       = 1
  Multiplicity = 5
  Basis Set: CC-PVDZ
    Blend: CC-PVDZ
  Basis Set: (CC-PVDZ AUX)
    Blend: CC-PVDZ-JKFIT
  @DF-UKS Final Energy:  -628.96377984083006
    Total Energy =                       -628.9637798408300569
 Dipole X            :          0.0000000            0.0000000            0.0000000
 Dipole Y            :          0.0000000            0.0000000            0.0000000
 Dipole Z            :         -0.8497165            0.5377250           -0.3119916
 Magnitude           :                                                    0.3119916
    Molecular point group: c2v
  Basis Set: CC-PVDZ
    Blend: CC-PVDZ
  Basis Set: (CC-PVDZ AUX)
    Blend: CC-PVDZ-JKFIT
  Basis Set: CC-PVDZ
    Blend: CC-PVDZ
  Basis Set: (CC-PVDZ AUX)
    Blend: CC-PVDZ-JKFIT
  @DF-UKS Final Energy:  -628.99443790048826
    Total Energy =                       -628.9944379004881512
  Basis Set: CC-PVDZ
    Blend: CC-PVDZ
  Basis Set: (CC-PVDZ AUX)
    Blend: CC-PVDZ-JKFIT
  Basis Set: CC-PVDZ
    Blend: CC-PVDZ
  @DF-UKS Final Energy:  -629.05275220442513
    Total Energy =                       -629.0527522044251327
  @DF-UKS Final Energy:  -629.25505452809466
    Total Energy =                       -629.2550545280946608
  @DF-UKS Final Energy:  -629.87422190127756
    Total Energy =                       -629.8742219012775649
  @DF-UKS Final Energy:  -630.15423464570199
    Total Energy =                       -630.1542346457019903
  @DF-UKS Final Energy:  -630.30523191138195
    Total Energy =                       -630.3052319113819522
  @DF-UKS Final Energy:  -630.36202619054586
    Total Energy =                       -630.3620261905458619
  @DF-UKS Final Energy:  -630.39025294715668
    Total Energy =                       -630.3902529471565686
  @DF-UKS Final Energy:  -630.40242817161811
    Total Energy =                       -630.4024281716182259
  @DF-UKS Final Energy:  -630.40730651690876
    Total Energy =                       -630.4073065169087613
  @DF-UKS Final Energy:  -630.40859200251441
    Total Energy =                       -630.4085920025144105
  @DF-UKS Final Energy:  -630.40909273654574
    Total Energy =                       -630.4090927365457446
  @DF-UKS Final Energy:  -630.40919240853100
    Total Energy =                       -630.4091924085309984
  @DF-UKS Final Energy:  -630.40921419733286
    Total Energy =                       -630.4092141973328580
  Basis Set: (CC-PVDZ AUX)
    Blend: CC-PVDZ-JKFIT
  Basis Set: CC-PVDZ
    Blend: CC-PVDZ
  Basis Set: (CC-PVDZ AUX)
    Blend: CC-PVDZ-JKFIT
  @DF-UKS Final Energy:  -630.40922003722858
    Total Energy =                       -630.4092200372285788
  Basis Set: CC-PVDZ
    Blend: CC-PVDZ
  Basis Set: (CC-PVDZ AUX)
    Blend: CC-PVDZ-JKFIT
  Charge       = 1
  Multiplicity = 5
  Basis Set: CC-PVDZ
    Blend: CC-PVDZ
  Basis Set: (CC-PVDZ AUX)
    Blend: CC-PVDZ-JKFIT

    Orbital Energies [Eh]
    ---------------------

    Alpha Occupied:

       1A1   -77.386548     2A1   -66.457700     3A1    -6.852620
       4A1    -5.595498     5A1    -5.016254     1B1    -5.015932
       1B2    -5.015204     2B1    -3.956292     6A1    -3.954842
       2B2    -3.952150     7A1    -0.866211     8A1    -0.704342
       9A1    -0.525075     3B2    -0.508325     3B1    -0.503980
       4B2    -0.418143

    Alpha Virtual:

       4B1    -0.354340    10A1    -0.276310    11A1    -0.003970
       5B2     0.040785     5B1     0.045905    12A1     0.049344
       6B2     0.088171     1A2     0.093532     6B1     0.093908
      13A1     0.098048    14A1     0.119229     7B1     0.187076
       7B2     0.188676     2A2     0.195862    15A1     0.196213
      16A1     0.212075    17A1     0.282038     8B2     0.316792
       8B1     0.318217    18A1     0.597333

    Beta Occupied:

       1A1   -77.375150     2A1   -66.452301     3A1    -6.840491
       4A1    -5.589259     5A1    -5.001197     1B1    -4.997683
       1B2    -4.995169     2B1    -3.952200     6A1    -3.947809
       2B2    -3.937646     7A1    -0.768873     8A1    -0.633788

    Beta Virtual:

       9A1    -0.408278     3B1    -0.379670     3B2    -0.364552
       4B1    -0.310336     4B2    -0.285822    10A1    -0.222136
      11A1     0.028317    12A1     0.075301     5B1     0.090874
       6B1     0.105223     5B2     0.112153     6B2     0.126408
      13A1     0.146351     1A2     0.149347    14A1     0.160157
       7B1     0.235188     7B2     0.240486    15A1     0.256716
       2A2     0.290170    16A1     0.290277    17A1     0.322255
       8B1     0.375594     8B2     0.387731    18A1     0.645221

    Final Occupation by Irrep:
             A1    A2    B1    B2
    DOCC [     8,    0,    2,    2 ]
    SOCC [     1,    0,    1,    2 ]
    NA   [     9,    0,    3,    4 ]
    NB   [     8,    0,    2,    2 ]

  @DF-UKS Final Energy:  -630.40922062034292

   => Energetics <=

    Nuclear Repulsion Energy =             43.3866402856166573
    One-Electron Energy =                -951.2600570690510722
    Two-Electron Energy =                 312.7210032650741027
    DFT Exchange-Correlation Energy =     -35.2568071019825737
    Empirical Dispersion Energy =           0.0000000000000000
    VV10 Nonlocal Energy =                  0.0000000000000000
    Total Energy =                       -630.4092206203429214

  UHF NO Occupations:
  HONO-2 :    3 B1 1.0000000
  HONO-1 :    4 B2 1.0000000
  HONO-0 :    9 A1 1.0000000
  LUNO+0 :   10 A1 0.0018828
  LUNO+1 :   11 A1 0.0001848
  LUNO+2 :   12 A1 0.0000001
  LUNO+3 :    4 B1 0.0000001

Computation Completed

Properties will be evaluated at   0.000000,   0.000000,   0.000000 [a0]

Properties computed using the SCF density matrix

 Multipole Moments:

 ------------------------------------------------------------------------------------
     Multipole            Electronic (a.u.)      Nuclear  (a.u.)        Total (a.u.)
 ------------------------------------------------------------------------------------

 L = 1.  Multiply by 2.5417464519 to convert [e a0] to [Debye]
 Dipole X            :          0.0000000            0.0000000            0.0000000
 Dipole Y            :          0.0000000            0.0000000            0.0000000
 Dipole Z            :         -0.5547745            1.1477396            0.5929650
 Magnitude           :                                                    0.5929650

 ------------------------------------------------------------------------------------

*** tstop() called on Joses-MacBook-Pro-2.local at Thu Jul 17 15:40:42 2025
Module time:
	user time   =       7.42 seconds =       0.12 minutes
	system time =       2.21 seconds =       0.04 minutes
	total time  =          1 seconds =       0.02 minutes
Total time:
	user time   =     199.77 seconds =       3.33 minutes
	system time =      52.87 seconds =       0.88 minutes
	total time  =         24 seconds =       0.40 minutes

*** tstart() called on Joses-MacBook-Pro-2.local
*** at Thu Jul 17 15:40:42 2025

         ------------------------------------------------------------
                                   SCF GRAD
                          Rob Parrish, Justin Turney,
                       Andy Simmonett, and Alex Sokolov
         ------------------------------------------------------------

  ==> Geometry <==

    Molecular point group: c2v
    Full point group: C_inf_v

    Geometry (in Angstrom), charge = 1, multiplicity = 5:

       Center              X                  Y                   Z               Mass
    ------------   -----------------  -----------------  -----------------  -----------------
         SI           0.000000000000     0.000000000000     1.345765781351    27.976926534650
         P            0.000000000000     0.000000000000    -1.215557554799    30.973761998420

  Nuclear repulsion =   43.386640285616657

  ==> Basis Set <==

  Basis Set: CC-PVDZ
    Blend: CC-PVDZ
    Number of shells: 16
    Number of basis functions: 36
    Number of Cartesian functions: 38
    Spherical Harmonics?: true
    Max angular momentum: 2

  ==> DFJKGrad: Density-Fitted SCF Gradients <==

    Gradient:                    1
    J tasked:                  Yes
    K tasked:                  Yes
    wK tasked:                  No
    OpenMP threads:              1
    Integrals threads:           1
    Memory [MiB]:              375
    Schwarz Cutoff:          1E-12
    Fitting Condition:       1E-10

   => Auxiliary Basis Set <=

  Basis Set: (CC-PVDZ AUX)
    Blend: CC-PVDZ-JKFIT
    Number of shells: 72
    Number of basis functions: 224
    Number of Cartesian functions: 260
    Spherical Harmonics?: true
    Max angular momentum: 3

  ==> DFT Potential <==

   => LibXC <=

    Version 6.2.2
    S. Lehtola, C. Steigemann, M. J.T. Oliveira, and M. A.L. Marques.,  SoftwareX 7, 1â€“5 (2018) (10.1016/j.softx.2017.11.002)

   => Composite Functional: B3LYP <=

    B3LYP Hyb-GGA Exchange-Correlation Functional

    P. J. Stephens, F. J. Devlin, C. F. Chabalowski, and M. J. Frisch.,  J. Phys. Chem. 98, 11623 (1994) (10.1021/j100096a001)

    Deriv               =              1
    GGA                 =           TRUE
    Meta                =          FALSE

    Exchange Hybrid     =           TRUE
    MP2 Hybrid          =          FALSE

   => Exchange Functionals <=

    0.0800   Slater exchange
    0.7200         Becke 88

   => Exact (HF) Exchange <=

    0.2000               HF

   => Correlation Functionals <=

    0.1900   Vosko, Wilk & Nusair (VWN5_RPA)
    0.8100   Lee, Yang & Parr

   => LibXC Density Thresholds  <==

    XC_HYB_GGA_XC_B3LYP:  1.00E-15

   => Molecular Quadrature <=

    Radial Scheme          =       TREUTLER
    Pruning Scheme         =           NONE
    Nuclear Scheme         =       TREUTLER

    Blocking Scheme        =         OCTREE
    BS radius alpha        =              1
    Pruning alpha          =              1
    Radial Points          =             75
    Spherical Points       =            302
    Total Points           =          41650
    Total Blocks           =            384
    Max Points             =            255
    Max Functions          =             36
    Weights Tolerance      =       1.00E-15

  -Total Gradient:
     Atom            X                  Y                   Z
    ------   -----------------  -----------------  -----------------
       1        0.000000000000    -0.000000000000    -0.000034565733
       2        0.000000000000    -0.000000000000     0.000048754958

*** tstop() called on Joses-MacBook-Pro-2.local at Thu Jul 17 15:40:42 2025
Module time:
	user time   =       2.26 seconds =       0.04 minutes
	system time =       1.40 seconds =       0.02 minutes
	total time  =          0 seconds =       0.00 minutes
Total time:
	user time   =     202.03 seconds =       3.37 minutes
	system time =      54.27 seconds =       0.90 minutes
	total time  =         24 seconds =       0.40 minutes

    			-----------------------------------------

    			 OPTKING 3.0: for geometry optimizations

    			     By R.A. King, Bethel University

    			        with contributions from

    			    A.V. Copan, J. Cayton, A. Heide

    			-----------------------------------------

	                            ===> Fragment 1 <==

	 Z (Atomic Numbers)          Masses                          Geom
	      14.000000            27.976927          0.00000000  0.00000000  2.54312876
	      15.000000            30.973762          0.00000000  0.00000000 -2.29707087

	 - Coordinate -           - BOHR/RAD -       - ANG/DEG -
	 R(1,2)           =         4.840200           2.561323

	        --- Internal Coordinate Step in ANG or DEG, aJ/ANG or AJ/DEG ---
	-------------------------------------------------------------------------------
	           Coordinate      Previous         Force          Change          New
	           ----------      --------        ------          ------        ------
	               R(1,2)       2.56132        0.00034        0.00063       2.56196
	-------------------------------------------------------------------------------

	                                 ==> Convergence Check <==

	Measures of convergence in internal coordinates in au.

	Criteria marked as inactive (o), active & met (*), and active & unmet ( ).

	----------------------------------------------------------------------------------------------
	   Step    Total Energy     Delta E     Max Force     RMS Force      Max Disp      RMS Disp
	----------------------------------------------------------------------------------------------
	  Convergence Criteria     1.00e-06 *    3.00e-04 *             o    1.20e-03 *             o
	----------------------------------------------------------------------------------------------
	    17    -630.40922062   -5.83e-07 *    4.17e-05 *    4.17e-05 o    1.20e-03 *    1.20e-03 o  ~
	----------------------------------------------------------------------------------------------

Next Geometry in Ang
	Fragment 1 (Ang)

	   Si   0.0000000000   0.0000000000   1.3460832062
	    P   0.0000000000   0.0000000000  -1.2158749796

    Final optimized geometry and variables:
    Molecular point group: c2v
    Full point group: C_inf_v

    Geometry (in Angstrom), charge = 1, multiplicity = 5:

    SI           0.000000000000     0.000000000000     1.345765781351
    P            0.000000000000     0.000000000000    -1.215557554799

    Psi4 stopped on: Thursday, 17 July 2025 03:40PM
    Psi4 wall time for execution: 0:00:24.83

*** Psi4 exiting successfully. Buy a developer a beer!
