                               Psi4 1.9.1 release

  ==> Input File <==

--------------------------------------------------------------------------
molecule {
1 5
Na   0.00000        0.60000        0.00000
S   0.00000       -0.60000        0.00000
}

set {
basis              cc-pvdz
reference          uks
maxiter            500
geom_maxiter       500
DAMPING_PERCENTAGE 1
guess              SAP
}

optimize('b3lyp')
--------------------------------------------------------------------------

    Molecular point group: c2v
  Charge       = 1
  Multiplicity = 5
  Basis Set: CC-PVDZ
    Blend: CC-PVDZ
  Basis Set: (CC-PVDZ AUX)
    Blend: CC-PVDZ-JKFIT + DEF2-UNIVERSAL-JKFIT
  @DF-UKS Final Energy:  -558.89250137410784
    Total Energy =                       -558.8925013741078374
 Dipole X            :          0.0000000            0.0000000            0.0000000
 Dipole Y            :          0.0000000            0.0000000            0.0000000
 Dipole Z            :         -0.1985624           -0.6660660           -0.8646284
 Magnitude           :                                                    0.8646284
    Molecular point group: c2v
  Basis Set: CC-PVDZ
    Blend: CC-PVDZ
  Basis Set: (CC-PVDZ AUX)
    Blend: CC-PVDZ-JKFIT + DEF2-UNIVERSAL-JKFIT
  Basis Set: CC-PVDZ
    Blend: CC-PVDZ
  Basis Set: (CC-PVDZ AUX)
    Blend: CC-PVDZ-JKFIT + DEF2-UNIVERSAL-JKFIT
  @DF-UKS Final Energy:  -558.90753502346763
    Total Energy =                       -558.9075350234676307
  Basis Set: CC-PVDZ
    Blend: CC-PVDZ
  Basis Set: (CC-PVDZ AUX)
    Blend: CC-PVDZ-JKFIT + DEF2-UNIVERSAL-JKFIT
  Basis Set: CC-PVDZ
    Blend: CC-PVDZ
  @DF-UKS Final Energy:  -558.93652298338270
    Total Energy =                       -558.9365229833827016
  @DF-UKS Final Energy:  -559.04128783256226
    Total Energy =                       -559.0412878325622614
  @DF-UKS Final Energy:  -559.48691866402692
    Total Energy =                       -559.4869186640270300
  @DF-UKS Final Energy:  -559.70021524756612
    Total Energy =                       -559.7002152475661205
  @DF-UKS Final Energy:  -559.82915885563739
    Total Energy =                       -559.8291588556375018
  @DF-UKS Final Energy:  -559.90015791844837
    Total Energy =                       -559.9001579184483717
  @DF-UKS Final Energy:  -559.94459873067694
    Total Energy =                       -559.9445987306769439
  @DF-UKS Final Energy:  -559.97668389322871
    Total Energy =                       -559.9766838932288238
  @DF-UKS Final Energy:  -560.00221669310156
    Total Energy =                       -560.0022166931016727
  @DF-UKS Final Energy:  -560.00433707662705
    Total Energy =                       -560.0043370766270527
  @DF-UKS Final Energy:  -560.02317980949238
    Total Energy =                       -560.0231798094923761
  @DF-UKS Final Energy:  -560.02401910127242
    Total Energy =                       -560.0240191012723017
  @DF-UKS Final Energy:  -560.03369564514458
    Total Energy =                       -560.0336956451444621
  @DF-UKS Final Energy:  -560.03395801724071
    Total Energy =                       -560.0339580172407068
  @DF-UKS Final Energy:  -560.03815556381801
    Total Energy =                       -560.0381555638178952
  @DF-UKS Final Energy:  -560.03821628034029
    Total Energy =                       -560.0382162803401798
  @DF-UKS Final Energy:  -560.03966254052125
    Total Energy =                       -560.0396625405212490
  @DF-UKS Final Energy:  -560.03993894230712
    Total Energy =                       -560.0399389423072307
  @DF-UKS Final Energy:  -560.03998060093420
    Total Energy =                       -560.0399806009342001
  Basis Set: (CC-PVDZ AUX)
    Blend: CC-PVDZ-JKFIT + DEF2-UNIVERSAL-JKFIT
  Basis Set: CC-PVDZ
    Blend: CC-PVDZ
  Basis Set: (CC-PVDZ AUX)
    Blend: CC-PVDZ-JKFIT + DEF2-UNIVERSAL-JKFIT
  @DF-UKS Final Energy:  -560.03998204621303
    Total Energy =                       -560.0399820462130265
  Basis Set: CC-PVDZ
    Blend: CC-PVDZ
  Basis Set: (CC-PVDZ AUX)
    Blend: CC-PVDZ-JKFIT + DEF2-UNIVERSAL-JKFIT
  Charge       = 1
  Multiplicity = 5
  Basis Set: CC-PVDZ
    Blend: CC-PVDZ
  Basis Set: (CC-PVDZ AUX)
    Blend: CC-PVDZ-JKFIT + DEF2-UNIVERSAL-JKFIT

    Orbital Energies [Eh]
    ---------------------

    Alpha Occupied:

       1A1   -89.345720     2A1   -38.607190     3A1    -8.397483
       1B1    -6.362298     1B2    -6.362298     4A1    -6.362253
       5A1    -2.351811     2B2    -1.282702     2B1    -1.282702
       6A1    -1.282590     7A1    -1.102138     3B1    -0.673982
       3B2    -0.673982     8A1    -0.673127     9A1    -0.255476

    Alpha Virtual:

      10A1    -0.140192     4B2    -0.126910     4B1    -0.126910
      11A1    -0.076373    12A1    -0.023584     5B2    -0.023460
       5B1    -0.023460    13A1     0.025329     6B1     0.036053
       6B2     0.036053     1A2     0.051233    14A1     0.051233
      15A1     0.168491     7B2     0.174410     7B1     0.174410
      16A1     0.177256     2A2     0.177335     8B2     0.186258
       8B1     0.186258    17A1     0.190288    18A1     0.288362

    Beta Occupied:

       1A1   -89.326827     2A1   -38.605813     3A1    -8.378376
       1B1    -6.333977     1B2    -6.333977     4A1    -6.333726
       5A1    -2.349100     2B2    -1.280989     2B1    -1.280989
       6A1    -1.280502     7A1    -0.954836

    Beta Virtual:

       3B1    -0.490371     3B2    -0.490371     8A1    -0.489373
       9A1    -0.186053    10A1    -0.120984     4B2    -0.102875
       4B1    -0.102875    11A1    -0.048629    12A1    -0.014403
       5B2    -0.010544     5B1    -0.010544    13A1     0.051527
       6B2     0.063365     6B1     0.063365     1A2     0.072407
      14A1     0.072410    15A1     0.220827     7B2     0.227476
       7B1     0.227476    16A1     0.292271    17A1     0.295805
       2A2     0.295892     8B2     0.298937     8B1     0.298937
      18A1     0.344708

    Final Occupation by Irrep:
             A1    A2    B1    B2
    DOCC [     7,    0,    2,    2 ]
    SOCC [     2,    0,    1,    1 ]
    NA   [     9,    0,    3,    3 ]
    NB   [     7,    0,    2,    2 ]

  @DF-UKS Final Energy:  -560.03998208495693

   => Energetics <=

    Nuclear Repulsion Energy =             21.2035511630653417
    One-Electron Energy =                -812.1783630734853432
    Two-Electron Energy =                 262.9811182173432940
    DFT Exchange-Correlation Energy =     -32.0462883918801680
    Empirical Dispersion Energy =           0.0000000000000000
    VV10 Nonlocal Energy =                  0.0000000000000000
    Total Energy =                       -560.0399820849568187

  UHF NO Occupations:
  HONO-2 :    3 B2 1.0000000
  HONO-1 :    3 B1 1.0000000
  HONO-0 :    9 A1 1.0000000
  LUNO+0 :   10 A1 0.0002105
  LUNO+1 :   11 A1 0.0000013
  LUNO+2 :    4 B1 0.0000007
  LUNO+3 :    4 B2 0.0000007

Computation Completed

Properties will be evaluated at   0.000000,   0.000000,   0.000000 [a0]

Properties computed using the SCF density matrix

 Multipole Moments:

 ------------------------------------------------------------------------------------
     Multipole            Electronic (a.u.)      Nuclear  (a.u.)        Total (a.u.)
 ------------------------------------------------------------------------------------

 L = 1.  Multiply by 2.5417464519 to convert [e a0] to [Debye]
 Dipole X            :          0.0000000            0.0000000            0.0000000
 Dipole Y            :          0.0000000            0.0000000            0.0000000
 Dipole Z            :          0.7005669           -2.4380420           -1.7374751
 Magnitude           :                                                    1.7374751

 ------------------------------------------------------------------------------------

*** tstop() called on Joses-MacBook-Pro-2.local at Thu Jul 17 14:59:48 2025
Module time:
	user time   =       4.85 seconds =       0.08 minutes
	system time =       2.70 seconds =       0.05 minutes
	total time  =          1 seconds =       0.02 minutes
Total time:
	user time   =     278.02 seconds =       4.63 minutes
	system time =      79.34 seconds =       1.32 minutes
	total time  =         35 seconds =       0.58 minutes

*** tstart() called on Joses-MacBook-Pro-2.local
*** at Thu Jul 17 14:59:48 2025

         ------------------------------------------------------------
                                   SCF GRAD
                          Rob Parrish, Justin Turney,
                       Andy Simmonett, and Alex Sokolov
         ------------------------------------------------------------

  ==> Geometry <==

    Molecular point group: c2v
    Full point group: C_inf_v

    Geometry (in Angstrom), charge = 1, multiplicity = 5:

       Center              X                  Y                   Z               Mass
    ------------   -----------------  -----------------  -----------------  -----------------
         NA           0.000000000000     0.000000000000     2.555140007596    22.989769282000
         S            0.000000000000     0.000000000000    -1.837293522131    31.972071174400

  Nuclear repulsion =   21.203551163065342

  ==> Basis Set <==

  Basis Set: CC-PVDZ
    Blend: CC-PVDZ
    Number of shells: 16
    Number of basis functions: 36
    Number of Cartesian functions: 38
    Spherical Harmonics?: true
    Max angular momentum: 2

  ==> DFJKGrad: Density-Fitted SCF Gradients <==

    Gradient:                    1
    J tasked:                  Yes
    K tasked:                  Yes
    wK tasked:                  No
    OpenMP threads:              1
    Integrals threads:           1
    Memory [MiB]:              375
    Schwarz Cutoff:          1E-12
    Fitting Condition:       1E-10

   => Auxiliary Basis Set <=

  Basis Set: (CC-PVDZ AUX)
    Blend: CC-PVDZ-JKFIT + DEF2-UNIVERSAL-JKFIT
    Number of shells: 70
    Number of basis functions: 224
    Number of Cartesian functions: 267
    Spherical Harmonics?: true
    Max angular momentum: 4

  ==> DFT Potential <==

   => LibXC <=

    Version 6.2.2
    S. Lehtola, C. Steigemann, M. J.T. Oliveira, and M. A.L. Marques.,  SoftwareX 7, 1â€“5 (2018) (10.1016/j.softx.2017.11.002)

   => Composite Functional: B3LYP <=

    B3LYP Hyb-GGA Exchange-Correlation Functional

    P. J. Stephens, F. J. Devlin, C. F. Chabalowski, and M. J. Frisch.,  J. Phys. Chem. 98, 11623 (1994) (10.1021/j100096a001)

    Deriv               =              1
    GGA                 =           TRUE
    Meta                =          FALSE

    Exchange Hybrid     =           TRUE
    MP2 Hybrid          =          FALSE

   => Exchange Functionals <=

    0.0800   Slater exchange
    0.7200         Becke 88

   => Exact (HF) Exchange <=

    0.2000               HF

   => Correlation Functionals <=

    0.1900   Vosko, Wilk & Nusair (VWN5_RPA)
    0.8100   Lee, Yang & Parr

   => LibXC Density Thresholds  <==

    XC_HYB_GGA_XC_B3LYP:  1.00E-15

   => Molecular Quadrature <=

    Radial Scheme          =       TREUTLER
    Pruning Scheme         =           NONE
    Nuclear Scheme         =       TREUTLER

    Blocking Scheme        =         OCTREE
    BS radius alpha        =              1
    Pruning alpha          =              1
    Radial Points          =             75
    Spherical Points       =            302
    Total Points           =          43918
    Total Blocks           =            456
    Max Points             =            256
    Max Functions          =             36
    Weights Tolerance      =       1.00E-15

  -Total Gradient:
     Atom            X                  Y                   Z
    ------   -----------------  -----------------  -----------------
       1        0.000000000000     0.000000000000     0.000002914663
       2        0.000000000000    -0.000000000000     0.000010124102

*** tstop() called on Joses-MacBook-Pro-2.local at Thu Jul 17 14:59:48 2025
Module time:
	user time   =       1.93 seconds =       0.03 minutes
	system time =       1.94 seconds =       0.03 minutes
	total time  =          0 seconds =       0.00 minutes
Total time:
	user time   =     279.95 seconds =       4.67 minutes
	system time =      81.29 seconds =       1.35 minutes
	total time  =         35 seconds =       0.58 minutes

    			-----------------------------------------

    			 OPTKING 3.0: for geometry optimizations

    			     By R.A. King, Bethel University

    			        with contributions from

    			    A.V. Copan, J. Cayton, A. Heide

    			-----------------------------------------

	                            ===> Fragment 1 <==

	 Z (Atomic Numbers)          Masses                          Geom
	      11.000000            22.989769          0.00000000  0.00000000  4.82851483
	      16.000000            31.972071          0.00000000  0.00000000 -3.47198157

	 - Coordinate -           - BOHR/RAD -       - ANG/DEG -
	 R(1,2)           =         8.300496           4.392434

	        --- Internal Coordinate Step in ANG or DEG, aJ/ANG or AJ/DEG ---
	-------------------------------------------------------------------------------
	           Coordinate      Previous         Force          Change          New
	           ----------      --------        ------          ------        ------
	               R(1,2)       4.39243        0.00003        0.00048       4.39291
	-------------------------------------------------------------------------------

	                                 ==> Convergence Check <==

	Measures of convergence in internal coordinates in au.

	Criteria marked as inactive (o), active & met (*), and active & unmet ( ).

	----------------------------------------------------------------------------------------------
	   Step    Total Energy     Delta E     Max Force     RMS Force      Max Disp      RMS Disp
	----------------------------------------------------------------------------------------------
	  Convergence Criteria     1.00e-06 *    3.00e-04 *             o    1.20e-03 *             o
	----------------------------------------------------------------------------------------------
	    23    -560.03998208   -3.87e-08 *    3.60e-06 *    3.60e-06 o    9.01e-04 *    9.01e-04 o  ~
	----------------------------------------------------------------------------------------------

Next Geometry in Ang
	Fragment 1 (Ang)

	   Na   0.0000000000   0.0000000000   2.5553784327
	    S   0.0000000000   0.0000000000  -1.8375319472

    Final optimized geometry and variables:
    Molecular point group: c2v
    Full point group: C_inf_v

    Geometry (in Angstrom), charge = 1, multiplicity = 5:

    NA           0.000000000000     0.000000000000     2.555140007596
    S            0.000000000000     0.000000000000    -1.837293522131

    Psi4 stopped on: Thursday, 17 July 2025 02:59PM
    Psi4 wall time for execution: 0:00:36.08

*** Psi4 exiting successfully. Buy a developer a beer!
