                               Psi4 1.9.1 release

  ==> Input File <==

--------------------------------------------------------------------------
molecule {
1 5
O   0.00000        0.60000        0.00000
P   0.00000       -0.60000        0.00000
}

set {
basis              cc-pvdz
reference          uks
maxiter            500
geom_maxiter       500
DAMPING_PERCENTAGE 1
guess              SAP
}

optimize('b3lyp')
--------------------------------------------------------------------------

    Molecular point group: c2v
  Charge       = 1
  Multiplicity = 5
  Basis Set: CC-PVDZ
    Blend: CC-PVDZ
  Basis Set: (CC-PVDZ AUX)
    Blend: CC-PVDZ-JKFIT
  @DF-UKS Final Energy:  -415.55187127712367
    Total Energy =                       -415.5518712771236665
 Dipole X            :          0.0000000            0.0000000            0.0000000
 Dipole Y            :          0.0000000            0.0000000            0.0000000
 Dipole Z            :         -0.4320551            0.3797926           -0.0522625
 Magnitude           :                                                    0.0522625
    Molecular point group: c2v
  Basis Set: CC-PVDZ
    Blend: CC-PVDZ
  Basis Set: (CC-PVDZ AUX)
    Blend: CC-PVDZ-JKFIT
  Basis Set: CC-PVDZ
    Blend: CC-PVDZ
  Basis Set: (CC-PVDZ AUX)
    Blend: CC-PVDZ-JKFIT
  @DF-UKS Final Energy:  -415.69953229427352
    Total Energy =                       -415.6995322942735243
  Basis Set: CC-PVDZ
    Blend: CC-PVDZ
  Basis Set: (CC-PVDZ AUX)
    Blend: CC-PVDZ-JKFIT
  Basis Set: CC-PVDZ
    Blend: CC-PVDZ
  @DF-UKS Final Energy:  -415.86714010252376
    Total Energy =                       -415.8671401025237628
  @DF-UKS Final Energy:  -415.93113355595614
    Total Energy =                       -415.9311335559561371
  @DF-UKS Final Energy:  -415.96059298014882
    Total Energy =                       -415.9605929801488173
  @DF-UKS Final Energy:  -415.96796225503317
    Total Energy =                       -415.9679622550332283
  @DF-UKS Final Energy:  -415.97305979486015
    Total Energy =                       -415.9730597948601485
  @DF-UKS Final Energy:  -415.97621989427205
    Total Energy =                       -415.9762198942721056
  @DF-UKS Final Energy:  -415.97736913118098
    Total Energy =                       -415.9773691311809785
  @DF-UKS Final Energy:  -415.97797861907549
    Total Energy =                       -415.9779786190754294
  @DF-UKS Final Energy:  -415.97821190482028
    Total Energy =                       -415.9782119048202844
  @DF-UKS Final Energy:  -415.97833177564269
    Total Energy =                       -415.9783317756426868
  @DF-UKS Final Energy:  -415.97837658104214
    Total Energy =                       -415.9783765810421414
  Basis Set: (CC-PVDZ AUX)
    Blend: CC-PVDZ-JKFIT
  Basis Set: CC-PVDZ
    Blend: CC-PVDZ
  Basis Set: (CC-PVDZ AUX)
    Blend: CC-PVDZ-JKFIT
  @DF-UKS Final Energy:  -415.97838544568214
    Total Energy =                       -415.9783854456821928
  Basis Set: CC-PVDZ
    Blend: CC-PVDZ
  Basis Set: (CC-PVDZ AUX)
    Blend: CC-PVDZ-JKFIT
  Charge       = 1
  Multiplicity = 5
  Basis Set: CC-PVDZ
    Blend: CC-PVDZ
  Basis Set: (CC-PVDZ AUX)
    Blend: CC-PVDZ-JKFIT

    Orbital Energies [Eh]
    ---------------------

    Alpha Occupied:

       1A1   -77.504580     2A1   -19.610660     3A1    -6.964340
       4A1    -5.130810     1B2    -5.126219     1B1    -5.125564
       5A1    -1.336597     6A1    -0.930901     2B2    -0.763612
       7A1    -0.762467     2B1    -0.692131     3B2    -0.563508
       3B1    -0.556964

    Alpha Virtual:

       8A1    -0.420849     9A1     0.059026    10A1     0.099643
       4B2     0.107493     4B1     0.113422     1A2     0.116026
      11A1     0.116061     5B2     0.130279     5B1     0.134446
      12A1     0.250994     6B2     0.600239    13A1     0.641118
       6B1     0.642423    14A1     1.199455     7B2     2.138934
      15A1     2.171696     2A2     2.182419     7B1     2.194678
      16A1     2.270416

    Beta Occupied:

       1A1   -77.493685     2A1   -19.562209     3A1    -6.952587
       4A1    -5.122538     1B2    -5.105188     1B1    -5.104879
       5A1    -1.191845     6A1    -0.821804     2B1    -0.632789

    Beta Virtual:

       7A1    -0.550597     2B2    -0.490948     3B1    -0.404256
       3B2    -0.393894     8A1    -0.337494     9A1     0.090436
      10A1     0.127555     4B2     0.167863     4B1     0.168206
       5B1     0.187298     5B2     0.189916     1A2     0.218803
      11A1     0.218814    12A1     0.306706     6B1     0.674184
       6B2     0.704246    13A1     0.731998    14A1     1.269535
       7B1     2.275821     2A2     2.277245    15A1     2.287606
       7B2     2.298969    16A1     2.386966

    Final Occupation by Irrep:
             A1    A2    B1    B2
    DOCC [     6,    0,    2,    1 ]
    SOCC [     1,    0,    1,    2 ]
    NA   [     7,    0,    3,    3 ]
    NB   [     6,    0,    2,    1 ]

  @DF-UKS Final Energy:  -415.97838642435346

   => Energetics <=

    Nuclear Repulsion Energy =             30.3667286462260364
    One-Electron Energy =                -627.5929691091071163
    Two-Electron Energy =                 206.5224679720737981
    DFT Exchange-Correlation Energy =     -25.2746139335462203
    Empirical Dispersion Energy =           0.0000000000000000
    VV10 Nonlocal Energy =                  0.0000000000000000
    Total Energy =                       -415.9783864243534595

  UHF NO Occupations:
  HONO-2 :    7 A1 1.0000000
  HONO-1 :    3 B2 1.0000000
  HONO-0 :    3 B1 1.0000000
  LUNO+0 :    8 A1 0.0024153
  LUNO+1 :    9 A1 0.0006042
  LUNO+2 :    4 B1 0.0004565
  LUNO+3 :   10 A1 0.0000002

Computation Completed

Properties will be evaluated at   0.000000,   0.000000,   0.000000 [a0]

Properties computed using the SCF density matrix

 Multipole Moments:

 ------------------------------------------------------------------------------------
     Multipole            Electronic (a.u.)      Nuclear  (a.u.)        Total (a.u.)
 ------------------------------------------------------------------------------------

 L = 1.  Multiply by 2.5417464519 to convert [e a0] to [Debye]
 Dipole X            :          0.0000000            0.0000000            0.0000000
 Dipole Y            :          0.0000000            0.0000000            0.0000000
 Dipole Z            :         -1.3443630            0.6618349           -0.6825281
 Magnitude           :                                                    0.6825281

 ------------------------------------------------------------------------------------

*** tstop() called on Joses-MacBook-Pro-2.local at Thu Jul 17 14:10:32 2025
Module time:
	user time   =       1.89 seconds =       0.03 minutes
	system time =       5.07 seconds =       0.08 minutes
	total time  =          1 seconds =       0.02 minutes
Total time:
	user time   =      52.30 seconds =       0.87 minutes
	system time =     113.29 seconds =       1.89 minutes
	total time  =         17 seconds =       0.28 minutes

*** tstart() called on Joses-MacBook-Pro-2.local
*** at Thu Jul 17 14:10:32 2025

         ------------------------------------------------------------
                                   SCF GRAD
                          Rob Parrish, Justin Turney,
                       Andy Simmonett, and Alex Sokolov
         ------------------------------------------------------------

  ==> Geometry <==

    Molecular point group: c2v
    Full point group: C_inf_v

    Geometry (in Angstrom), charge = 1, multiplicity = 5:

       Center              X                  Y                   Z               Mass
    ------------   -----------------  -----------------  -----------------  -----------------
         O            0.000000000000     0.000000000000     1.379018217104    15.994914619570
         P            0.000000000000     0.000000000000    -0.712127853327    30.973761998420

  Nuclear repulsion =   30.366728646226036

  ==> Basis Set <==

  Basis Set: CC-PVDZ
    Blend: CC-PVDZ
    Number of shells: 14
    Number of basis functions: 32
    Number of Cartesian functions: 34
    Spherical Harmonics?: true
    Max angular momentum: 2

  ==> DFJKGrad: Density-Fitted SCF Gradients <==

    Gradient:                    1
    J tasked:                  Yes
    K tasked:                  Yes
    wK tasked:                  No
    OpenMP threads:              1
    Integrals threads:           1
    Memory [MiB]:              375
    Schwarz Cutoff:          1E-12
    Fitting Condition:       1E-10

   => Auxiliary Basis Set <=

  Basis Set: (CC-PVDZ AUX)
    Blend: CC-PVDZ-JKFIT
    Number of shells: 60
    Number of basis functions: 182
    Number of Cartesian functions: 211
    Spherical Harmonics?: true
    Max angular momentum: 3

  ==> DFT Potential <==

   => LibXC <=

    Version 6.2.2
    S. Lehtola, C. Steigemann, M. J.T. Oliveira, and M. A.L. Marques.,  SoftwareX 7, 1â€“5 (2018) (10.1016/j.softx.2017.11.002)

   => Composite Functional: B3LYP <=

    B3LYP Hyb-GGA Exchange-Correlation Functional

    P. J. Stephens, F. J. Devlin, C. F. Chabalowski, and M. J. Frisch.,  J. Phys. Chem. 98, 11623 (1994) (10.1021/j100096a001)

    Deriv               =              1
    GGA                 =           TRUE
    Meta                =          FALSE

    Exchange Hybrid     =           TRUE
    MP2 Hybrid          =          FALSE

   => Exchange Functionals <=

    0.0800   Slater exchange
    0.7200         Becke 88

   => Exact (HF) Exchange <=

    0.2000               HF

   => Correlation Functionals <=

    0.1900   Vosko, Wilk & Nusair (VWN5_RPA)
    0.8100   Lee, Yang & Parr

   => LibXC Density Thresholds  <==

    XC_HYB_GGA_XC_B3LYP:  1.00E-15

   => Molecular Quadrature <=

    Radial Scheme          =       TREUTLER
    Pruning Scheme         =           NONE
    Nuclear Scheme         =       TREUTLER

    Blocking Scheme        =         OCTREE
    BS radius alpha        =              1
    Pruning alpha          =              1
    Radial Points          =             75
    Spherical Points       =            302
    Total Points           =          42263
    Total Blocks           =            379
    Max Points             =            255
    Max Functions          =             32
    Weights Tolerance      =       1.00E-15

  -Total Gradient:
     Atom            X                  Y                   Z
    ------   -----------------  -----------------  -----------------
       1        0.000000000000    -0.000000000000    -0.000063828686
       2        0.000000000000     0.000000000000     0.000035682849

*** tstop() called on Joses-MacBook-Pro-2.local at Thu Jul 17 14:10:32 2025
Module time:
	user time   =       0.86 seconds =       0.01 minutes
	system time =       1.73 seconds =       0.03 minutes
	total time  =          0 seconds =       0.00 minutes
Total time:
	user time   =      53.16 seconds =       0.89 minutes
	system time =     115.03 seconds =       1.92 minutes
	total time  =         17 seconds =       0.28 minutes

    			-----------------------------------------

    			 OPTKING 3.0: for geometry optimizations

    			     By R.A. King, Bethel University

    			        with contributions from

    			    A.V. Copan, J. Cayton, A. Heide

    			-----------------------------------------

	                            ===> Fragment 1 <==

	 Z (Atomic Numbers)          Masses                          Geom
	       8.000000            15.994915          0.00000000  0.00000000  2.60596675
	      15.000000            30.973762          0.00000000  0.00000000 -1.34572661

	 - Coordinate -           - BOHR/RAD -       - ANG/DEG -
	 R(1,2)           =         3.951693           2.091146

	        --- Internal Coordinate Step in ANG or DEG, aJ/ANG or AJ/DEG ---
	-------------------------------------------------------------------------------
	           Coordinate      Previous         Force          Change          New
	           ----------      --------        ------          ------        ------
	               R(1,2)       2.09115        0.00041        0.00099       2.09214
	-------------------------------------------------------------------------------

	                                 ==> Convergence Check <==

	Measures of convergence in internal coordinates in au.

	Criteria marked as inactive (o), active & met (*), and active & unmet ( ).

	----------------------------------------------------------------------------------------------
	   Step    Total Energy     Delta E     Max Force     RMS Force      Max Disp      RMS Disp
	----------------------------------------------------------------------------------------------
	  Convergence Criteria     1.00e-06 *    3.00e-04 *             o    1.20e-03 *             o
	----------------------------------------------------------------------------------------------
	    15    -415.97838642   -9.79e-07 *    4.98e-05 *    4.98e-05 o    1.88e-03      1.88e-03 o  ~
	----------------------------------------------------------------------------------------------

Next Geometry in Ang
	Fragment 1 (Ang)

	    O   0.0000000000   0.0000000000   1.3795149761
	    P   0.0000000000   0.0000000000  -0.7126246123

    Final optimized geometry and variables:
    Molecular point group: c2v
    Full point group: C_inf_v

    Geometry (in Angstrom), charge = 1, multiplicity = 5:

    O            0.000000000000     0.000000000000     1.379018217104
    P            0.000000000000     0.000000000000    -0.712127853327

    Psi4 stopped on: Thursday, 17 July 2025 02:10PM
    Psi4 wall time for execution: 0:00:18.04

*** Psi4 exiting successfully. Buy a developer a beer!
