                               Psi4 1.9.1 release

  ==> Input File <==

--------------------------------------------------------------------------
molecule {
1 5
H   0.00000        0.60000        0.00000
Mg   0.00000       -0.60000        0.00000
}

set {
basis              cc-pvdz
reference          uks
maxiter            500
geom_maxiter       500
DAMPING_PERCENTAGE 1
guess              SAP
}

optimize('b3lyp')
--------------------------------------------------------------------------

    Molecular point group: c2v
  Charge       = 1
  Multiplicity = 5
  Basis Set: CC-PVDZ
    Blend: CC-PVDZ
  Basis Set: (CC-PVDZ AUX)
    Blend: CC-PVDZ-JKFIT + DEF2-UNIVERSAL-JKFIT
  @DF-UKS Final Energy:  -198.05577961854442
    Total Energy =                       -198.0557796185444204
 Dipole X            :          0.0000000            0.0000000            0.0000000
 Dipole Y            :          0.0000000            0.0000000            0.0000000
 Dipole Z            :         -0.2865577            1.0789159            0.7923582
 Magnitude           :                                                    0.7923582
    Molecular point group: c2v
  Basis Set: CC-PVDZ
    Blend: CC-PVDZ
  Basis Set: (CC-PVDZ AUX)
    Blend: CC-PVDZ-JKFIT + DEF2-UNIVERSAL-JKFIT
  Basis Set: CC-PVDZ
    Blend: CC-PVDZ
  Basis Set: (CC-PVDZ AUX)
    Blend: CC-PVDZ-JKFIT + DEF2-UNIVERSAL-JKFIT
  @DF-UKS Final Energy:  -198.15112966287310
    Total Energy =                       -198.1511296628731031
  Basis Set: CC-PVDZ
    Blend: CC-PVDZ
  Basis Set: (CC-PVDZ AUX)
    Blend: CC-PVDZ-JKFIT + DEF2-UNIVERSAL-JKFIT
  Basis Set: CC-PVDZ
    Blend: CC-PVDZ
  @DF-UKS Final Energy:  -198.18354378638776
    Total Energy =                       -198.1835437863877587
  @DF-UKS Final Energy:  -198.20591546805272
    Total Energy =                       -198.2059154680527229
  @DF-UKS Final Energy:  -198.21578446496616
    Total Energy =                       -198.2157844649661342
  @DF-UKS Final Energy:  -198.21998349164099
    Total Energy =                       -198.2199834916409884
  @DF-UKS Final Energy:  -198.22153250117478
    Total Energy =                       -198.2215325011747780
  @DF-UKS Final Energy:  -198.22197506734435
    Total Energy =                       -198.2219750673443457
  @DF-UKS Final Energy:  -198.22204385168808
    Total Energy =                       -198.2220438516880847
  @DF-UKS Final Energy:  -198.22205766526940
    Total Energy =                       -198.2220576652694035
  Basis Set: (CC-PVDZ AUX)
    Blend: CC-PVDZ-JKFIT + DEF2-UNIVERSAL-JKFIT
  Basis Set: CC-PVDZ
    Blend: CC-PVDZ
  Basis Set: (CC-PVDZ AUX)
    Blend: CC-PVDZ-JKFIT + DEF2-UNIVERSAL-JKFIT
  @DF-UKS Final Energy:  -198.22205868615487
    Total Energy =                       -198.2220586861548668
  Basis Set: CC-PVDZ
    Blend: CC-PVDZ
  Basis Set: (CC-PVDZ AUX)
    Blend: CC-PVDZ-JKFIT + DEF2-UNIVERSAL-JKFIT
  Charge       = 1
  Multiplicity = 5
  Basis Set: CC-PVDZ
    Blend: CC-PVDZ
  Basis Set: (CC-PVDZ AUX)
    Blend: CC-PVDZ-JKFIT + DEF2-UNIVERSAL-JKFIT

    Orbital Energies [Eh]
    ---------------------

    Alpha Occupied:

       1A1   -48.509795     2A1    -4.277006     1B2    -3.135285
       1B1    -2.998576     3A1    -2.998305     4A1    -0.629765
       5A1    -0.542149     2B2    -0.410319

    Alpha Virtual:

       2B1    -0.338170     6A1    -0.310179     7A1    -0.106455
       8A1    -0.079636     3B2    -0.071262     3B1    -0.067501
       4B2    -0.046566     1A2    -0.040296     9A1    -0.032513
       4B1    -0.027238    10A1     0.023636    11A1     0.302919
       5B1     0.977337     5B2     0.978368    12A1     1.098989

    Beta Occupied:

       1A1   -48.453293     2A1    -4.135898     1B1    -2.942403
       3A1    -2.941587

    Beta Virtual:

       1B2    -2.655952     4A1    -0.464597     5A1    -0.322617
       2B1    -0.280070     2B2    -0.243618     6A1    -0.192531
       7A1    -0.079572     8A1    -0.059577     3B1    -0.054676
       3B2    -0.038191     4B1     0.022299     4B2     0.047576
       9A1     0.052180     1A2     0.053553    10A1     0.105183
      11A1     0.484951     5B1     1.205098     5B2     1.205290
      12A1     1.305877

    Final Occupation by Irrep:
             A1    A2    B1    B2
    DOCC [     3,    0,    1,    0 ]
    SOCC [     2,    0,    0,    2 ]
    NA   [     5,    0,    1,    2 ]
    NB   [     3,    0,    1,    0 ]

  @DF-UKS Final Energy:  -198.22205876358166

   => Energetics <=

    Nuclear Repulsion Energy =              2.5067156517348974
    One-Electron Energy =                -270.4327501874282689
    Two-Electron Energy =                  82.3518140087022203
    DFT Exchange-Correlation Energy =     -12.6478382365905233
    Empirical Dispersion Energy =           0.0000000000000000
    VV10 Nonlocal Energy =                  0.0000000000000000
    Total Energy =                       -198.2220587635816855

  UHF NO Occupations:
  HONO-2 :    4 A1 1.0000000
  HONO-1 :    5 A1 1.0000000
  HONO-0 :    2 B2 1.0000000
  LUNO+0 :    6 A1 0.0000040
  LUNO+1 :    2 B1 0.0000021
  LUNO+2 :    7 A1 0.0000020
  LUNO+3 :    8 A1 0.0000000

Computation Completed

Properties will be evaluated at   0.000000,   0.000000,   0.000000 [a0]

Properties computed using the SCF density matrix

 Multipole Moments:

 ------------------------------------------------------------------------------------
     Multipole            Electronic (a.u.)      Nuclear  (a.u.)        Total (a.u.)
 ------------------------------------------------------------------------------------

 L = 1.  Multiply by 2.5417464519 to convert [e a0] to [Debye]
 Dipole X            :          0.0000000            0.0000000            0.0000000
 Dipole Y            :          0.0000000            0.0000000            0.0000000
 Dipole Z            :         -1.8249061            2.2776324            0.4527264
 Magnitude           :                                                    0.4527264

 ------------------------------------------------------------------------------------

*** tstop() called on Joses-MacBook-Pro-2.local at Thu Jul 17 12:22:03 2025
Module time:
	user time   =       2.02 seconds =       0.03 minutes
	system time =       2.22 seconds =       0.04 minutes
	total time  =          1 seconds =       0.02 minutes
Total time:
	user time   =      38.43 seconds =       0.64 minutes
	system time =      47.04 seconds =       0.78 minutes
	total time  =          8 seconds =       0.13 minutes

*** tstart() called on Joses-MacBook-Pro-2.local
*** at Thu Jul 17 12:22:03 2025

         ------------------------------------------------------------
                                   SCF GRAD
                          Rob Parrish, Justin Turney,
                       Andy Simmonett, and Alex Sokolov
         ------------------------------------------------------------

  ==> Geometry <==

    Molecular point group: c2v
    Full point group: C_inf_v

    Geometry (in Angstrom), charge = 1, multiplicity = 5:

       Center              X                  Y                   Z               Mass
    ------------   -----------------  -----------------  -----------------  -----------------
         H            0.000000000000     0.000000000000     2.431093770634     1.007825032230
         MG           0.000000000000     0.000000000000    -0.102151882356    23.985041697000

  Nuclear repulsion =    2.506715651734897

  ==> Basis Set <==

  Basis Set: CC-PVDZ
    Blend: CC-PVDZ
    Number of shells: 11
    Number of basis functions: 23
    Number of Cartesian functions: 24
    Spherical Harmonics?: true
    Max angular momentum: 2

  ==> DFJKGrad: Density-Fitted SCF Gradients <==

    Gradient:                    1
    J tasked:                  Yes
    K tasked:                  Yes
    wK tasked:                  No
    OpenMP threads:              1
    Integrals threads:           1
    Memory [MiB]:              375
    Schwarz Cutoff:          1E-12
    Fitting Condition:       1E-10

   => Auxiliary Basis Set <=

  Basis Set: (CC-PVDZ AUX)
    Blend: CC-PVDZ-JKFIT + DEF2-UNIVERSAL-JKFIT
    Number of shells: 43
    Number of basis functions: 135
    Number of Cartesian functions: 162
    Spherical Harmonics?: true
    Max angular momentum: 4

  ==> DFT Potential <==

   => LibXC <=

    Version 6.2.2
    S. Lehtola, C. Steigemann, M. J.T. Oliveira, and M. A.L. Marques.,  SoftwareX 7, 1â€“5 (2018) (10.1016/j.softx.2017.11.002)

   => Composite Functional: B3LYP <=

    B3LYP Hyb-GGA Exchange-Correlation Functional

    P. J. Stephens, F. J. Devlin, C. F. Chabalowski, and M. J. Frisch.,  J. Phys. Chem. 98, 11623 (1994) (10.1021/j100096a001)

    Deriv               =              1
    GGA                 =           TRUE
    Meta                =          FALSE

    Exchange Hybrid     =           TRUE
    MP2 Hybrid          =          FALSE

   => Exchange Functionals <=

    0.0800   Slater exchange
    0.7200         Becke 88

   => Exact (HF) Exchange <=

    0.2000               HF

   => Correlation Functionals <=

    0.1900   Vosko, Wilk & Nusair (VWN5_RPA)
    0.8100   Lee, Yang & Parr

   => LibXC Density Thresholds  <==

    XC_HYB_GGA_XC_B3LYP:  1.00E-15

   => Molecular Quadrature <=

    Radial Scheme          =       TREUTLER
    Pruning Scheme         =           NONE
    Nuclear Scheme         =       TREUTLER

    Blocking Scheme        =         OCTREE
    BS radius alpha        =              1
    Pruning alpha          =              1
    Radial Points          =             75
    Spherical Points       =            302
    Total Points           =          43495
    Total Blocks           =            403
    Max Points             =            254
    Max Functions          =             23
    Weights Tolerance      =       1.00E-15

  -Total Gradient:
     Atom            X                  Y                   Z
    ------   -----------------  -----------------  -----------------
       1        0.000000000000     0.000000000000    -0.000010838238
       2       -0.000000000000     0.000000000000     0.000010549159

*** tstop() called on Joses-MacBook-Pro-2.local at Thu Jul 17 12:22:03 2025
Module time:
	user time   =       0.64 seconds =       0.01 minutes
	system time =       1.32 seconds =       0.02 minutes
	total time  =          0 seconds =       0.00 minutes
Total time:
	user time   =      39.07 seconds =       0.65 minutes
	system time =      48.36 seconds =       0.81 minutes
	total time  =          8 seconds =       0.13 minutes

    			-----------------------------------------

    			 OPTKING 3.0: for geometry optimizations

    			     By R.A. King, Bethel University

    			        with contributions from

    			    A.V. Copan, J. Cayton, A. Heide

    			-----------------------------------------

	                            ===> Fragment 1 <==

	 Z (Atomic Numbers)          Masses                          Geom
	       1.000000             1.007825          0.00000000  0.00000000  4.59410141
	      12.000000            23.985042          0.00000000  0.00000000 -0.19303908

	 - Coordinate -           - BOHR/RAD -       - ANG/DEG -
	 R(1,2)           =         4.787140           2.533246

	        --- Internal Coordinate Step in ANG or DEG, aJ/ANG or AJ/DEG ---
	-------------------------------------------------------------------------------
	           Coordinate      Previous         Force          Change          New
	           ----------      --------        ------          ------        ------
	               R(1,2)       2.53325        0.00009        0.00050       2.53375
	-------------------------------------------------------------------------------

	                                 ==> Convergence Check <==

	Measures of convergence in internal coordinates in au.

	Criteria marked as inactive (o), active & met (*), and active & unmet ( ).

	----------------------------------------------------------------------------------------------
	   Step    Total Energy     Delta E     Max Force     RMS Force      Max Disp      RMS Disp
	----------------------------------------------------------------------------------------------
	  Convergence Criteria     1.00e-06 *    3.00e-04 *             o    1.20e-03 *             o
	----------------------------------------------------------------------------------------------
	    12    -198.22205876   -7.74e-08 *    1.07e-05 *    1.07e-05 o    9.47e-04 *    9.47e-04 o  ~
	----------------------------------------------------------------------------------------------

Next Geometry in Ang
	Fragment 1 (Ang)

	    H   0.0000000000   0.0000000000   2.4313444399
	   Mg   0.0000000000   0.0000000000  -0.1024025516

    Final optimized geometry and variables:
    Molecular point group: c2v
    Full point group: C_inf_v

    Geometry (in Angstrom), charge = 1, multiplicity = 5:

    H            0.000000000000     0.000000000000     2.431093770634
    MG           0.000000000000     0.000000000000    -0.102151882356

    Psi4 stopped on: Thursday, 17 July 2025 12:22PM
    Psi4 wall time for execution: 0:00:09.09

*** Psi4 exiting successfully. Buy a developer a beer!
