                               Psi4 1.9.1 release

  ==> Input File <==

--------------------------------------------------------------------------
molecule {
1 5
B   0.00000        0.60000        0.00000
S   0.00000       -0.60000        0.00000
}

set {
basis              cc-pvdz
reference          uks
maxiter            500
geom_maxiter       500
DAMPING_PERCENTAGE 1
guess              SAP
}

optimize('b3lyp')
--------------------------------------------------------------------------

    Molecular point group: c2v
  Charge       = 1
  Multiplicity = 5
  Basis Set: CC-PVDZ
    Blend: CC-PVDZ
  Basis Set: (CC-PVDZ AUX)
    Blend: CC-PVDZ-JKFIT
  @DF-UKS Final Energy:  -421.89169692076183
    Total Energy =                       -421.8916969207618308
 Dipole X            :          0.0000000            0.0000000            0.0000000
 Dipole Y            :          0.0000000            0.0000000            0.0000000
 Dipole Z            :          0.7479032           -0.8593730           -0.1114698
 Magnitude           :                                                    0.1114698
    Molecular point group: c2v
  Basis Set: CC-PVDZ
    Blend: CC-PVDZ
  Basis Set: (CC-PVDZ AUX)
    Blend: CC-PVDZ-JKFIT
  Basis Set: CC-PVDZ
    Blend: CC-PVDZ
  Basis Set: (CC-PVDZ AUX)
    Blend: CC-PVDZ-JKFIT
  @DF-UKS Final Energy:  -422.20453572717787
    Total Energy =                       -422.2045357271778698
  Basis Set: CC-PVDZ
    Blend: CC-PVDZ
  Basis Set: (CC-PVDZ AUX)
    Blend: CC-PVDZ-JKFIT
  Basis Set: CC-PVDZ
    Blend: CC-PVDZ
  @DF-UKS Final Energy:  -422.34340265883372
    Total Energy =                       -422.3434026588337247
  @DF-UKS Final Energy:  -422.41106137549752
    Total Energy =                       -422.4110613754975248
  @DF-UKS Final Energy:  -422.44058422669798
    Total Energy =                       -422.4405842266979789
  @DF-UKS Final Energy:  -422.45196691458250
    Total Energy =                       -422.4519669145824992
  @DF-UKS Final Energy:  -422.45483306976411
    Total Energy =                       -422.4548330697641063
  @DF-UKS Final Energy:  -422.45592467300793
    Total Energy =                       -422.4559246730079280
  @DF-UKS Final Energy:  -422.45613979215250
    Total Energy =                       -422.4561397921524986
  @DF-UKS Final Energy:  -422.45618731016651
    Total Energy =                       -422.4561873101665128
  Basis Set: (CC-PVDZ AUX)
    Blend: CC-PVDZ-JKFIT
  Basis Set: CC-PVDZ
    Blend: CC-PVDZ
  Basis Set: (CC-PVDZ AUX)
    Blend: CC-PVDZ-JKFIT
  @DF-UKS Final Energy:  -422.45620042367779
    Total Energy =                       -422.4562004236777852
  Basis Set: CC-PVDZ
    Blend: CC-PVDZ
  Basis Set: (CC-PVDZ AUX)
    Blend: CC-PVDZ-JKFIT
  Charge       = 1
  Multiplicity = 5
  Basis Set: CC-PVDZ
    Blend: CC-PVDZ
  Basis Set: (CC-PVDZ AUX)
    Blend: CC-PVDZ-JKFIT

    Orbital Energies [Eh]
    ---------------------

    Alpha Occupied:

       1A1   -89.300190     2A1    -8.354739     3A1    -7.136263
       1B2    -6.322018     1B1    -6.321421     4A1    -6.310521
       5A1    -1.085331     6A1    -0.742011     2B1    -0.660325
       2B2    -0.659271     7A1    -0.571673     3B1    -0.443400

    Alpha Virtual:

       3B2    -0.348652     8A1    -0.240766     9A1     0.004938
       4B1     0.053608     4B2     0.072394    10A1     0.106725
       5B2     0.151619     5B1     0.151657    11A1     0.157214
       1A2     0.188237    12A1     0.188628     6B1     0.217755
       6B2     0.218064    13A1     0.341013     2A2     0.429899
      14A1     0.437758    15A1     0.549311     7B1     0.617219
       7B2     0.624037    16A1     0.885060

    Beta Occupied:

       1A1   -89.286714     2A1    -8.340975     3A1    -7.110150
       4A1    -6.298532     1B2    -6.298076     1B1    -6.296308
       5A1    -0.983312     6A1    -0.678622

    Beta Virtual:

       2B2    -0.496234     2B1    -0.487815     7A1    -0.395993
       3B2    -0.290572     3B1    -0.254886     8A1    -0.176851
       9A1     0.025919     4B2     0.093847     4B1     0.119304
      10A1     0.170436    11A1     0.189907     5B2     0.218898
       5B1     0.228332     6B2     0.264430     6B1     0.274955
       1A2     0.299631    12A1     0.299669    13A1     0.382793
      14A1     0.515934     2A2     0.516663    15A1     0.606348
       7B2     0.682833     7B1     0.707545    16A1     0.945072

    Final Occupation by Irrep:
             A1    A2    B1    B2
    DOCC [     6,    0,    1,    1 ]
    SOCC [     1,    0,    2,    1 ]
    NA   [     7,    0,    3,    2 ]
    NB   [     6,    0,    1,    1 ]

  @DF-UKS Final Energy:  -422.45620184933745

   => Energetics <=

    Nuclear Repulsion Energy =             20.8961402069583499
    One-Electron Energy =                -616.6631491740524780
    Two-Electron Energy =                 196.9422588996944796
    DFT Exchange-Correlation Energy =     -23.6314517819377414
    Empirical Dispersion Energy =           0.0000000000000000
    VV10 Nonlocal Energy =                  0.0000000000000000
    Total Energy =                       -422.4562018493374467

  UHF NO Occupations:
  HONO-2 :    3 B1 1.0000000
  HONO-1 :    7 A1 1.0000000
  HONO-0 :    2 B2 1.0000000
  LUNO+0 :    8 A1 0.0017155
  LUNO+1 :    9 A1 0.0005632
  LUNO+2 :   10 A1 0.0000002
  LUNO+3 :   11 A1 0.0000000

Computation Completed

Properties will be evaluated at   0.000000,   0.000000,   0.000000 [a0]

Properties computed using the SCF density matrix

 Multipole Moments:

 ------------------------------------------------------------------------------------
     Multipole            Electronic (a.u.)      Nuclear  (a.u.)        Total (a.u.)
 ------------------------------------------------------------------------------------

 L = 1.  Multiply by 2.5417464519 to convert [e a0] to [Debye]
 Dipole X            :          0.0000000            0.0000000            0.0000000
 Dipole Y            :          0.0000000            0.0000000            0.0000000
 Dipole Z            :          1.7150335           -1.4508599            0.2641736
 Magnitude           :                                                    0.2641736

 ------------------------------------------------------------------------------------

*** tstop() called on Joses-MacBook-Pro-2.local at Thu Jul 17 13:37:48 2025
Module time:
	user time   =       2.25 seconds =       0.04 minutes
	system time =       4.20 seconds =       0.07 minutes
	total time  =          0 seconds =       0.00 minutes
Total time:
	user time   =      44.38 seconds =       0.74 minutes
	system time =      77.37 seconds =       1.29 minutes
	total time  =         12 seconds =       0.20 minutes

*** tstart() called on Joses-MacBook-Pro-2.local
*** at Thu Jul 17 13:37:48 2025

         ------------------------------------------------------------
                                   SCF GRAD
                          Rob Parrish, Justin Turney,
                       Andy Simmonett, and Alex Sokolov
         ------------------------------------------------------------

  ==> Geometry <==

    Molecular point group: c2v
    Full point group: C_inf_v

    Geometry (in Angstrom), charge = 1, multiplicity = 5:

       Center              X                  Y                   Z               Mass
    ------------   -----------------  -----------------  -----------------  -----------------
         B            0.000000000000     0.000000000000     1.507007789227    11.009305360000
         S            0.000000000000     0.000000000000    -0.518925059343    31.972071174400

  Nuclear repulsion =   20.896140206958350

  ==> Basis Set <==

  Basis Set: CC-PVDZ
    Blend: CC-PVDZ
    Number of shells: 14
    Number of basis functions: 32
    Number of Cartesian functions: 34
    Spherical Harmonics?: true
    Max angular momentum: 2

  ==> DFJKGrad: Density-Fitted SCF Gradients <==

    Gradient:                    1
    J tasked:                  Yes
    K tasked:                  Yes
    wK tasked:                  No
    OpenMP threads:              1
    Integrals threads:           1
    Memory [MiB]:              375
    Schwarz Cutoff:          1E-12
    Fitting Condition:       1E-10

   => Auxiliary Basis Set <=

  Basis Set: (CC-PVDZ AUX)
    Blend: CC-PVDZ-JKFIT
    Number of shells: 60
    Number of basis functions: 182
    Number of Cartesian functions: 211
    Spherical Harmonics?: true
    Max angular momentum: 3

  ==> DFT Potential <==

   => LibXC <=

    Version 6.2.2
    S. Lehtola, C. Steigemann, M. J.T. Oliveira, and M. A.L. Marques.,  SoftwareX 7, 1â€“5 (2018) (10.1016/j.softx.2017.11.002)

   => Composite Functional: B3LYP <=

    B3LYP Hyb-GGA Exchange-Correlation Functional

    P. J. Stephens, F. J. Devlin, C. F. Chabalowski, and M. J. Frisch.,  J. Phys. Chem. 98, 11623 (1994) (10.1021/j100096a001)

    Deriv               =              1
    GGA                 =           TRUE
    Meta                =          FALSE

    Exchange Hybrid     =           TRUE
    MP2 Hybrid          =          FALSE

   => Exchange Functionals <=

    0.0800   Slater exchange
    0.7200         Becke 88

   => Exact (HF) Exchange <=

    0.2000               HF

   => Correlation Functionals <=

    0.1900   Vosko, Wilk & Nusair (VWN5_RPA)
    0.8100   Lee, Yang & Parr

   => LibXC Density Thresholds  <==

    XC_HYB_GGA_XC_B3LYP:  1.00E-15

   => Molecular Quadrature <=

    Radial Scheme          =       TREUTLER
    Pruning Scheme         =           NONE
    Nuclear Scheme         =       TREUTLER

    Blocking Scheme        =         OCTREE
    BS radius alpha        =              1
    Pruning alpha          =              1
    Radial Points          =             75
    Spherical Points       =            302
    Total Points           =          42016
    Total Blocks           =            383
    Max Points             =            256
    Max Functions          =             32
    Weights Tolerance      =       1.00E-15

  -Total Gradient:
     Atom            X                  Y                   Z
    ------   -----------------  -----------------  -----------------
       1       -0.000000000000     0.000000000000    -0.000106971108
       2        0.000000000000     0.000000000000     0.000106011090

*** tstop() called on Joses-MacBook-Pro-2.local at Thu Jul 17 13:37:48 2025
Module time:
	user time   =       0.62 seconds =       0.01 minutes
	system time =       1.83 seconds =       0.03 minutes
	total time  =          0 seconds =       0.00 minutes
Total time:
	user time   =      45.00 seconds =       0.75 minutes
	system time =      79.21 seconds =       1.32 minutes
	total time  =         12 seconds =       0.20 minutes

    			-----------------------------------------

    			 OPTKING 3.0: for geometry optimizations

    			     By R.A. King, Bethel University

    			        with contributions from

    			    A.V. Copan, J. Cayton, A. Heide

    			-----------------------------------------

	                            ===> Fragment 1 <==

	 Z (Atomic Numbers)          Masses                          Geom
	       5.000000            11.009305          0.00000000  0.00000000  2.84783199
	      16.000000            31.972071          0.00000000  0.00000000 -0.98062624

	 - Coordinate -           - BOHR/RAD -       - ANG/DEG -
	 R(1,2)           =         3.828458           2.025933

	        --- Internal Coordinate Step in ANG or DEG, aJ/ANG or AJ/DEG ---
	-------------------------------------------------------------------------------
	           Coordinate      Previous         Force          Change          New
	           ----------      --------        ------          ------        ------
	               R(1,2)       2.02593        0.00088        0.00059       2.02652
	-------------------------------------------------------------------------------

	                                 ==> Convergence Check <==

	Measures of convergence in internal coordinates in au.

	Criteria marked as inactive (o), active & met (*), and active & unmet ( ).

	----------------------------------------------------------------------------------------------
	   Step    Total Energy     Delta E     Max Force     RMS Force      Max Disp      RMS Disp
	----------------------------------------------------------------------------------------------
	  Convergence Criteria     1.00e-06 *    3.00e-04 *             o    1.20e-03 *             o
	----------------------------------------------------------------------------------------------
	    12    -422.45620185   -1.43e-06      1.06e-04 *    1.06e-04 o    1.11e-03 *    1.11e-03 o  ~
	----------------------------------------------------------------------------------------------

Next Geometry in Ang
	Fragment 1 (Ang)

	    B   0.0000000000   0.0000000000   1.5073013662
	    S   0.0000000000   0.0000000000  -0.5192186363

    Final optimized geometry and variables:
    Molecular point group: c2v
    Full point group: C_inf_v

    Geometry (in Angstrom), charge = 1, multiplicity = 5:

    B            0.000000000000     0.000000000000     1.507007789227
    S            0.000000000000     0.000000000000    -0.518925059343

    Psi4 stopped on: Thursday, 17 July 2025 01:37PM
    Psi4 wall time for execution: 0:00:13.33

*** Psi4 exiting successfully. Buy a developer a beer!
