                               Psi4 1.9.1 release

  ==> Input File <==

--------------------------------------------------------------------------
molecule {
1 5
F   0.00000        0.60000        0.00000
Mg   0.00000       -0.60000        0.00000
}

set {
basis              cc-pvdz
reference          uks
maxiter            500
geom_maxiter       500
DAMPING_PERCENTAGE 1
guess              SAP
}

optimize('b3lyp')
--------------------------------------------------------------------------

    Molecular point group: c2v
  Charge       = 1
  Multiplicity = 5
  Basis Set: CC-PVDZ
    Blend: CC-PVDZ
  Basis Set: (CC-PVDZ AUX)
    Blend: CC-PVDZ-JKFIT + DEF2-UNIVERSAL-JKFIT
  @DF-UKS Final Energy:  -298.37249860837676
    Total Energy =                       -298.3724986083767590
 Dipole X            :          0.0000000            0.0000000            0.0000000
 Dipole Y            :          0.0000000            0.0000000            0.0000000
 Dipole Z            :          1.7355645           -0.6391737            1.0963908
 Magnitude           :                                                    1.0963908
    Molecular point group: c2v
  Basis Set: CC-PVDZ
    Blend: CC-PVDZ
  Basis Set: (CC-PVDZ AUX)
    Blend: CC-PVDZ-JKFIT + DEF2-UNIVERSAL-JKFIT
  Basis Set: CC-PVDZ
    Blend: CC-PVDZ
  Basis Set: (CC-PVDZ AUX)
    Blend: CC-PVDZ-JKFIT + DEF2-UNIVERSAL-JKFIT
  @DF-UKS Final Energy:  -298.61280218399889
    Total Energy =                       -298.6128021839988946
  Basis Set: CC-PVDZ
    Blend: CC-PVDZ
  Basis Set: (CC-PVDZ AUX)
    Blend: CC-PVDZ-JKFIT + DEF2-UNIVERSAL-JKFIT
  Basis Set: CC-PVDZ
    Blend: CC-PVDZ
  @DF-UKS Final Energy:  -298.76689242325051
    Total Energy =                       -298.7668924232505105
  @DF-UKS Final Energy:  -298.86813699480604
    Total Energy =                       -298.8681369948059796
  @DF-UKS Final Energy:  -298.94540785830060
    Total Energy =                       -298.9454078583005980
  @DF-UKS Final Energy:  -299.00073484725027
    Total Energy =                       -299.0007348472502713
  @DF-UKS Final Energy:  -299.03551222837433
    Total Energy =                       -299.0355122283743299
  @DF-UKS Final Energy:  -299.03999978909570
    Total Energy =                       -299.0399997890957025
  @DF-UKS Final Energy:  -299.05755705526110
    Total Energy =                       -299.0575570552610429
  @DF-UKS Final Energy:  -299.05869287452902
    Total Energy =                       -299.0586928745290152
  @DF-UKS Final Energy:  -299.06615663911128
    Total Energy =                       -299.0661566391112842
  @DF-UKS Final Energy:  -299.06642775172912
    Total Energy =                       -299.0664277517290657
  @DF-UKS Final Energy:  -299.06965397257102
    Total Energy =                       -299.0696539725710181
  @DF-UKS Final Energy:  -299.07089752281865
    Total Energy =                       -299.0708975228186546
  @DF-UKS Final Energy:  -299.07161217539533
    Total Energy =                       -299.0716121753953871
  @DF-UKS Final Energy:  -299.07199685640109
    Total Energy =                       -299.0719968564010856
  @DF-UKS Final Energy:  -299.07222317415676
    Total Energy =                       -299.0722231741567612
  @DF-UKS Final Energy:  -299.07237541688238
    Total Energy =                       -299.0723754168823803
  Basis Set: (CC-PVDZ AUX)
    Blend: CC-PVDZ-JKFIT + DEF2-UNIVERSAL-JKFIT
  Basis Set: CC-PVDZ
    Blend: CC-PVDZ
  Basis Set: (CC-PVDZ AUX)
    Blend: CC-PVDZ-JKFIT + DEF2-UNIVERSAL-JKFIT
  @DF-UKS Final Energy:  -299.07251233569963
    Total Energy =                       -299.0725123356996278
  Basis Set: CC-PVDZ
    Blend: CC-PVDZ
  Basis Set: (CC-PVDZ AUX)
    Blend: CC-PVDZ-JKFIT + DEF2-UNIVERSAL-JKFIT
  Charge       = 1
  Multiplicity = 5
  Basis Set: CC-PVDZ
    Blend: CC-PVDZ
  Basis Set: (CC-PVDZ AUX)
    Blend: CC-PVDZ-JKFIT + DEF2-UNIVERSAL-JKFIT

    Orbital Energies [Eh]
    ---------------------

    Alpha Occupied:

       1A1   -46.994418     2A1   -25.586100     3A1    -3.273548
       4A1    -2.018002     1B1    -2.017825     1B2    -2.014757
       5A1    -1.924028     6A1    -1.217562     2B1    -1.217544
       2B2    -1.119796     7A1    -0.358019     3B2    -0.213329

    Alpha Virtual:

       8A1    -0.179700     3B1    -0.163022     9A1    -0.040103
       4B2     0.027680    10A1     0.027949     4B1     0.037244
       5B2     0.158197    11A1     0.162743     1A2     0.163011
       5B1     0.170336    12A1     0.171621     6B1     0.500553
      13A1     0.515126     6B2     0.551091    14A1     0.854685
       7B1     2.730531    15A1     2.730647     2A2     2.801772
       7B2     2.801885    16A1     2.827099

    Beta Occupied:

       1A1   -46.990194     2A1   -25.517382     3A1    -3.266502
       4A1    -2.013719     1B1    -2.013648     1B2    -2.005798
       5A1    -1.730052     2B2    -1.051997

    Beta Virtual:

       6A1    -0.858208     2B1    -0.858021     7A1    -0.251076
       8A1    -0.140019     3B1    -0.121410     3B2    -0.101198
       9A1    -0.006760    10A1     0.049659     4B1     0.059213
       4B2     0.075500    11A1     0.204073     5B1     0.204871
       5B2     0.226174     1A2     0.229820    12A1     0.235593
       6B2     0.581284     6B1     0.617078    13A1     0.630464
      14A1     0.945023     2A2     2.914105     7B2     2.914206
      15A1     2.923567     7B1     2.944060    16A1     2.944167

    Final Occupation by Irrep:
             A1    A2    B1    B2
    DOCC [     5,    0,    1,    2 ]
    SOCC [     2,    0,    1,    1 ]
    NA   [     7,    0,    2,    3 ]
    NB   [     5,    0,    1,    2 ]

  @DF-UKS Final Energy:  -299.07251261759546

   => Energetics <=

    Nuclear Repulsion Energy =             12.0359947401841474
    One-Electron Energy =                -434.4677901041039831
    Two-Electron Energy =                 144.6105936614528389
    DFT Exchange-Correlation Energy =     -21.2513109151285171
    Empirical Dispersion Energy =           0.0000000000000000
    VV10 Nonlocal Energy =                  0.0000000000000000
    Total Energy =                       -299.0725126175954642

  UHF NO Occupations:
  HONO-2 :    6 A1 1.0000000
  HONO-1 :    2 B1 1.0000000
  HONO-0 :    7 A1 1.0000000
  LUNO+0 :    8 A1 0.0006236
  LUNO+1 :    4 B2 0.0001892
  LUNO+2 :    9 A1 0.0000009
  LUNO+3 :    3 B1 0.0000007

Computation Completed

Properties will be evaluated at   0.000000,   0.000000,   0.000000 [a0]

Properties computed using the SCF density matrix

 Multipole Moments:

 ------------------------------------------------------------------------------------
     Multipole            Electronic (a.u.)      Nuclear  (a.u.)        Total (a.u.)
 ------------------------------------------------------------------------------------

 L = 1.  Multiply by 2.5417464519 to convert [e a0] to [Debye]
 Dipole X            :          0.0000000            0.0000000            0.0000000
 Dipole Y            :          0.0000000            0.0000000            0.0000000
 Dipole Z            :          6.9539964           -2.5291847            4.4248117
 Magnitude           :                                                    4.4248117

 ------------------------------------------------------------------------------------

*** tstop() called on Joses-MacBook-Pro-2.local at Thu Jul 17 14:27:05 2025
Module time:
	user time   =       1.83 seconds =       0.03 minutes
	system time =       1.56 seconds =       0.03 minutes
	total time  =          0 seconds =       0.00 minutes
Total time:
	user time   =      90.16 seconds =       1.50 minutes
	system time =      92.68 seconds =       1.54 minutes
	total time  =         18 seconds =       0.30 minutes

*** tstart() called on Joses-MacBook-Pro-2.local
*** at Thu Jul 17 14:27:05 2025

         ------------------------------------------------------------
                                   SCF GRAD
                          Rob Parrish, Justin Turney,
                       Andy Simmonett, and Alex Sokolov
         ------------------------------------------------------------

  ==> Geometry <==

    Molecular point group: c2v
    Full point group: C_inf_v

    Geometry (in Angstrom), charge = 1, multiplicity = 5:

       Center              X                  Y                   Z               Mass
    ------------   -----------------  -----------------  -----------------  -----------------
         F            0.000000000000     0.000000000000     2.649611244565    18.998403162730
         MG           0.000000000000     0.000000000000    -2.098740676988    23.985041697000

  Nuclear repulsion =   12.035994740184147

  ==> Basis Set <==

  Basis Set: CC-PVDZ
    Blend: CC-PVDZ
    Number of shells: 14
    Number of basis functions: 32
    Number of Cartesian functions: 34
    Spherical Harmonics?: true
    Max angular momentum: 2

  ==> DFJKGrad: Density-Fitted SCF Gradients <==

    Gradient:                    1
    J tasked:                  Yes
    K tasked:                  Yes
    wK tasked:                  No
    OpenMP threads:              1
    Integrals threads:           1
    Memory [MiB]:              375
    Schwarz Cutoff:          1E-12
    Fitting Condition:       1E-10

   => Auxiliary Basis Set <=

  Basis Set: (CC-PVDZ AUX)
    Blend: CC-PVDZ-JKFIT + DEF2-UNIVERSAL-JKFIT
    Number of shells: 58
    Number of basis functions: 182
    Number of Cartesian functions: 218
    Spherical Harmonics?: true
    Max angular momentum: 4

  ==> DFT Potential <==

   => LibXC <=

    Version 6.2.2
    S. Lehtola, C. Steigemann, M. J.T. Oliveira, and M. A.L. Marques.,  SoftwareX 7, 1â€“5 (2018) (10.1016/j.softx.2017.11.002)

   => Composite Functional: B3LYP <=

    B3LYP Hyb-GGA Exchange-Correlation Functional

    P. J. Stephens, F. J. Devlin, C. F. Chabalowski, and M. J. Frisch.,  J. Phys. Chem. 98, 11623 (1994) (10.1021/j100096a001)

    Deriv               =              1
    GGA                 =           TRUE
    Meta                =          FALSE

    Exchange Hybrid     =           TRUE
    MP2 Hybrid          =          FALSE

   => Exchange Functionals <=

    0.0800   Slater exchange
    0.7200         Becke 88

   => Exact (HF) Exchange <=

    0.2000               HF

   => Correlation Functionals <=

    0.1900   Vosko, Wilk & Nusair (VWN5_RPA)
    0.8100   Lee, Yang & Parr

   => LibXC Density Thresholds  <==

    XC_HYB_GGA_XC_B3LYP:  1.00E-15

   => Molecular Quadrature <=

    Radial Scheme          =       TREUTLER
    Pruning Scheme         =           NONE
    Nuclear Scheme         =       TREUTLER

    Blocking Scheme        =         OCTREE
    BS radius alpha        =              1
    Pruning alpha          =              1
    Radial Points          =             75
    Spherical Points       =            302
    Total Points           =          43600
    Total Blocks           =            438
    Max Points             =            253
    Max Functions          =             32
    Weights Tolerance      =       1.00E-15

  -Total Gradient:
     Atom            X                  Y                   Z
    ------   -----------------  -----------------  -----------------
       1        0.000000000000     0.000000000000    -0.000245837045
       2        0.000000000000    -0.000000000000     0.000222658447

*** tstop() called on Joses-MacBook-Pro-2.local at Thu Jul 17 14:27:05 2025
Module time:
	user time   =       0.97 seconds =       0.02 minutes
	system time =       1.68 seconds =       0.03 minutes
	total time  =          0 seconds =       0.00 minutes
Total time:
	user time   =      91.13 seconds =       1.52 minutes
	system time =      94.36 seconds =       1.57 minutes
	total time  =         18 seconds =       0.30 minutes

    			-----------------------------------------

    			 OPTKING 3.0: for geometry optimizations

    			     By R.A. King, Bethel University

    			        with contributions from

    			    A.V. Copan, J. Cayton, A. Heide

    			-----------------------------------------

	                            ===> Fragment 1 <==

	 Z (Atomic Numbers)          Masses                          Geom
	       9.000000            18.998403          0.00000000  0.00000000  5.00703959
	      12.000000            23.985042          0.00000000  0.00000000 -3.96604509

	 - Coordinate -           - BOHR/RAD -       - ANG/DEG -
	 R(1,2)           =         8.973085           4.748352

	        --- Internal Coordinate Step in ANG or DEG, aJ/ANG or AJ/DEG ---
	-------------------------------------------------------------------------------
	           Coordinate      Previous         Force          Change          New
	           ----------      --------        ------          ------        ------
	               R(1,2)       4.74835        0.00193        0.00070       4.74905
	-------------------------------------------------------------------------------

	                                 ==> Convergence Check <==

	Measures of convergence in internal coordinates in au.

	Criteria marked as inactive (o), active & met (*), and active & unmet ( ).

	----------------------------------------------------------------------------------------------
	   Step    Total Energy     Delta E     Max Force     RMS Force      Max Disp      RMS Disp
	----------------------------------------------------------------------------------------------
	  Convergence Criteria     1.00e-06 *    3.00e-04 *             o    1.20e-03 *             o
	----------------------------------------------------------------------------------------------
	    20    -299.07251262   -2.82e-07 *    2.34e-04 *    2.34e-04 o    1.32e-03      1.32e-03 o  ~
	----------------------------------------------------------------------------------------------

Next Geometry in Ang
	Fragment 1 (Ang)

	    F   0.0000000000   0.0000000000   2.6499606165
	   Mg   0.0000000000   0.0000000000  -2.0990900489

    Final optimized geometry and variables:
    Molecular point group: c2v
    Full point group: C_inf_v

    Geometry (in Angstrom), charge = 1, multiplicity = 5:

    F            0.000000000000     0.000000000000     2.649611244565
    MG           0.000000000000     0.000000000000    -2.098740676988

    Psi4 stopped on: Thursday, 17 July 2025 02:27PM
    Psi4 wall time for execution: 0:00:19.14

*** Psi4 exiting successfully. Buy a developer a beer!
