                               Psi4 1.9.1 release

  ==> Input File <==

--------------------------------------------------------------------------
molecule {
1 5
N   0.00000        0.60000        0.00000
Ar   0.00000       -0.60000        0.00000
}

set {
basis              cc-pvdz
reference          uks
maxiter            500
geom_maxiter       500
DAMPING_PERCENTAGE 1
guess              SAP
}

optimize('b3lyp')
--------------------------------------------------------------------------

    Molecular point group: c2v
  Charge       = 1
  Multiplicity = 5
  Basis Set: CC-PVDZ
    Blend: CC-PVDZ
  Basis Set: (CC-PVDZ AUX)
    Blend: CC-PVDZ-JKFIT
  @DF-UKS Final Energy:  -580.91225564125091
    Total Energy =                       -580.9122556412509084
 Dipole X            :          0.0000000            0.0000000            0.0000000
 Dipole Y            :          0.0000000            0.0000000            0.0000000
 Dipole Z            :         -0.2434880            1.1631923            0.9197043
 Magnitude           :                                                    0.9197043
    Molecular point group: c2v
  Basis Set: CC-PVDZ
    Blend: CC-PVDZ
  Basis Set: (CC-PVDZ AUX)
    Blend: CC-PVDZ-JKFIT
  Basis Set: CC-PVDZ
    Blend: CC-PVDZ
  Basis Set: (CC-PVDZ AUX)
    Blend: CC-PVDZ-JKFIT
  @DF-UKS Final Energy:  -581.14362506043324
    Total Energy =                       -581.1436250604333509
  Basis Set: CC-PVDZ
    Blend: CC-PVDZ
  Basis Set: (CC-PVDZ AUX)
    Blend: CC-PVDZ-JKFIT
  Basis Set: CC-PVDZ
    Blend: CC-PVDZ
  @DF-UKS Final Energy:  -581.31596459416039
    Total Energy =                       -581.3159645941603912
  @DF-UKS Final Energy:  -581.43742266494587
    Total Energy =                       -581.4374226649458706
  @DF-UKS Final Energy:  -581.50399394593728
    Total Energy =                       -581.5039939459372818
  @DF-UKS Final Energy:  -581.53349097992339
    Total Energy =                       -581.5334909799232719
  @DF-UKS Final Energy:  -581.54754835401889
    Total Energy =                       -581.5475483540188861
  @DF-UKS Final Energy:  -581.55384562413815
    Total Energy =                       -581.5538456241381482
  @DF-UKS Final Energy:  -581.55638406991091
    Total Energy =                       -581.5563840699109051
  @DF-UKS Final Energy:  -581.55723505350591
    Total Energy =                       -581.5572350535059059
  @DF-UKS Final Energy:  -581.55741171327418
    Total Energy =                       -581.5574117132741776
  @DF-UKS Final Energy:  -581.55746463051526
    Total Energy =                       -581.5574646305152555
  @DF-UKS Final Energy:  -581.55747191801026
    Total Energy =                       -581.5574719180102647
  Basis Set: (CC-PVDZ AUX)
    Blend: CC-PVDZ-JKFIT
  Basis Set: CC-PVDZ
    Blend: CC-PVDZ
  Basis Set: (CC-PVDZ AUX)
    Blend: CC-PVDZ-JKFIT
  @DF-UKS Final Energy:  -581.55747302392717
    Total Energy =                       -581.5574730239272867
  Basis Set: CC-PVDZ
    Blend: CC-PVDZ
  Basis Set: (CC-PVDZ AUX)
    Blend: CC-PVDZ-JKFIT
  Charge       = 1
  Multiplicity = 5
  Basis Set: CC-PVDZ
    Blend: CC-PVDZ
  Basis Set: (CC-PVDZ AUX)
    Blend: CC-PVDZ-JKFIT

    Orbital Energies [Eh]
    ---------------------

    Alpha Occupied:

       1A1  -115.592865     2A1   -14.675724     3A1   -11.620107
       4A1    -9.191091     1B2    -9.163307     1B1    -9.163307
       5A1    -1.419889     6A1    -1.038956     7A1    -0.895666
       2B2    -0.835349     2B1    -0.835349     8A1    -0.579759
       3B1    -0.574776     3B2    -0.574776

    Alpha Virtual:

       9A1     0.217028     4B2     0.235475     4B1     0.235475
      10A1     0.283884    11A1     0.349452     5B1     0.364974
       5B2     0.364974     1A2     0.420337    12A1     0.420341
       6B1     0.466121     6B2     0.466121    13A1     0.524187
      14A1     0.755711     7B2     1.446263     7B1     1.446263
       2A2     1.450173    15A1     1.450197    16A1     1.473463

    Beta Occupied:

       1A1  -115.584485     2A1   -14.614200     3A1   -11.612117
       4A1    -9.164732     1B2    -9.158445     1B1    -9.158445
       5A1    -1.362252     6A1    -0.831298     2B1    -0.816982
       2B2    -0.816982

    Beta Virtual:

       7A1    -0.712495     8A1    -0.317400     3B1    -0.309077
       3B2    -0.309077     4B2     0.246073     4B1     0.246073
       9A1     0.274865    10A1     0.329262    11A1     0.423136
       5B1     0.429788     5B2     0.429788     1A2     0.430061
      12A1     0.430065     6B1     0.569016     6B2     0.569016
      13A1     0.630915    14A1     0.834953     7B2     1.599782
       7B1     1.599782     2A2     1.605456    15A1     1.605484
      16A1     1.623848

    Final Occupation by Irrep:
             A1    A2    B1    B2
    DOCC [     6,    0,    2,    2 ]
    SOCC [     2,    0,    1,    1 ]
    NA   [     8,    0,    3,    3 ]
    NB   [     6,    0,    2,    2 ]

  @DF-UKS Final Energy:  -581.55747323474839

   => Energetics <=

    Nuclear Repulsion Energy =             24.4612817686080817
    One-Electron Energy =                -841.3628317263696772
    Two-Electron Energy =                 265.4043049158957501
    DFT Exchange-Correlation Energy =     -30.0602281928825121
    Empirical Dispersion Energy =           0.0000000000000000
    VV10 Nonlocal Energy =                  0.0000000000000000
    Total Energy =                       -581.5574732347483859

  UHF NO Occupations:
  HONO-2 :    3 B2 1.0000000
  HONO-1 :    8 A1 1.0000000
  HONO-0 :    3 B1 1.0000000
  LUNO+0 :    9 A1 0.0014233
  LUNO+1 :   10 A1 0.0006645
  LUNO+2 :    4 B2 0.0000247
  LUNO+3 :    4 B1 0.0000247

Computation Completed

Properties will be evaluated at   0.000000,   0.000000,   0.000000 [a0]

Properties computed using the SCF density matrix

 Multipole Moments:

 ------------------------------------------------------------------------------------
     Multipole            Electronic (a.u.)      Nuclear  (a.u.)        Total (a.u.)
 ------------------------------------------------------------------------------------

 L = 1.  Multiply by 2.5417464519 to convert [e a0] to [Debye]
 Dipole X            :          0.0000000            0.0000000            0.0000000
 Dipole Y            :          0.0000000            0.0000000            0.0000000
 Dipole Z            :         -3.3393549            2.6421821           -0.6971728
 Magnitude           :                                                    0.6971728

 ------------------------------------------------------------------------------------

*** tstop() called on Joses-MacBook-Pro-2.local at Thu Jul 17 13:59:12 2025
Module time:
	user time   =       1.45 seconds =       0.02 minutes
	system time =       4.21 seconds =       0.07 minutes
	total time  =          0 seconds =       0.00 minutes
Total time:
	user time   =      51.95 seconds =       0.87 minutes
	system time =     109.64 seconds =       1.83 minutes
	total time  =         17 seconds =       0.28 minutes

*** tstart() called on Joses-MacBook-Pro-2.local
*** at Thu Jul 17 13:59:12 2025

         ------------------------------------------------------------
                                   SCF GRAD
                          Rob Parrish, Justin Turney,
                       Andy Simmonett, and Alex Sokolov
         ------------------------------------------------------------

  ==> Geometry <==

    Molecular point group: c2v
    Full point group: C_inf_v

    Geometry (in Angstrom), charge = 1, multiplicity = 5:

       Center              X                  Y                   Z               Mass
    ------------   -----------------  -----------------  -----------------  -----------------
         N            0.000000000000     0.000000000000     2.018496434064    14.003074004430
         AR           0.000000000000     0.000000000000    -0.707294028396    39.962383123700

  Nuclear repulsion =   24.461281768608082

  ==> Basis Set <==

  Basis Set: CC-PVDZ
    Blend: CC-PVDZ
    Number of shells: 14
    Number of basis functions: 32
    Number of Cartesian functions: 34
    Spherical Harmonics?: true
    Max angular momentum: 2

  ==> DFJKGrad: Density-Fitted SCF Gradients <==

    Gradient:                    1
    J tasked:                  Yes
    K tasked:                  Yes
    wK tasked:                  No
    OpenMP threads:              1
    Integrals threads:           1
    Memory [MiB]:              375
    Schwarz Cutoff:          1E-12
    Fitting Condition:       1E-10

   => Auxiliary Basis Set <=

  Basis Set: (CC-PVDZ AUX)
    Blend: CC-PVDZ-JKFIT
    Number of shells: 60
    Number of basis functions: 182
    Number of Cartesian functions: 211
    Spherical Harmonics?: true
    Max angular momentum: 3

  ==> DFT Potential <==

   => LibXC <=

    Version 6.2.2
    S. Lehtola, C. Steigemann, M. J.T. Oliveira, and M. A.L. Marques.,  SoftwareX 7, 1â€“5 (2018) (10.1016/j.softx.2017.11.002)

   => Composite Functional: B3LYP <=

    B3LYP Hyb-GGA Exchange-Correlation Functional

    P. J. Stephens, F. J. Devlin, C. F. Chabalowski, and M. J. Frisch.,  J. Phys. Chem. 98, 11623 (1994) (10.1021/j100096a001)

    Deriv               =              1
    GGA                 =           TRUE
    Meta                =          FALSE

    Exchange Hybrid     =           TRUE
    MP2 Hybrid          =          FALSE

   => Exchange Functionals <=

    0.0800   Slater exchange
    0.7200         Becke 88

   => Exact (HF) Exchange <=

    0.2000               HF

   => Correlation Functionals <=

    0.1900   Vosko, Wilk & Nusair (VWN5_RPA)
    0.8100   Lee, Yang & Parr

   => LibXC Density Thresholds  <==

    XC_HYB_GGA_XC_B3LYP:  1.00E-15

   => Molecular Quadrature <=

    Radial Scheme          =       TREUTLER
    Pruning Scheme         =           NONE
    Nuclear Scheme         =       TREUTLER

    Blocking Scheme        =         OCTREE
    BS radius alpha        =              1
    Pruning alpha          =              1
    Radial Points          =             75
    Spherical Points       =            302
    Total Points           =          40881
    Total Blocks           =            367
    Max Points             =            253
    Max Functions          =             32
    Weights Tolerance      =       1.00E-15

  -Total Gradient:
     Atom            X                  Y                   Z
    ------   -----------------  -----------------  -----------------
       1       -0.000000000000     0.000000000000    -0.000013668561
       2        0.000000000000    -0.000000000000     0.000014949620

*** tstop() called on Joses-MacBook-Pro-2.local at Thu Jul 17 13:59:12 2025
Module time:
	user time   =       0.78 seconds =       0.01 minutes
	system time =       1.57 seconds =       0.03 minutes
	total time  =          0 seconds =       0.00 minutes
Total time:
	user time   =      52.73 seconds =       0.88 minutes
	system time =     111.21 seconds =       1.85 minutes
	total time  =         17 seconds =       0.28 minutes

    			-----------------------------------------

    			 OPTKING 3.0: for geometry optimizations

    			     By R.A. King, Bethel University

    			        with contributions from

    			    A.V. Copan, J. Cayton, A. Heide

    			-----------------------------------------

	                            ===> Fragment 1 <==

	 Z (Atomic Numbers)          Masses                          Geom
	       7.000000            14.003074          0.00000000  0.00000000  3.81440545
	      18.000000            39.962383          0.00000000  0.00000000 -1.33659200

	 - Coordinate -           - BOHR/RAD -       - ANG/DEG -
	 R(1,2)           =         5.150997           2.725790

	        --- Internal Coordinate Step in ANG or DEG, aJ/ANG or AJ/DEG ---
	-------------------------------------------------------------------------------
	           Coordinate      Previous         Force          Change          New
	           ----------      --------        ------          ------        ------
	               R(1,2)       2.72579        0.00012        0.00065       2.72644
	-------------------------------------------------------------------------------

	                                 ==> Convergence Check <==

	Measures of convergence in internal coordinates in au.

	Criteria marked as inactive (o), active & met (*), and active & unmet ( ).

	----------------------------------------------------------------------------------------------
	   Step    Total Energy     Delta E     Max Force     RMS Force      Max Disp      RMS Disp
	----------------------------------------------------------------------------------------------
	  Convergence Criteria     1.00e-06 *    3.00e-04 *             o    1.20e-03 *             o
	----------------------------------------------------------------------------------------------
	    15    -581.55747323   -2.11e-07 *    1.43e-05 *    1.43e-05 o    1.24e-03      1.24e-03 o  ~
	----------------------------------------------------------------------------------------------

Next Geometry in Ang
	Fragment 1 (Ang)

	    N   0.0000000000   0.0000000000   2.0188234173
	   Ar   0.0000000000   0.0000000000  -0.7076210117

    Final optimized geometry and variables:
    Molecular point group: c2v
    Full point group: C_inf_v

    Geometry (in Angstrom), charge = 1, multiplicity = 5:

    N            0.000000000000     0.000000000000     2.018496434064
    AR           0.000000000000     0.000000000000    -0.707294028396

    Psi4 stopped on: Thursday, 17 July 2025 01:59PM
    Psi4 wall time for execution: 0:00:17.82

*** Psi4 exiting successfully. Buy a developer a beer!
