                               Psi4 1.9.1 release

  ==> Input File <==

--------------------------------------------------------------------------
molecule {
1 5
Be   0.00000        0.60000        0.00000
Al   0.00000       -0.60000        0.00000
}

set {
basis              cc-pvdz
reference          uks
maxiter            500
geom_maxiter       500
DAMPING_PERCENTAGE 1
guess              SAP
}

optimize('b3lyp')
--------------------------------------------------------------------------

    Molecular point group: c2v
  Charge       = 1
  Multiplicity = 5
  Basis Set: CC-PVDZ
    Blend: CC-PVDZ
  Basis Set: (CC-PVDZ AUX)
    Blend: CC-PVDZ-JKFIT + DEF2-UNIVERSAL-JKFIT
  @DF-UKS Final Energy:  -256.15621711645304
    Total Energy =                       -256.1562171164530355
 Dipole X            :          0.0000000            0.0000000            0.0000000
 Dipole Y            :          0.0000000            0.0000000            0.0000000
 Dipole Z            :          0.7099151           -0.5816474            0.1282677
 Magnitude           :                                                    0.1282677
    Molecular point group: c2v
  Basis Set: CC-PVDZ
    Blend: CC-PVDZ
  Basis Set: (CC-PVDZ AUX)
    Blend: CC-PVDZ-JKFIT + DEF2-UNIVERSAL-JKFIT
  Basis Set: CC-PVDZ
    Blend: CC-PVDZ
  Basis Set: (CC-PVDZ AUX)
    Blend: CC-PVDZ-JKFIT + DEF2-UNIVERSAL-JKFIT
  @DF-UKS Final Energy:  -256.28429463101145
    Total Energy =                       -256.2842946310114485
  Basis Set: CC-PVDZ
    Blend: CC-PVDZ
  Basis Set: (CC-PVDZ AUX)
    Blend: CC-PVDZ-JKFIT + DEF2-UNIVERSAL-JKFIT
  Basis Set: CC-PVDZ
    Blend: CC-PVDZ
  @DF-UKS Final Energy:  -256.42199533299311
    Total Energy =                       -256.4219953329931059
  @DF-UKS Final Energy:  -256.54528182539343
    Total Energy =                       -256.5452818253934311
  @DF-UKS Final Energy:  -256.59958487541064
    Total Energy =                       -256.5995848754106419
  @DF-UKS Final Energy:  -256.62161550812493
    Total Energy =                       -256.6216155081249326
  @DF-UKS Final Energy:  -256.62936169565700
    Total Energy =                       -256.6293616956569963
  @DF-UKS Final Energy:  -256.63138643843541
    Total Energy =                       -256.6313864384354133
  @DF-UKS Final Energy:  -256.63166250295325
    Total Energy =                       -256.6316625029532474
  @DF-UKS Final Energy:  -256.63170504607592
    Total Energy =                       -256.6317050460759219
  Basis Set: (CC-PVDZ AUX)
    Blend: CC-PVDZ-JKFIT + DEF2-UNIVERSAL-JKFIT
  Basis Set: CC-PVDZ
    Blend: CC-PVDZ
  Basis Set: (CC-PVDZ AUX)
    Blend: CC-PVDZ-JKFIT + DEF2-UNIVERSAL-JKFIT
  @DF-UKS Final Energy:  -256.63171301433937
    Total Energy =                       -256.6317130143393683
  Basis Set: CC-PVDZ
    Blend: CC-PVDZ
  Basis Set: (CC-PVDZ AUX)
    Blend: CC-PVDZ-JKFIT + DEF2-UNIVERSAL-JKFIT
  Charge       = 1
  Multiplicity = 5
  Basis Set: CC-PVDZ
    Blend: CC-PVDZ
  Basis Set: (CC-PVDZ AUX)
    Blend: CC-PVDZ-JKFIT + DEF2-UNIVERSAL-JKFIT

    Orbital Energies [Eh]
    ---------------------

    Alpha Occupied:

       1A1   -56.372797     2A1    -4.448389     3A1    -4.382214
       4A1    -3.002473     1B1    -3.000569     1B2    -3.000569
       5A1    -0.653127     6A1    -0.479306     2B1    -0.401479
       2B2    -0.401479

    Alpha Virtual:

       7A1    -0.334165     3B2    -0.258792     3B1    -0.258792
       8A1    -0.135455     9A1    -0.066503     4B1    -0.022061
       4B2    -0.022061    10A1    -0.006180    11A1     0.010232
       1A2     0.010232     5B2     0.022016     5B1     0.022016
      12A1     0.023936     6B2     0.053701     6B1     0.053701
      13A1     0.145971    14A1     0.242456     2A2     0.242456
      15A1     0.285988     7B1     0.385683     7B2     0.385683
      16A1     0.538689

    Beta Occupied:

       1A1   -56.363971     2A1    -4.435356     3A1    -4.365007
       4A1    -2.991411     1B1    -2.987894     1B2    -2.987894

    Beta Virtual:

       5A1    -0.466293     6A1    -0.334905     7A1    -0.261684
       2B1    -0.254674     2B2    -0.254674     3B2    -0.169478
       3B1    -0.169478     8A1    -0.073593     9A1    -0.011650
      10A1     0.016963     4B1     0.021967     4B2     0.021967
      11A1     0.068728     5B2     0.069991     5B1     0.069991
       1A2     0.103716    12A1     0.103723     6B2     0.131690
       6B1     0.131690    13A1     0.189363    14A1     0.340339
       2A2     0.340354    15A1     0.354724     7B1     0.465804
       7B2     0.465804    16A1     0.592151

    Final Occupation by Irrep:
             A1    A2    B1    B2
    DOCC [     4,    0,    1,    1 ]
    SOCC [     2,    0,    1,    1 ]
    NA   [     6,    0,    2,    2 ]
    NB   [     4,    0,    1,    1 ]

  @DF-UKS Final Energy:  -256.63171349756675

   => Energetics <=

    Nuclear Repulsion Energy =             12.0356200014719210
    One-Electron Energy =                -374.8603018985091921
    Two-Electron Energy =                 123.2775480978242797
    DFT Exchange-Correlation Energy =     -17.0845796983537497
    Empirical Dispersion Energy =           0.0000000000000000
    VV10 Nonlocal Energy =                  0.0000000000000000
    Total Energy =                       -256.6317134975667500

  UHF NO Occupations:
  HONO-2 :    2 B2 1.0000000
  HONO-1 :    6 A1 1.0000000
  HONO-0 :    2 B1 1.0000000
  LUNO+0 :    7 A1 0.0000007
  LUNO+1 :    3 B1 0.0000005
  LUNO+2 :    3 B2 0.0000005
  LUNO+3 :    8 A1 0.0000003

Computation Completed

Properties will be evaluated at   0.000000,   0.000000,   0.000000 [a0]

Properties computed using the SCF density matrix

 Multipole Moments:

 ------------------------------------------------------------------------------------
     Multipole            Electronic (a.u.)      Nuclear  (a.u.)        Total (a.u.)
 ------------------------------------------------------------------------------------

 L = 1.  Multiply by 2.5417464519 to convert [e a0] to [Debye]
 Dipole X            :          0.0000000            0.0000000            0.0000000
 Dipole Y            :          0.0000000            0.0000000            0.0000000
 Dipole Z            :          2.1469340           -1.1081908            1.0387432
 Magnitude           :                                                    1.0387432

 ------------------------------------------------------------------------------------

*** tstop() called on Joses-MacBook-Pro-2.local at Thu Jul 17 13:22:43 2025
Module time:
	user time   =       2.01 seconds =       0.03 minutes
	system time =       4.33 seconds =       0.07 minutes
	total time  =          1 seconds =       0.02 minutes
Total time:
	user time   =      51.61 seconds =       0.86 minutes
	system time =      71.79 seconds =       1.20 minutes
	total time  =         13 seconds =       0.22 minutes

*** tstart() called on Joses-MacBook-Pro-2.local
*** at Thu Jul 17 13:22:43 2025

         ------------------------------------------------------------
                                   SCF GRAD
                          Rob Parrish, Justin Turney,
                       Andy Simmonett, and Alex Sokolov
         ------------------------------------------------------------

  ==> Geometry <==

    Molecular point group: c2v
    Full point group: C_inf_v

    Geometry (in Angstrom), charge = 1, multiplicity = 5:

       Center              X                  Y                   Z               Mass
    ------------   -----------------  -----------------  -----------------  -----------------
         BE           0.000000000000     0.000000000000     1.713862459483     9.012183065000
         AL           0.000000000000     0.000000000000    -0.572452242333    26.981538530000

  Nuclear repulsion =   12.035620001471921

  ==> Basis Set <==

  Basis Set: CC-PVDZ
    Blend: CC-PVDZ
    Number of shells: 14
    Number of basis functions: 32
    Number of Cartesian functions: 34
    Spherical Harmonics?: true
    Max angular momentum: 2

  ==> DFJKGrad: Density-Fitted SCF Gradients <==

    Gradient:                    1
    J tasked:                  Yes
    K tasked:                  Yes
    wK tasked:                  No
    OpenMP threads:              1
    Integrals threads:           1
    Memory [MiB]:              375
    Schwarz Cutoff:          1E-12
    Fitting Condition:       1E-10

   => Auxiliary Basis Set <=

  Basis Set: (CC-PVDZ AUX)
    Blend: CC-PVDZ-JKFIT + DEF2-UNIVERSAL-JKFIT
    Number of shells: 53
    Number of basis functions: 163
    Number of Cartesian functions: 190
    Spherical Harmonics?: true
    Max angular momentum: 3

  ==> DFT Potential <==

   => LibXC <=

    Version 6.2.2
    S. Lehtola, C. Steigemann, M. J.T. Oliveira, and M. A.L. Marques.,  SoftwareX 7, 1â€“5 (2018) (10.1016/j.softx.2017.11.002)

   => Composite Functional: B3LYP <=

    B3LYP Hyb-GGA Exchange-Correlation Functional

    P. J. Stephens, F. J. Devlin, C. F. Chabalowski, and M. J. Frisch.,  J. Phys. Chem. 98, 11623 (1994) (10.1021/j100096a001)

    Deriv               =              1
    GGA                 =           TRUE
    Meta                =          FALSE

    Exchange Hybrid     =           TRUE
    MP2 Hybrid          =          FALSE

   => Exchange Functionals <=

    0.0800   Slater exchange
    0.7200         Becke 88

   => Exact (HF) Exchange <=

    0.2000               HF

   => Correlation Functionals <=

    0.1900   Vosko, Wilk & Nusair (VWN5_RPA)
    0.8100   Lee, Yang & Parr

   => LibXC Density Thresholds  <==

    XC_HYB_GGA_XC_B3LYP:  1.00E-15

   => Molecular Quadrature <=

    Radial Scheme          =       TREUTLER
    Pruning Scheme         =           NONE
    Nuclear Scheme         =       TREUTLER

    Blocking Scheme        =         OCTREE
    BS radius alpha        =              1
    Pruning alpha          =              1
    Radial Points          =             75
    Spherical Points       =            302
    Total Points           =          42450
    Total Blocks           =            398
    Max Points             =            256
    Max Functions          =             32
    Weights Tolerance      =       1.00E-15

  -Total Gradient:
     Atom            X                  Y                   Z
    ------   -----------------  -----------------  -----------------
       1        0.000000000000     0.000000000000    -0.000058982615
       2       -0.000000000000    -0.000000000000     0.000057114870

*** tstop() called on Joses-MacBook-Pro-2.local at Thu Jul 17 13:22:43 2025
Module time:
	user time   =       0.74 seconds =       0.01 minutes
	system time =       1.63 seconds =       0.03 minutes
	total time  =          0 seconds =       0.00 minutes
Total time:
	user time   =      52.35 seconds =       0.87 minutes
	system time =      73.42 seconds =       1.22 minutes
	total time  =         13 seconds =       0.22 minutes

    			-----------------------------------------

    			 OPTKING 3.0: for geometry optimizations

    			     By R.A. King, Bethel University

    			        with contributions from

    			    A.V. Copan, J. Cayton, A. Heide

    			-----------------------------------------

	                            ===> Fragment 1 <==

	 Z (Atomic Numbers)          Masses                          Geom
	       4.000000             9.012183          0.00000000  0.00000000  3.23873067
	      13.000000            26.981539          0.00000000  0.00000000 -1.08177796

	 - Coordinate -           - BOHR/RAD -       - ANG/DEG -
	 R(1,2)           =         4.320509           2.286315

	        --- Internal Coordinate Step in ANG or DEG, aJ/ANG or AJ/DEG ---
	-------------------------------------------------------------------------------
	           Coordinate      Previous         Force          Change          New
	           ----------      --------        ------          ------        ------
	               R(1,2)       2.28631        0.00048        0.00053       2.28684
	-------------------------------------------------------------------------------

	                                 ==> Convergence Check <==

	Measures of convergence in internal coordinates in au.

	Criteria marked as inactive (o), active & met (*), and active & unmet ( ).

	----------------------------------------------------------------------------------------------
	   Step    Total Energy     Delta E     Max Force     RMS Force      Max Disp      RMS Disp
	----------------------------------------------------------------------------------------------
	  Convergence Criteria     1.00e-06 *    3.00e-04 *             o    1.20e-03 *             o
	----------------------------------------------------------------------------------------------
	    12    -256.63171350   -4.83e-07 *    5.80e-05 *    5.80e-05 o    9.97e-04 *    9.97e-04 o  ~
	----------------------------------------------------------------------------------------------

Next Geometry in Ang
	Fragment 1 (Ang)

	   Be   0.0000000000   0.0000000000   1.7141262510
	   Al   0.0000000000   0.0000000000  -0.5727160338

    Final optimized geometry and variables:
    Molecular point group: c2v
    Full point group: C_inf_v

    Geometry (in Angstrom), charge = 1, multiplicity = 5:

    BE           0.000000000000     0.000000000000     1.713862459483
    AL           0.000000000000     0.000000000000    -0.572452242333

    Psi4 stopped on: Thursday, 17 July 2025 01:22PM
    Psi4 wall time for execution: 0:00:13.28

*** Psi4 exiting successfully. Buy a developer a beer!
