                               Psi4 1.9.1 release

  ==> Input File <==

--------------------------------------------------------------------------
molecule {
1 5
N   0.00000        0.60000        0.00000
Mg   0.00000       -0.60000        0.00000
}

set {
basis              cc-pvdz
reference          uks
maxiter            500
geom_maxiter       500
DAMPING_PERCENTAGE 1
guess              SAP
}

optimize('b3lyp')
--------------------------------------------------------------------------

    Molecular point group: c2v
  Charge       = 1
  Multiplicity = 5
  Basis Set: CC-PVDZ
    Blend: CC-PVDZ
  Basis Set: (CC-PVDZ AUX)
    Blend: CC-PVDZ-JKFIT + DEF2-UNIVERSAL-JKFIT
  @DF-UKS Final Energy:  -253.79000766299271
    Total Energy =                       -253.7900076629927071
 Dipole X            :          0.0000000            0.0000000            0.0000000
 Dipole Y            :          0.0000000            0.0000000            0.0000000
 Dipole Z            :          0.2902085           -0.0084525            0.2817560
 Magnitude           :                                                    0.2817560
    Molecular point group: c2v
  Basis Set: CC-PVDZ
    Blend: CC-PVDZ
  Basis Set: (CC-PVDZ AUX)
    Blend: CC-PVDZ-JKFIT + DEF2-UNIVERSAL-JKFIT
  Basis Set: CC-PVDZ
    Blend: CC-PVDZ
  Basis Set: (CC-PVDZ AUX)
    Blend: CC-PVDZ-JKFIT + DEF2-UNIVERSAL-JKFIT
  @DF-UKS Final Energy:  -254.06581015952534
    Total Energy =                       -254.0658101595253413
  Basis Set: CC-PVDZ
    Blend: CC-PVDZ
  Basis Set: (CC-PVDZ AUX)
    Blend: CC-PVDZ-JKFIT + DEF2-UNIVERSAL-JKFIT
  Basis Set: CC-PVDZ
    Blend: CC-PVDZ
  @DF-UKS Final Energy:  -254.22490410616933
    Total Energy =                       -254.2249041061693333
  @DF-UKS Final Energy:  -254.30424410301546
    Total Energy =                       -254.3042441030154635
  @DF-UKS Final Energy:  -254.34789397353757
    Total Energy =                       -254.3478939735375661
  @DF-UKS Final Energy:  -254.37223211651619
    Total Energy =                       -254.3722321165161873
  @DF-UKS Final Energy:  -254.38510790859030
    Total Energy =                       -254.3851079085902995
  @DF-UKS Final Energy:  -254.39192992583651
    Total Energy =                       -254.3919299258365072
  @DF-UKS Final Energy:  -254.39551782616613
    Total Energy =                       -254.3955178261661274
  @DF-UKS Final Energy:  -254.39730725540602
    Total Energy =                       -254.3973072554060195
  @DF-UKS Final Energy:  -254.39809858520897
    Total Energy =                       -254.3980985852089702
  @DF-UKS Final Energy:  -254.39837864890083
    Total Energy =                       -254.3983786489008594
  @DF-UKS Final Energy:  -254.39844649092828
    Total Energy =                       -254.3984464909282792
  Basis Set: (CC-PVDZ AUX)
    Blend: CC-PVDZ-JKFIT + DEF2-UNIVERSAL-JKFIT
  Basis Set: CC-PVDZ
    Blend: CC-PVDZ
  Basis Set: (CC-PVDZ AUX)
    Blend: CC-PVDZ-JKFIT + DEF2-UNIVERSAL-JKFIT
  @DF-UKS Final Energy:  -254.39845384585303
    Total Energy =                       -254.3984538458530267
  Basis Set: CC-PVDZ
    Blend: CC-PVDZ
  Basis Set: (CC-PVDZ AUX)
    Blend: CC-PVDZ-JKFIT + DEF2-UNIVERSAL-JKFIT
  Charge       = 1
  Multiplicity = 5
  Basis Set: CC-PVDZ
    Blend: CC-PVDZ
  Basis Set: (CC-PVDZ AUX)
    Blend: CC-PVDZ-JKFIT + DEF2-UNIVERSAL-JKFIT

    Orbital Energies [Eh]
    ---------------------

    Alpha Occupied:

       1A1   -47.158859     2A1   -14.631910     3A1    -3.429552
       1B2    -2.172421     1B1    -2.172421     4A1    -2.172376
       5A1    -0.995095     6A1    -0.549269     2B2    -0.534846
       2B1    -0.534846     7A1    -0.447306

    Alpha Virtual:

       3B1    -0.250035     3B2    -0.250035     8A1    -0.232357
       9A1    -0.076445    10A1    -0.033029     4B1    -0.028106
       4B2    -0.028106     5B2     0.058507     5B1     0.058507
      11A1     0.059854     1A2     0.059854    12A1     0.075073
       6B2     0.497983     6B1     0.497983    13A1     0.543842
      14A1     0.768030     7B2     1.488905     7B1     1.488905
      15A1     1.489983     2A2     1.490087    16A1     1.507622

    Beta Occupied:

       1A1   -47.155444     2A1   -14.575122     3A1    -3.423278
       1B1    -2.168264     1B2    -2.168264     4A1    -2.168093
       5A1    -0.799386

    Beta Virtual:

       6A1    -0.371815     7A1    -0.292697     2B2    -0.283230
       2B1    -0.283230     3B1    -0.204666     3B2    -0.204666
       8A1    -0.178026     9A1    -0.061587    10A1    -0.014035
       4B1    -0.010641     4B2    -0.010641     5B2     0.101538
       5B1     0.101538     1A2     0.103203    11A1     0.103206
      12A1     0.122875     6B2     0.602202     6B1     0.602202
      13A1     0.646214    14A1     0.858909     7B2     1.635144
       7B1     1.635144    15A1     1.638274     2A2     1.638393
      16A1     1.652673

    Final Occupation by Irrep:
             A1    A2    B1    B2
    DOCC [     5,    0,    1,    1 ]
    SOCC [     2,    0,    1,    1 ]
    NA   [     7,    0,    2,    2 ]
    NB   [     5,    0,    1,    1 ]

  @DF-UKS Final Energy:  -254.39845475504418

   => Energetics <=

    Nuclear Repulsion Energy =             14.5648395631484515
    One-Electron Energy =                -377.3713066958065383
    Two-Electron Energy =                 126.9929459041127302
    DFT Exchange-Correlation Energy =     -18.5849335264988191
    Empirical Dispersion Energy =           0.0000000000000000
    VV10 Nonlocal Energy =                  0.0000000000000000
    Total Energy =                       -254.3984547550441846

  UHF NO Occupations:
  HONO-2 :    2 B1 1.0000000
  HONO-1 :    2 B2 1.0000000
  HONO-0 :    7 A1 1.0000000
  LUNO+0 :    8 A1 0.0013332
  LUNO+1 :    3 B2 0.0000016
  LUNO+2 :    3 B1 0.0000016
  LUNO+3 :    9 A1 0.0000013

Computation Completed

Properties will be evaluated at   0.000000,   0.000000,   0.000000 [a0]

Properties computed using the SCF density matrix

 Multipole Moments:

 ------------------------------------------------------------------------------------
     Multipole            Electronic (a.u.)      Nuclear  (a.u.)        Total (a.u.)
 ------------------------------------------------------------------------------------

 L = 1.  Multiply by 2.5417464519 to convert [e a0] to [Debye]
 Dipole X            :          0.0000000            0.0000000            0.0000000
 Dipole Y            :          0.0000000            0.0000000            0.0000000
 Dipole Z            :         -1.6231032           -0.0214970           -1.6446001
 Magnitude           :                                                    1.6446001

 ------------------------------------------------------------------------------------

*** tstop() called on Joses-MacBook-Pro-2.local at Thu Jul 17 13:54:36 2025
Module time:
	user time   =       1.80 seconds =       0.03 minutes
	system time =       4.65 seconds =       0.08 minutes
	total time  =          1 seconds =       0.02 minutes
Total time:
	user time   =      49.95 seconds =       0.83 minutes
	system time =     112.39 seconds =       1.87 minutes
	total time  =         17 seconds =       0.28 minutes

*** tstart() called on Joses-MacBook-Pro-2.local
*** at Thu Jul 17 13:54:36 2025

         ------------------------------------------------------------
                                   SCF GRAD
                          Rob Parrish, Justin Turney,
                       Andy Simmonett, and Alex Sokolov
         ------------------------------------------------------------

  ==> Geometry <==

    Molecular point group: c2v
    Full point group: C_inf_v

    Geometry (in Angstrom), charge = 1, multiplicity = 5:

       Center              X                  Y                   Z               Mass
    ------------   -----------------  -----------------  -----------------  -----------------
         N            0.000000000000     0.000000000000     1.926936660912    14.003074004430
         MG           0.000000000000     0.000000000000    -1.124994361297    23.985041697000

  Nuclear repulsion =   14.564839563148452

  ==> Basis Set <==

  Basis Set: CC-PVDZ
    Blend: CC-PVDZ
    Number of shells: 14
    Number of basis functions: 32
    Number of Cartesian functions: 34
    Spherical Harmonics?: true
    Max angular momentum: 2

  ==> DFJKGrad: Density-Fitted SCF Gradients <==

    Gradient:                    1
    J tasked:                  Yes
    K tasked:                  Yes
    wK tasked:                  No
    OpenMP threads:              1
    Integrals threads:           1
    Memory [MiB]:              375
    Schwarz Cutoff:          1E-12
    Fitting Condition:       1E-10

   => Auxiliary Basis Set <=

  Basis Set: (CC-PVDZ AUX)
    Blend: CC-PVDZ-JKFIT + DEF2-UNIVERSAL-JKFIT
    Number of shells: 58
    Number of basis functions: 182
    Number of Cartesian functions: 218
    Spherical Harmonics?: true
    Max angular momentum: 4

  ==> DFT Potential <==

   => LibXC <=

    Version 6.2.2
    S. Lehtola, C. Steigemann, M. J.T. Oliveira, and M. A.L. Marques.,  SoftwareX 7, 1â€“5 (2018) (10.1016/j.softx.2017.11.002)

   => Composite Functional: B3LYP <=

    B3LYP Hyb-GGA Exchange-Correlation Functional

    P. J. Stephens, F. J. Devlin, C. F. Chabalowski, and M. J. Frisch.,  J. Phys. Chem. 98, 11623 (1994) (10.1021/j100096a001)

    Deriv               =              1
    GGA                 =           TRUE
    Meta                =          FALSE

    Exchange Hybrid     =           TRUE
    MP2 Hybrid          =          FALSE

   => Exchange Functionals <=

    0.0800   Slater exchange
    0.7200         Becke 88

   => Exact (HF) Exchange <=

    0.2000               HF

   => Correlation Functionals <=

    0.1900   Vosko, Wilk & Nusair (VWN5_RPA)
    0.8100   Lee, Yang & Parr

   => LibXC Density Thresholds  <==

    XC_HYB_GGA_XC_B3LYP:  1.00E-15

   => Molecular Quadrature <=

    Radial Scheme          =       TREUTLER
    Pruning Scheme         =           NONE
    Nuclear Scheme         =       TREUTLER

    Blocking Scheme        =         OCTREE
    BS radius alpha        =              1
    Pruning alpha          =              1
    Radial Points          =             75
    Spherical Points       =            302
    Total Points           =          43539
    Total Blocks           =            413
    Max Points             =            256
    Max Functions          =             32
    Weights Tolerance      =       1.00E-15

  -Total Gradient:
     Atom            X                  Y                   Z
    ------   -----------------  -----------------  -----------------
       1       -0.000000000000    -0.000000000000    -0.000014966920
       2        0.000000000000    -0.000000000000     0.000035330656

*** tstop() called on Joses-MacBook-Pro-2.local at Thu Jul 17 13:54:36 2025
Module time:
	user time   =       0.83 seconds =       0.01 minutes
	system time =       2.06 seconds =       0.03 minutes
	total time  =          0 seconds =       0.00 minutes
Total time:
	user time   =      50.78 seconds =       0.85 minutes
	system time =     114.45 seconds =       1.91 minutes
	total time  =         17 seconds =       0.28 minutes

    			-----------------------------------------

    			 OPTKING 3.0: for geometry optimizations

    			     By R.A. King, Bethel University

    			        with contributions from

    			    A.V. Copan, J. Cayton, A. Heide

    			-----------------------------------------

	                            ===> Fragment 1 <==

	 Z (Atomic Numbers)          Masses                          Geom
	       7.000000            14.003074          0.00000000  0.00000000  3.64138255
	      12.000000            23.985042          0.00000000  0.00000000 -2.12593124

	 - Coordinate -           - BOHR/RAD -       - ANG/DEG -
	 R(1,2)           =         5.767314           3.051931

	        --- Internal Coordinate Step in ANG or DEG, aJ/ANG or AJ/DEG ---
	-------------------------------------------------------------------------------
	           Coordinate      Previous         Force          Change          New
	           ----------      --------        ------          ------        ------
	               R(1,2)       3.05193        0.00021        0.00329       3.05523
	-------------------------------------------------------------------------------

	                                 ==> Convergence Check <==

	Measures of convergence in internal coordinates in au.

	Criteria marked as inactive (o), active & met (*), and active & unmet ( ).

	----------------------------------------------------------------------------------------------
	   Step    Total Energy     Delta E     Max Force     RMS Force      Max Disp      RMS Disp
	----------------------------------------------------------------------------------------------
	  Convergence Criteria     1.00e-06 *    3.00e-04 *             o    1.20e-03 *             o
	----------------------------------------------------------------------------------------------
	    15    -254.39845476   -9.09e-07 *    2.51e-05 *    2.51e-05 o    6.23e-03      6.23e-03 o  ~
	----------------------------------------------------------------------------------------------

Next Geometry in Ang
	Fragment 1 (Ang)

	    N   0.0000000000   0.0000000000   1.9285837300
	   Mg   0.0000000000   0.0000000000  -1.1266414304

    Final optimized geometry and variables:
    Molecular point group: c2v
    Full point group: C_inf_v

    Geometry (in Angstrom), charge = 1, multiplicity = 5:

    N            0.000000000000     0.000000000000     1.926936660912
    MG           0.000000000000     0.000000000000    -1.124994361297

    Psi4 stopped on: Thursday, 17 July 2025 01:54PM
    Psi4 wall time for execution: 0:00:18.08

*** Psi4 exiting successfully. Buy a developer a beer!
