                               Psi4 1.9.1 release

  ==> Input File <==

--------------------------------------------------------------------------
molecule {
1 5
Na   0.00000        0.60000        0.00000
Mg   0.00000       -0.60000        0.00000
}

set {
basis              cc-pvdz
reference          uks
maxiter            500
geom_maxiter       500
DAMPING_PERCENTAGE 1
guess              SAP
}

optimize('b3lyp')
--------------------------------------------------------------------------

    Molecular point group: c2v
  Charge       = 1
  Multiplicity = 5
  Basis Set: CC-PVDZ
    Blend: CC-PVDZ
  Basis Set: (CC-PVDZ AUX)
    Blend: DEF2-UNIVERSAL-JKFIT
  @DF-UKS Final Energy:  -360.07545429291616
    Total Energy =                       -360.0754542929161630
 Dipole X            :          0.0000000            0.0000000            0.0000000
 Dipole Y            :          0.0000000            0.0000000            0.0000000
 Dipole Z            :          0.9676896           -0.5813069            0.3863827
 Magnitude           :                                                    0.3863827
    Molecular point group: c2v
  Basis Set: CC-PVDZ
    Blend: CC-PVDZ
  Basis Set: (CC-PVDZ AUX)
    Blend: DEF2-UNIVERSAL-JKFIT
  Basis Set: CC-PVDZ
    Blend: CC-PVDZ
  Basis Set: (CC-PVDZ AUX)
    Blend: DEF2-UNIVERSAL-JKFIT
  @DF-UKS Final Energy:  -360.08080760759071
    Total Energy =                       -360.0808076075906570
  Basis Set: CC-PVDZ
    Blend: CC-PVDZ
  Basis Set: (CC-PVDZ AUX)
    Blend: DEF2-UNIVERSAL-JKFIT
  Basis Set: CC-PVDZ
    Blend: CC-PVDZ
  @DF-UKS Final Energy:  -360.09122038414944
    Total Energy =                       -360.0912203841494375
  @DF-UKS Final Energy:  -360.12980371316792
    Total Energy =                       -360.1298037131679166
  @DF-UKS Final Energy:  -360.32617519381290
    Total Energy =                       -360.3261751938129009
  @DF-UKS Final Energy:  -360.47144715094385
    Total Energy =                       -360.4714471509438454
  @DF-UKS Final Energy:  -360.58541719690010
    Total Energy =                       -360.5854171969000959
  @DF-UKS Final Energy:  -360.65630149280167
    Total Energy =                       -360.6563014928016173
  @DF-UKS Final Energy:  -360.68540166951362
    Total Energy =                       -360.6854016695136238
  @DF-UKS Final Energy:  -360.69526156348257
    Total Energy =                       -360.6952615634825747
  @DF-UKS Final Energy:  -360.74567123980995
    Total Energy =                       -360.7456712398099512
  @DF-UKS Final Energy:  -360.77345073000794
    Total Energy =                       -360.7734507300079940
  @DF-UKS Final Energy:  -360.77398940459182
    Total Energy =                       -360.7739894045918732
  @DF-UKS Final Energy:  -360.77745660706353
    Total Energy =                       -360.7774566070635274
  @DF-UKS Final Energy:  -360.77818748093051
    Total Energy =                       -360.7781874809305123
  @DF-UKS Final Energy:  -360.77837612039866
    Total Energy =                       -360.7783761203986614
  @DF-UKS Final Energy:  -360.77839466562318
    Total Energy =                       -360.7783946656231251
  Basis Set: (CC-PVDZ AUX)
    Blend: DEF2-UNIVERSAL-JKFIT
  Basis Set: CC-PVDZ
    Blend: CC-PVDZ
  Basis Set: (CC-PVDZ AUX)
    Blend: DEF2-UNIVERSAL-JKFIT
  @DF-UKS Final Energy:  -360.77839662078293
    Total Energy =                       -360.7783966207829280
  Basis Set: CC-PVDZ
    Blend: CC-PVDZ
  Basis Set: (CC-PVDZ AUX)
    Blend: DEF2-UNIVERSAL-JKFIT
  Charge       = 1
  Multiplicity = 5
  Basis Set: CC-PVDZ
    Blend: CC-PVDZ
  Basis Set: (CC-PVDZ AUX)
    Blend: DEF2-UNIVERSAL-JKFIT

    Orbital Energies [Eh]
    ---------------------

    Alpha Occupied:

       1A1   -47.085327     2A1   -39.944966     3A1    -3.360130
       4A1    -3.228880     5A1    -2.244193     1B2    -2.123295
       1B1    -2.121205     2B2    -2.103846     6A1    -2.103804
       2B1    -2.102153     7A1    -0.449817     8A1    -0.375700
       3B1    -0.280727

    Alpha Virtual:

       9A1    -0.254771     3B2    -0.236012     4B1    -0.204870
       4B2    -0.193145    10A1    -0.150920    11A1    -0.099302
       5B1    -0.073805     5B2    -0.069152    12A1    -0.066986
       1A2    -0.055066    13A1    -0.051888     6B1    -0.051196
       6B2    -0.047636    14A1    -0.039555     7B1     0.006668
       7B2     0.010483    15A1     0.024475    16A1     0.050529
       2A2     0.105609    17A1     0.107904     8B1     0.145170
       8B2     0.151784    18A1     0.241607

    Beta Occupied:

       1A1   -47.081468     2A1   -39.901227     3A1    -3.353428
       4A1    -3.109465     1B2    -2.099694     5A1    -2.099332
       1B1    -2.095482     2B2    -2.078168     2B1    -2.075052

    Beta Virtual:

       6A1    -1.842198     7A1    -0.337198     8A1    -0.287096
       9A1    -0.195372     3B2    -0.194527     3B1    -0.181318
       4B2    -0.156013     4B1    -0.143506    10A1    -0.109288
      11A1    -0.074290     5B2    -0.057343    12A1    -0.053836
       5B1    -0.052470     6B2    -0.013405    13A1    -0.013076
       1A2    -0.010111    14A1    -0.006746     6B1    -0.002992
       7B2     0.028959     7B1     0.037167    15A1     0.049991
      16A1     0.087635    17A1     0.157971     2A2     0.158184
       8B2     0.187565     8B1     0.199408    18A1     0.279206

    Final Occupation by Irrep:
             A1    A2    B1    B2
    DOCC [     5,    0,    2,    2 ]
    SOCC [     3,    0,    1,    0 ]
    NA   [     8,    0,    3,    2 ]
    NB   [     5,    0,    2,    2 ]

  @DF-UKS Final Energy:  -360.77839682386843

   => Energetics <=

    Nuclear Repulsion Energy =             19.6935507020704108
    One-Electron Energy =                -532.3055219001794285
    Two-Electron Energy =                 175.9200175906792936
    DFT Exchange-Correlation Energy =     -24.0864432164387168
    Empirical Dispersion Energy =           0.0000000000000000
    VV10 Nonlocal Energy =                  0.0000000000000000
    Total Energy =                       -360.7783968238684338

  UHF NO Occupations:
  HONO-2 :    7 A1 1.0000000
  HONO-1 :    8 A1 1.0000000
  HONO-0 :    3 B1 1.0000000
  LUNO+0 :    9 A1 0.0000022
  LUNO+1 :    3 B2 0.0000016
  LUNO+2 :    4 B1 0.0000014
  LUNO+3 :    4 B2 0.0000009

Computation Completed

Properties will be evaluated at   0.000000,   0.000000,   0.000000 [a0]

Properties computed using the SCF density matrix

 Multipole Moments:

 ------------------------------------------------------------------------------------
     Multipole            Electronic (a.u.)      Nuclear  (a.u.)        Total (a.u.)
 ------------------------------------------------------------------------------------

 L = 1.  Multiply by 2.5417464519 to convert [e a0] to [Debye]
 Dipole X            :          0.0000000            0.0000000            0.0000000
 Dipole Y            :          0.0000000            0.0000000            0.0000000
 Dipole Z            :          1.9857811           -1.7182062            0.2675748
 Magnitude           :                                                    0.2675748

 ------------------------------------------------------------------------------------

*** tstop() called on Joses-MacBook-Pro-2.local at Thu Jul 17 14:47:15 2025
Module time:
	user time   =       6.82 seconds =       0.11 minutes
	system time =       2.99 seconds =       0.05 minutes
	total time  =          1 seconds =       0.02 minutes
Total time:
	user time   =     223.71 seconds =       3.73 minutes
	system time =      84.12 seconds =       1.40 minutes
	total time  =         30 seconds =       0.50 minutes

*** tstart() called on Joses-MacBook-Pro-2.local
*** at Thu Jul 17 14:47:15 2025

         ------------------------------------------------------------
                                   SCF GRAD
                          Rob Parrish, Justin Turney,
                       Andy Simmonett, and Alex Sokolov
         ------------------------------------------------------------

  ==> Geometry <==

    Molecular point group: c2v
    Full point group: C_inf_v

    Geometry (in Angstrom), charge = 1, multiplicity = 5:

       Center              X                  Y                   Z               Mass
    ------------   -----------------  -----------------  -----------------  -----------------
         NA           0.000000000000     0.000000000000     1.811033463333    22.989769282000
         MG           0.000000000000     0.000000000000    -1.735883639894    23.985041697000

  Nuclear repulsion =   19.693550702070411

  ==> Basis Set <==

  Basis Set: CC-PVDZ
    Blend: CC-PVDZ
    Number of shells: 16
    Number of basis functions: 36
    Number of Cartesian functions: 38
    Spherical Harmonics?: true
    Max angular momentum: 2

  ==> DFJKGrad: Density-Fitted SCF Gradients <==

    Gradient:                    1
    J tasked:                  Yes
    K tasked:                  Yes
    wK tasked:                  No
    OpenMP threads:              1
    Integrals threads:           1
    Memory [MiB]:              375
    Schwarz Cutoff:          1E-12
    Fitting Condition:       1E-10

   => Auxiliary Basis Set <=

  Basis Set: (CC-PVDZ AUX)
    Blend: DEF2-UNIVERSAL-JKFIT
    Number of shells: 68
    Number of basis functions: 224
    Number of Cartesian functions: 274
    Spherical Harmonics?: true
    Max angular momentum: 4

  ==> DFT Potential <==

   => LibXC <=

    Version 6.2.2
    S. Lehtola, C. Steigemann, M. J.T. Oliveira, and M. A.L. Marques.,  SoftwareX 7, 1â€“5 (2018) (10.1016/j.softx.2017.11.002)

   => Composite Functional: B3LYP <=

    B3LYP Hyb-GGA Exchange-Correlation Functional

    P. J. Stephens, F. J. Devlin, C. F. Chabalowski, and M. J. Frisch.,  J. Phys. Chem. 98, 11623 (1994) (10.1021/j100096a001)

    Deriv               =              1
    GGA                 =           TRUE
    Meta                =          FALSE

    Exchange Hybrid     =           TRUE
    MP2 Hybrid          =          FALSE

   => Exchange Functionals <=

    0.0800   Slater exchange
    0.7200         Becke 88

   => Exact (HF) Exchange <=

    0.2000               HF

   => Correlation Functionals <=

    0.1900   Vosko, Wilk & Nusair (VWN5_RPA)
    0.8100   Lee, Yang & Parr

   => LibXC Density Thresholds  <==

    XC_HYB_GGA_XC_B3LYP:  1.00E-15

   => Molecular Quadrature <=

    Radial Scheme          =       TREUTLER
    Pruning Scheme         =           NONE
    Nuclear Scheme         =       TREUTLER

    Blocking Scheme        =         OCTREE
    BS radius alpha        =              1
    Pruning alpha          =              1
    Radial Points          =             75
    Spherical Points       =            302
    Total Points           =          43647
    Total Blocks           =            462
    Max Points             =            255
    Max Functions          =             36
    Weights Tolerance      =       1.00E-15

  -Total Gradient:
     Atom            X                  Y                   Z
    ------   -----------------  -----------------  -----------------
       1        0.000000000000    -0.000000000000    -0.000014653593
       2       -0.000000000000     0.000000000000     0.000025027985

*** tstop() called on Joses-MacBook-Pro-2.local at Thu Jul 17 14:47:16 2025
Module time:
	user time   =       2.60 seconds =       0.04 minutes
	system time =       2.83 seconds =       0.05 minutes
	total time  =          1 seconds =       0.02 minutes
Total time:
	user time   =     226.32 seconds =       3.77 minutes
	system time =      86.96 seconds =       1.45 minutes
	total time  =         31 seconds =       0.52 minutes

    			-----------------------------------------

    			 OPTKING 3.0: for geometry optimizations

    			     By R.A. King, Bethel University

    			        with contributions from

    			    A.V. Copan, J. Cayton, A. Heide

    			-----------------------------------------

	                            ===> Fragment 1 <==

	 Z (Atomic Numbers)          Masses                          Geom
	      11.000000            22.989769          0.00000000  0.00000000  3.42235725
	      12.000000            23.985042          0.00000000  0.00000000 -3.28034467

	 - Coordinate -           - BOHR/RAD -       - ANG/DEG -
	 R(1,2)           =         6.702702           3.546917

	        --- Internal Coordinate Step in ANG or DEG, aJ/ANG or AJ/DEG ---
	-------------------------------------------------------------------------------
	           Coordinate      Previous         Force          Change          New
	           ----------      --------        ------          ------        ------
	               R(1,2)       3.54692        0.00016        0.00136       3.54828
	-------------------------------------------------------------------------------

	                                 ==> Convergence Check <==

	Measures of convergence in internal coordinates in au.

	Criteria marked as inactive (o), active & met (*), and active & unmet ( ).

	----------------------------------------------------------------------------------------------
	   Step    Total Energy     Delta E     Max Force     RMS Force      Max Disp      RMS Disp
	----------------------------------------------------------------------------------------------
	  Convergence Criteria     1.00e-06 *    3.00e-04 *             o    1.20e-03 *             o
	----------------------------------------------------------------------------------------------
	    19    -360.77839682   -2.03e-07 *    1.98e-05 *    1.98e-05 o    2.57e-03      2.57e-03 o  ~
	----------------------------------------------------------------------------------------------

Next Geometry in Ang
	Fragment 1 (Ang)

	   Na   0.0000000000   0.0000000000   1.8117141622
	   Mg   0.0000000000   0.0000000000  -1.7365643387

    Final optimized geometry and variables:
    Molecular point group: c2v
    Full point group: C_inf_v

    Geometry (in Angstrom), charge = 1, multiplicity = 5:

    NA           0.000000000000     0.000000000000     1.811033463333
    MG           0.000000000000     0.000000000000    -1.735883639894

    Psi4 stopped on: Thursday, 17 July 2025 02:47PM
    Psi4 wall time for execution: 0:00:31.70

*** Psi4 exiting successfully. Buy a developer a beer!
