                               Psi4 1.9.1 release

  ==> Input File <==

--------------------------------------------------------------------------
molecule {
1 5
B   0.00000        0.60000        0.00000
Si   0.00000       -0.60000        0.00000
}

set {
basis              cc-pvdz
reference          uks
maxiter            500
geom_maxiter       500
DAMPING_PERCENTAGE 1
guess              SAP
}

optimize('b3lyp')
--------------------------------------------------------------------------

    Molecular point group: c2v
  Charge       = 1
  Multiplicity = 5
  Basis Set: CC-PVDZ
    Blend: CC-PVDZ
  Basis Set: (CC-PVDZ AUX)
    Blend: CC-PVDZ-JKFIT
  @DF-UKS Final Energy:  -313.28046230467396
    Total Energy =                       -313.2804623046739607
 Dipole X            :          0.0000000            0.0000000            0.0000000
 Dipole Y            :          0.0000000            0.0000000            0.0000000
 Dipole Z            :          0.1395462           -0.8286114           -0.6890652
 Magnitude           :                                                    0.6890652
    Molecular point group: c2v
  Basis Set: CC-PVDZ
    Blend: CC-PVDZ
  Basis Set: (CC-PVDZ AUX)
    Blend: CC-PVDZ-JKFIT
  Basis Set: CC-PVDZ
    Blend: CC-PVDZ
  Basis Set: (CC-PVDZ AUX)
    Blend: CC-PVDZ-JKFIT
  @DF-UKS Final Energy:  -313.54791463604965
    Total Energy =                       -313.5479146360495974
  Basis Set: CC-PVDZ
    Blend: CC-PVDZ
  Basis Set: (CC-PVDZ AUX)
    Blend: CC-PVDZ-JKFIT
  Basis Set: CC-PVDZ
    Blend: CC-PVDZ
  @DF-UKS Final Energy:  -313.69814224871658
    Total Energy =                       -313.6981422487166355
  @DF-UKS Final Energy:  -313.75736896789692
    Total Energy =                       -313.7573689678969231
  @DF-UKS Final Energy:  -313.77790993595647
    Total Energy =                       -313.7779099359564157
  @DF-UKS Final Energy:  -313.78217479356766
    Total Energy =                       -313.7821747935676626
  @DF-UKS Final Energy:  -313.78340524002340
    Total Energy =                       -313.7834052400233986
  @DF-UKS Final Energy:  -313.78356385086005
    Total Energy =                       -313.7835638508600482
  Basis Set: (CC-PVDZ AUX)
    Blend: CC-PVDZ-JKFIT
  Basis Set: CC-PVDZ
    Blend: CC-PVDZ
  Basis Set: (CC-PVDZ AUX)
    Blend: CC-PVDZ-JKFIT
  @DF-UKS Final Energy:  -313.78358591724776
    Total Energy =                       -313.7835859172477626
  Basis Set: CC-PVDZ
    Blend: CC-PVDZ
  Basis Set: (CC-PVDZ AUX)
    Blend: CC-PVDZ-JKFIT
  Charge       = 1
  Multiplicity = 5
  Basis Set: CC-PVDZ
    Blend: CC-PVDZ
  Basis Set: (CC-PVDZ AUX)
    Blend: CC-PVDZ-JKFIT

    Orbital Energies [Eh]
    ---------------------

    Alpha Occupied:

       1A1   -66.484343     2A1    -7.132135     3A1    -5.627043
       1B1    -3.986708     1B2    -3.986708     4A1    -3.984857
       5A1    -0.844275     6A1    -0.643096     7A1    -0.512603
       2B2    -0.508337     2B1    -0.508337

    Alpha Virtual:

       3B1    -0.323005     3B2    -0.323005     8A1    -0.166063
       9A1    -0.008482     4B2     0.039100     4B1     0.039100
      10A1     0.047774    11A1     0.054509     1A2     0.054510
      12A1     0.080799     5B1     0.095256     5B2     0.095256
       6B2     0.127028     6B1     0.127028    13A1     0.338057
      14A1     0.449089     2A2     0.449089    15A1     0.469098
       7B1     0.647424     7B2     0.647424    16A1     0.882202

    Beta Occupied:

       1A1   -66.475303     2A1    -7.103805     3A1    -5.615620
       1B1    -3.973521     1B2    -3.973521     4A1    -3.970909
       5A1    -0.748700

    Beta Virtual:

       6A1    -0.476424     2B2    -0.379615     2B1    -0.379615
       7A1    -0.320284     3B1    -0.231182     3B2    -0.231182
       8A1    -0.108123     9A1     0.026311     4B2     0.071102
       4B1     0.071102    10A1     0.095056     1A2     0.125750
      11A1     0.125750     5B1     0.145151     5B2     0.145151
      12A1     0.149263     6B2     0.193807     6B1     0.193807
      13A1     0.381423    14A1     0.525831     2A2     0.525831
      15A1     0.540428     7B1     0.739425     7B2     0.739425
      16A1     0.963908

    Final Occupation by Irrep:
             A1    A2    B1    B2
    DOCC [     5,    0,    1,    1 ]
    SOCC [     2,    0,    1,    1 ]
    NA   [     7,    0,    2,    2 ]
    NB   [     5,    0,    1,    1 ]

  @DF-UKS Final Energy:  -313.78358945238671

   => Energetics <=

    Nuclear Repulsion Energy =             19.9289804683945064
    One-Electron Energy =                -467.1966032181474020
    Two-Electron Energy =                 153.3036787996892372
    DFT Exchange-Correlation Energy =     -19.8196455023230698
    Empirical Dispersion Energy =           0.0000000000000000
    VV10 Nonlocal Energy =                  0.0000000000000000
    Total Energy =                       -313.7835894523867069

  UHF NO Occupations:
  HONO-2 :    6 A1 1.0000000
  HONO-1 :    2 B2 1.0000000
  HONO-0 :    7 A1 1.0000000
  LUNO+0 :    8 A1 0.0003183
  LUNO+1 :    3 B1 0.0000003
  LUNO+2 :    3 B2 0.0000003
  LUNO+3 :    9 A1 0.0000003

Computation Completed

Properties will be evaluated at   0.000000,   0.000000,   0.000000 [a0]

Properties computed using the SCF density matrix

 Multipole Moments:

 ------------------------------------------------------------------------------------
     Multipole            Electronic (a.u.)      Nuclear  (a.u.)        Total (a.u.)
 ------------------------------------------------------------------------------------

 L = 1.  Multiply by 2.5417464519 to convert [e a0] to [Debye]
 Dipole X            :          0.0000000            0.0000000            0.0000000
 Dipole Y            :          0.0000000            0.0000000            0.0000000
 Dipole Z            :          1.0059347           -1.2834641           -0.2775294
 Magnitude           :                                                    0.2775294

 ------------------------------------------------------------------------------------

*** tstop() called on Joses-MacBook-Pro-2.local at Thu Jul 17 13:36:27 2025
Module time:
	user time   =       2.59 seconds =       0.04 minutes
	system time =       4.87 seconds =       0.08 minutes
	total time  =          1 seconds =       0.02 minutes
Total time:
	user time   =      31.92 seconds =       0.53 minutes
	system time =      66.98 seconds =       1.12 minutes
	total time  =         10 seconds =       0.17 minutes

*** tstart() called on Joses-MacBook-Pro-2.local
*** at Thu Jul 17 13:36:27 2025

         ------------------------------------------------------------
                                   SCF GRAD
                          Rob Parrish, Justin Turney,
                       Andy Simmonett, and Alex Sokolov
         ------------------------------------------------------------

  ==> Geometry <==

    Molecular point group: c2v
    Full point group: C_inf_v

    Geometry (in Angstrom), charge = 1, multiplicity = 5:

       Center              X                  Y                   Z               Mass
    ------------   -----------------  -----------------  -----------------  -----------------
         B            0.000000000000     0.000000000000     1.333837219943    11.009305360000
         SI           0.000000000000     0.000000000000    -0.524883290404    27.976926534650

  Nuclear repulsion =   19.928980468394506

  ==> Basis Set <==

  Basis Set: CC-PVDZ
    Blend: CC-PVDZ
    Number of shells: 14
    Number of basis functions: 32
    Number of Cartesian functions: 34
    Spherical Harmonics?: true
    Max angular momentum: 2

  ==> DFJKGrad: Density-Fitted SCF Gradients <==

    Gradient:                    1
    J tasked:                  Yes
    K tasked:                  Yes
    wK tasked:                  No
    OpenMP threads:              1
    Integrals threads:           1
    Memory [MiB]:              375
    Schwarz Cutoff:          1E-12
    Fitting Condition:       1E-10

   => Auxiliary Basis Set <=

  Basis Set: (CC-PVDZ AUX)
    Blend: CC-PVDZ-JKFIT
    Number of shells: 60
    Number of basis functions: 182
    Number of Cartesian functions: 211
    Spherical Harmonics?: true
    Max angular momentum: 3

  ==> DFT Potential <==

   => LibXC <=

    Version 6.2.2
    S. Lehtola, C. Steigemann, M. J.T. Oliveira, and M. A.L. Marques.,  SoftwareX 7, 1â€“5 (2018) (10.1016/j.softx.2017.11.002)

   => Composite Functional: B3LYP <=

    B3LYP Hyb-GGA Exchange-Correlation Functional

    P. J. Stephens, F. J. Devlin, C. F. Chabalowski, and M. J. Frisch.,  J. Phys. Chem. 98, 11623 (1994) (10.1021/j100096a001)

    Deriv               =              1
    GGA                 =           TRUE
    Meta                =          FALSE

    Exchange Hybrid     =           TRUE
    MP2 Hybrid          =          FALSE

   => Exchange Functionals <=

    0.0800   Slater exchange
    0.7200         Becke 88

   => Exact (HF) Exchange <=

    0.2000               HF

   => Correlation Functionals <=

    0.1900   Vosko, Wilk & Nusair (VWN5_RPA)
    0.8100   Lee, Yang & Parr

   => LibXC Density Thresholds  <==

    XC_HYB_GGA_XC_B3LYP:  1.00E-15

   => Molecular Quadrature <=

    Radial Scheme          =       TREUTLER
    Pruning Scheme         =           NONE
    Nuclear Scheme         =       TREUTLER

    Blocking Scheme        =         OCTREE
    BS radius alpha        =              1
    Pruning alpha          =              1
    Radial Points          =             75
    Spherical Points       =            302
    Total Points           =          42109
    Total Blocks           =            384
    Max Points             =            255
    Max Functions          =             32
    Weights Tolerance      =       1.00E-15

  -Total Gradient:
     Atom            X                  Y                   Z
    ------   -----------------  -----------------  -----------------
       1       -0.000000000000     0.000000000000    -0.000283134555
       2       -0.000000000000     0.000000000000     0.000271693366

*** tstop() called on Joses-MacBook-Pro-2.local at Thu Jul 17 13:36:27 2025
Module time:
	user time   =       0.75 seconds =       0.01 minutes
	system time =       1.51 seconds =       0.03 minutes
	total time  =          0 seconds =       0.00 minutes
Total time:
	user time   =      32.67 seconds =       0.54 minutes
	system time =      68.50 seconds =       1.14 minutes
	total time  =         10 seconds =       0.17 minutes

    			-----------------------------------------

    			 OPTKING 3.0: for geometry optimizations

    			     By R.A. King, Bethel University

    			        with contributions from

    			    A.V. Copan, J. Cayton, A. Heide

    			-----------------------------------------

	                            ===> Fragment 1 <==

	 Z (Atomic Numbers)          Masses                          Geom
	       5.000000            11.009305          0.00000000  0.00000000  2.52058704
	      14.000000            27.976927          0.00000000  0.00000000 -0.99188567

	 - Coordinate -           - BOHR/RAD -       - ANG/DEG -
	 R(1,2)           =         3.512473           1.858721

	        --- Internal Coordinate Step in ANG or DEG, aJ/ANG or AJ/DEG ---
	-------------------------------------------------------------------------------
	           Coordinate      Previous         Force          Change          New
	           ----------      --------        ------          ------        ------
	               R(1,2)       1.85872        0.00229        0.00057       1.85929
	-------------------------------------------------------------------------------

	                                 ==> Convergence Check <==

	Measures of convergence in internal coordinates in au.

	Criteria marked as inactive (o), active & met (*), and active & unmet ( ).

	----------------------------------------------------------------------------------------------
	   Step    Total Energy     Delta E     Max Force     RMS Force      Max Disp      RMS Disp
	----------------------------------------------------------------------------------------------
	  Convergence Criteria     1.00e-06 *    3.00e-04 *             o    1.20e-03 *             o
	----------------------------------------------------------------------------------------------
	    10    -313.78358945   -3.54e-06      2.77e-04 *    2.77e-04 o    1.08e-03 *    1.08e-03 o  ~
	----------------------------------------------------------------------------------------------

Next Geometry in Ang
	Fragment 1 (Ang)

	    B   0.0000000000   0.0000000000   1.3341238984
	   Si   0.0000000000   0.0000000000  -0.5251699689

    Final optimized geometry and variables:
    Molecular point group: c2v
    Full point group: C_inf_v

    Geometry (in Angstrom), charge = 1, multiplicity = 5:

    B            0.000000000000     0.000000000000     1.333837219943
    SI           0.000000000000     0.000000000000    -0.524883290404

    Psi4 stopped on: Thursday, 17 July 2025 01:36PM
    Psi4 wall time for execution: 0:00:10.92

*** Psi4 exiting successfully. Buy a developer a beer!
