                               Psi4 1.9.1 release

  ==> Input File <==

--------------------------------------------------------------------------
molecule {
1 6
Ne   0.00000        0.60000        0.00000
Ar   0.00000       -0.60000        0.00000
}

set {
basis              cc-pvdz
reference          uks
maxiter            500
geom_maxiter       500
DAMPING_PERCENTAGE 1
guess              SAP
}

optimize('b3lyp')
--------------------------------------------------------------------------

    Molecular point group: c2v
  Charge       = 1
  Multiplicity = 6
  Basis Set: CC-PVDZ
    Blend: CC-PVDZ
  Basis Set: (CC-PVDZ AUX)
    Blend: CC-PVDZ-JKFIT
  @DF-UKS Final Energy:  -653.47790746284591
    Total Energy =                       -653.4779074628460194
 Dipole X            :          0.0000000            0.0000000            0.0000000
 Dipole Y            :          0.0000000            0.0000000            0.0000000
 Dipole Z            :         -0.3328091            1.5038390            1.1710299
 Magnitude           :                                                    1.1710299
    Molecular point group: c2v
  Basis Set: CC-PVDZ
    Blend: CC-PVDZ
  Basis Set: (CC-PVDZ AUX)
    Blend: CC-PVDZ-JKFIT
  Basis Set: CC-PVDZ
    Blend: CC-PVDZ
  Basis Set: (CC-PVDZ AUX)
    Blend: CC-PVDZ-JKFIT
  @DF-UKS Final Energy:  -653.73838272679620
    Total Energy =                       -653.7383827267962033
  Basis Set: CC-PVDZ
    Blend: CC-PVDZ
  Basis Set: (CC-PVDZ AUX)
    Blend: CC-PVDZ-JKFIT
  Basis Set: CC-PVDZ
    Blend: CC-PVDZ
  @DF-UKS Final Energy:  -653.87577979784771
    Total Energy =                       -653.8757797978477129
  @DF-UKS Final Energy:  -653.94094359233020
    Total Energy =                       -653.9409435923303135
  @DF-UKS Final Energy:  -653.98237071993776
    Total Energy =                       -653.9823707199377623
  @DF-UKS Final Energy:  -654.00494670100761
    Total Energy =                       -654.0049467010076114
  @DF-UKS Final Energy:  -654.01141977776524
    Total Energy =                       -654.0114197777652407
  @DF-UKS Final Energy:  -654.01332724286851
    Total Energy =                       -654.0133272428685132
  @DF-UKS Final Energy:  -654.01366571949848
    Total Energy =                       -654.0136657194984764
  @DF-UKS Final Energy:  -654.01373995164749
    Total Energy =                       -654.0137399516474943
  @DF-UKS Final Energy:  -654.01375812160541
    Total Energy =                       -654.0137581216052922
  Basis Set: (CC-PVDZ AUX)
    Blend: CC-PVDZ-JKFIT
  Basis Set: CC-PVDZ
    Blend: CC-PVDZ
  Basis Set: (CC-PVDZ AUX)
    Blend: CC-PVDZ-JKFIT
  @DF-UKS Final Energy:  -654.01376375822042
    Total Energy =                       -654.0137637582204206
  Basis Set: CC-PVDZ
    Blend: CC-PVDZ
  Basis Set: (CC-PVDZ AUX)
    Blend: CC-PVDZ-JKFIT
  Charge       = 1
  Multiplicity = 6
  Basis Set: CC-PVDZ
    Blend: CC-PVDZ
  Basis Set: (CC-PVDZ AUX)
    Blend: CC-PVDZ-JKFIT

    Orbital Energies [Eh]
    ---------------------

    Alpha Occupied:

       1A1  -115.800139     2A1   -31.481069     3A1   -11.838837
       1B2    -9.398967     1B1    -9.398967     4A1    -9.391553
       5A1    -1.911649     6A1    -1.639347     7A1    -1.089754
       2B2    -1.062120     2B1    -1.062120     8A1    -1.005535
       3B1    -0.994570     3B2    -0.994570     4B2     0.036508
       4B1     0.036508

    Alpha Virtual:

       9A1     0.139286    10A1     0.169096     5B1     0.190689
       5B2     0.190689    11A1     0.194305     1A2     0.194305
      12A1     0.199762     6B1     0.977361     6B2     0.977361
      13A1     1.075886    14A1     1.562754    15A1     4.228786
       7B2     4.233012     7B1     4.233012    16A1     4.270523
       2A2     4.270681

    Beta Occupied:

       1A1  -115.763375     2A1   -31.463857     3A1   -11.804487
       4A1    -9.354836     1B2    -9.339506     1B1    -9.339506
       5A1    -1.869265     6A1    -1.450998     2B1    -0.977762
       2B2    -0.977762     7A1    -0.968816

    Beta Virtual:

       8A1    -0.819028     3B2    -0.797502     3B1    -0.797502
       9A1     0.209034     4B2     0.215369     4B1     0.215369
      10A1     0.284473    11A1     0.307071     5B1     0.321825
       5B2     0.321825    12A1     0.355808     1A2     0.355808
       6B1     0.988172     6B2     0.988172    13A1     1.122918
      14A1     1.593078     7B2     4.278781     7B1     4.278781
      15A1     4.280550     2A2     4.280711    16A1     4.287773

    Final Occupation by Irrep:
             A1    A2    B1    B2
    DOCC [     7,    0,    2,    2 ]
    SOCC [     1,    0,    2,    2 ]
    NA   [     8,    0,    4,    4 ]
    NB   [     7,    0,    2,    2 ]

  @DF-UKS Final Energy:  -654.01376452023680

   => Energetics <=

    Nuclear Repulsion Energy =             42.4468723314635881
    One-Electron Energy =                -978.0819640869614204
    Two-Electron Energy =                 316.0939146839784826
    DFT Exchange-Correlation Energy =     -34.4725874487174409
    Empirical Dispersion Energy =           0.0000000000000000
    VV10 Nonlocal Energy =                  0.0000000000000000
    Total Energy =                       -654.0137645202368049

  UHF NO Occupations:
  HONO-2 :    4 B2 1.0000000
  HONO-1 :    4 B1 1.0000000
  HONO-0 :    8 A1 1.0000000
  LUNO+0 :    9 A1 0.0009022
  LUNO+1 :   10 A1 0.0004565
  LUNO+2 :   11 A1 0.0000378
  LUNO+3 :    5 B2 0.0000162

Computation Completed

Properties will be evaluated at   0.000000,   0.000000,   0.000000 [a0]

Properties computed using the SCF density matrix

 Multipole Moments:

 ------------------------------------------------------------------------------------
     Multipole            Electronic (a.u.)      Nuclear  (a.u.)        Total (a.u.)
 ------------------------------------------------------------------------------------

 L = 1.  Multiply by 2.5417464519 to convert [e a0] to [Debye]
 Dipole X            :          0.0000000            0.0000000            0.0000000
 Dipole Y            :          0.0000000            0.0000000            0.0000000
 Dipole Z            :         -2.6145563            2.8122120            0.1976556
 Magnitude           :                                                    0.1976556

 ------------------------------------------------------------------------------------

*** tstop() called on Joses-MacBook-Pro-2.local at Thu Jul 17 14:44:04 2025
Module time:
	user time   =       2.86 seconds =       0.05 minutes
	system time =       3.81 seconds =       0.06 minutes
	total time  =          1 seconds =       0.02 minutes
Total time:
	user time   =      53.31 seconds =       0.89 minutes
	system time =      80.92 seconds =       1.35 minutes
	total time  =         13 seconds =       0.22 minutes

*** tstart() called on Joses-MacBook-Pro-2.local
*** at Thu Jul 17 14:44:04 2025

         ------------------------------------------------------------
                                   SCF GRAD
                          Rob Parrish, Justin Turney,
                       Andy Simmonett, and Alex Sokolov
         ------------------------------------------------------------

  ==> Geometry <==

    Molecular point group: c2v
    Full point group: C_inf_v

    Geometry (in Angstrom), charge = 1, multiplicity = 6:

       Center              X                  Y                   Z               Mass
    ------------   -----------------  -----------------  -----------------  -----------------
         NE           0.000000000000     0.000000000000     1.495736854139    19.992440176200
         AR           0.000000000000     0.000000000000    -0.748289447182    39.962383123700

  Nuclear repulsion =   42.446872331463588

  ==> Basis Set <==

  Basis Set: CC-PVDZ
    Blend: CC-PVDZ
    Number of shells: 14
    Number of basis functions: 32
    Number of Cartesian functions: 34
    Spherical Harmonics?: true
    Max angular momentum: 2

  ==> DFJKGrad: Density-Fitted SCF Gradients <==

    Gradient:                    1
    J tasked:                  Yes
    K tasked:                  Yes
    wK tasked:                  No
    OpenMP threads:              1
    Integrals threads:           1
    Memory [MiB]:              375
    Schwarz Cutoff:          1E-12
    Fitting Condition:       1E-10

   => Auxiliary Basis Set <=

  Basis Set: (CC-PVDZ AUX)
    Blend: CC-PVDZ-JKFIT
    Number of shells: 60
    Number of basis functions: 182
    Number of Cartesian functions: 211
    Spherical Harmonics?: true
    Max angular momentum: 3

  ==> DFT Potential <==

   => LibXC <=

    Version 6.2.2
    S. Lehtola, C. Steigemann, M. J.T. Oliveira, and M. A.L. Marques.,  SoftwareX 7, 1â€“5 (2018) (10.1016/j.softx.2017.11.002)

   => Composite Functional: B3LYP <=

    B3LYP Hyb-GGA Exchange-Correlation Functional

    P. J. Stephens, F. J. Devlin, C. F. Chabalowski, and M. J. Frisch.,  J. Phys. Chem. 98, 11623 (1994) (10.1021/j100096a001)

    Deriv               =              1
    GGA                 =           TRUE
    Meta                =          FALSE

    Exchange Hybrid     =           TRUE
    MP2 Hybrid          =          FALSE

   => Exchange Functionals <=

    0.0800   Slater exchange
    0.7200         Becke 88

   => Exact (HF) Exchange <=

    0.2000               HF

   => Correlation Functionals <=

    0.1900   Vosko, Wilk & Nusair (VWN5_RPA)
    0.8100   Lee, Yang & Parr

   => LibXC Density Thresholds  <==

    XC_HYB_GGA_XC_B3LYP:  1.00E-15

   => Molecular Quadrature <=

    Radial Scheme          =       TREUTLER
    Pruning Scheme         =           NONE
    Nuclear Scheme         =       TREUTLER

    Blocking Scheme        =         OCTREE
    BS radius alpha        =              1
    Pruning alpha          =              1
    Radial Points          =             75
    Spherical Points       =            302
    Total Points           =          41462
    Total Blocks           =            370
    Max Points             =            255
    Max Functions          =             32
    Weights Tolerance      =       1.00E-15

  -Total Gradient:
     Atom            X                  Y                   Z
    ------   -----------------  -----------------  -----------------
       1       -0.000000000000    -0.000000000000    -0.000014278919
       2       -0.000000000000     0.000000000000     0.000076306211

*** tstop() called on Joses-MacBook-Pro-2.local at Thu Jul 17 14:44:04 2025
Module time:
	user time   =       1.09 seconds =       0.02 minutes
	system time =       0.92 seconds =       0.02 minutes
	total time  =          0 seconds =       0.00 minutes
Total time:
	user time   =      54.40 seconds =       0.91 minutes
	system time =      81.85 seconds =       1.36 minutes
	total time  =         13 seconds =       0.22 minutes

    			-----------------------------------------

    			 OPTKING 3.0: for geometry optimizations

    			     By R.A. King, Bethel University

    			        with contributions from

    			    A.V. Copan, J. Cayton, A. Heide

    			-----------------------------------------

	                            ===> Fragment 1 <==

	 Z (Atomic Numbers)          Masses                          Geom
	      10.000000            19.992440          0.00000000  0.00000000  2.82653301
	      18.000000            39.962383          0.00000000  0.00000000 -1.41406212

	 - Coordinate -           - BOHR/RAD -       - ANG/DEG -
	 R(1,2)           =         4.240595           2.244026

	        --- Internal Coordinate Step in ANG or DEG, aJ/ANG or AJ/DEG ---
	-------------------------------------------------------------------------------
	           Coordinate      Previous         Force          Change          New
	           ----------      --------        ------          ------        ------
	               R(1,2)       2.24403        0.00037        0.00056       2.24459
	-------------------------------------------------------------------------------

	                                 ==> Convergence Check <==

	Measures of convergence in internal coordinates in au.

	Criteria marked as inactive (o), active & met (*), and active & unmet ( ).

	----------------------------------------------------------------------------------------------
	   Step    Total Energy     Delta E     Max Force     RMS Force      Max Disp      RMS Disp
	----------------------------------------------------------------------------------------------
	  Convergence Criteria     1.00e-06 *    3.00e-04 *             o    1.20e-03 *             o
	----------------------------------------------------------------------------------------------
	    13    -654.01376452   -7.62e-07 *    4.53e-05 *    4.53e-05 o    1.06e-03 *    1.06e-03 o  ~
	----------------------------------------------------------------------------------------------

Next Geometry in Ang
	Fragment 1 (Ang)

	   Ne   0.0000000000   0.0000000000   1.4960167459
	   Ar   0.0000000000   0.0000000000  -0.7485693389

    Final optimized geometry and variables:
    Molecular point group: c2v
    Full point group: C_inf_v

    Geometry (in Angstrom), charge = 1, multiplicity = 6:

    NE           0.000000000000     0.000000000000     1.495736854139
    AR           0.000000000000     0.000000000000    -0.748289447182

    Psi4 stopped on: Thursday, 17 July 2025 02:44PM
    Psi4 wall time for execution: 0:00:14.09

*** Psi4 exiting successfully. Buy a developer a beer!
