                               Psi4 1.9.1 release

  ==> Input File <==

--------------------------------------------------------------------------
molecule {
1 6
B   0.00000        0.60000        0.00000
B   0.00000       -0.60000        0.00000
}

set {
basis              cc-pvdz
reference          uks
maxiter            500
geom_maxiter       500
DAMPING_PERCENTAGE 1
guess              SAP
}

optimize('b3lyp')
--------------------------------------------------------------------------

    Molecular point group: d2h
  Charge       = 1
  Multiplicity = 6
  Basis Set: CC-PVDZ
    Blend: CC-PVDZ
  Basis Set: (CC-PVDZ AUX)
    Blend: CC-PVDZ-JKFIT
  @DF-UKS Final Energy:   -48.67602298373185
    Total Energy =                        -48.6760229837318477
 Dipole X            :          0.0000000            0.0000000            0.0000000
 Dipole Y            :          0.0000000            0.0000000            0.0000000
 Dipole Z            :          0.0000000            0.0000000            0.0000000
 Magnitude           :                                                    0.0000000
    Molecular point group: d2h
  Basis Set: CC-PVDZ
    Blend: CC-PVDZ
  Basis Set: (CC-PVDZ AUX)
    Blend: CC-PVDZ-JKFIT
  Basis Set: CC-PVDZ
    Blend: CC-PVDZ
  Basis Set: (CC-PVDZ AUX)
    Blend: CC-PVDZ-JKFIT
  @DF-UKS Final Energy:   -48.80650821468075
    Total Energy =                        -48.8065082146807541
  Basis Set: CC-PVDZ
    Blend: CC-PVDZ
  Basis Set: (CC-PVDZ AUX)
    Blend: CC-PVDZ-JKFIT
  Basis Set: CC-PVDZ
    Blend: CC-PVDZ
  @DF-UKS Final Energy:   -48.83215060770085
    Total Energy =                        -48.8321506077008465
  @DF-UKS Final Energy:   -48.84369193224045
    Total Energy =                        -48.8436919322404464
  @DF-UKS Final Energy:   -48.84591860332905
    Total Energy =                        -48.8459186033290464
  @DF-UKS Final Energy:   -48.84642706530008
    Total Energy =                        -48.8464270653000838
  @DF-UKS Final Energy:   -48.84657729025005
    Total Energy =                        -48.8465772902500461
  @DF-UKS Final Energy:   -48.84659852363249
    Total Energy =                        -48.8465985236324869
  Basis Set: (CC-PVDZ AUX)
    Blend: CC-PVDZ-JKFIT
  Basis Set: CC-PVDZ
    Blend: CC-PVDZ
  Basis Set: (CC-PVDZ AUX)
    Blend: CC-PVDZ-JKFIT
  @DF-UKS Final Energy:   -48.84660202960563
    Total Energy =                        -48.8466020296056342
  Basis Set: CC-PVDZ
    Blend: CC-PVDZ
  Basis Set: (CC-PVDZ AUX)
    Blend: CC-PVDZ-JKFIT
  Charge       = 1
  Multiplicity = 6
  Basis Set: CC-PVDZ
    Blend: CC-PVDZ
  Basis Set: (CC-PVDZ AUX)
    Blend: CC-PVDZ-JKFIT

    Orbital Energies [Eh]
    ---------------------

    Alpha Occupied:

       1Ag    -7.234907     1B2u   -7.234554     2Ag    -0.938557
       2B2u   -0.654197     1B1u   -0.575686     1B3u   -0.575686
       3Ag    -0.571186

    Alpha Virtual:

       1B3g   -0.359686     1B1g   -0.359686     3B2u   -0.126080
       4Ag     0.000012     2B1u    0.005700     2B3u    0.005700
       4B2u    0.031319     5Ag     0.060098     2B1g    0.076861
       2B3g    0.076861     6Ag     0.272331     1B2g    0.272332
       3B1u    0.287687     3B3u    0.287687     5B2u    0.368227
       6B2u    0.479219     1Au     0.479219     7Ag     0.718076
       3B1g    0.760340     3B3g    0.760340     7B2u    0.857057

    Beta Occupied:

       1Ag    -7.195468     1B2u   -7.195396

    Beta Virtual:

       2Ag    -0.641793     2B2u   -0.405716     1B3u   -0.357947
       1B1u   -0.357947     3Ag    -0.321702     1B3g   -0.208691
       1B1g   -0.208691     3B2u   -0.023481     2B1u    0.063899
       2B3u    0.063899     4Ag     0.075392     2B1g    0.131834
       2B3g    0.131834     4B2u    0.139534     5Ag     0.150145
       6Ag     0.417379     1B2g    0.417426     5B2u    0.445448
       3B3u    0.456103     3B1u    0.456103     6B2u    0.615310
       1Au     0.615374     7Ag     0.865802     3B1g    0.899137
       3B3g    0.899137     7B2u    0.971947

    Final Occupation by Irrep:
             Ag   B1g   B2g   B3g    Au   B1u   B2u   B3u
    DOCC [     1,    0,    0,    0,    0,    0,    1,    0 ]
    SOCC [     2,    0,    0,    0,    0,    1,    1,    1 ]
    NA   [     3,    0,    0,    0,    0,    1,    2,    1 ]
    NB   [     1,    0,    0,    0,    0,    0,    1,    0 ]

  @DF-UKS Final Energy:   -48.84660219083356

   => Energetics <=

    Nuclear Repulsion Energy =              7.6640685779081572
    One-Electron Energy =                 -76.3894386931016527
    Two-Electron Energy =                  26.0638858512836258
    DFT Exchange-Correlation Energy =      -6.1851179269236933
    Empirical Dispersion Energy =           0.0000000000000000
    VV10 Nonlocal Energy =                  0.0000000000000000
    Total Energy =                        -48.8466021908335648

  UHF NO Occupations:
  HONO-2 :    2 Ag 1.0000000
  HONO-1 :    1B1u 1.0000000
  HONO-0 :    3 Ag 1.0000000
  LUNO+0 :    4 Ag 0.0000003
  LUNO+1 :    3B2u 0.0000003
  LUNO+2 :    5 Ag 0.0000000
  LUNO+3 :    2B3u 0.0000000

Computation Completed

Properties will be evaluated at   0.000000,   0.000000,   0.000000 [a0]

Properties computed using the SCF density matrix

 Multipole Moments:

 ------------------------------------------------------------------------------------
     Multipole            Electronic (a.u.)      Nuclear  (a.u.)        Total (a.u.)
 ------------------------------------------------------------------------------------

 L = 1.  Multiply by 2.5417464519 to convert [e a0] to [Debye]
 Dipole X            :          0.0000000            0.0000000            0.0000000
 Dipole Y            :          0.0000000            0.0000000            0.0000000
 Dipole Z            :          0.0000000            0.0000000            0.0000000
 Magnitude           :                                                    0.0000000

 ------------------------------------------------------------------------------------

*** tstop() called on Joses-MacBook-Pro-2.local at Thu Jul 17 13:29:56 2025
Module time:
	user time   =       2.48 seconds =       0.04 minutes
	system time =       2.37 seconds =       0.04 minutes
	total time  =          1 seconds =       0.02 minutes
Total time:
	user time   =      31.74 seconds =       0.53 minutes
	system time =      41.91 seconds =       0.70 minutes
	total time  =          8 seconds =       0.13 minutes

*** tstart() called on Joses-MacBook-Pro-2.local
*** at Thu Jul 17 13:29:56 2025

         ------------------------------------------------------------
                                   SCF GRAD
                          Rob Parrish, Justin Turney,
                       Andy Simmonett, and Alex Sokolov
         ------------------------------------------------------------

  ==> Geometry <==

    Molecular point group: d2h
    Full point group: D_inf_h

    Geometry (in Angstrom), charge = 1, multiplicity = 6:

       Center              X                  Y                   Z               Mass
    ------------   -----------------  -----------------  -----------------  -----------------
         B           -0.000000000000     0.863081412455     0.000000000000    11.009305360000
         B            0.000000000000    -0.863081412455     0.000000000000    11.009305360000

  Nuclear repulsion =    7.664068577908157

  ==> Basis Set <==

  Basis Set: CC-PVDZ
    Blend: CC-PVDZ
    Number of shells: 12
    Number of basis functions: 28
    Number of Cartesian functions: 30
    Spherical Harmonics?: true
    Max angular momentum: 2

  ==> DFJKGrad: Density-Fitted SCF Gradients <==

    Gradient:                    1
    J tasked:                  Yes
    K tasked:                  Yes
    wK tasked:                  No
    OpenMP threads:              1
    Integrals threads:           1
    Memory [MiB]:              375
    Schwarz Cutoff:          1E-12
    Fitting Condition:       1E-10

   => Auxiliary Basis Set <=

  Basis Set: (CC-PVDZ AUX)
    Blend: CC-PVDZ-JKFIT
    Number of shells: 48
    Number of basis functions: 140
    Number of Cartesian functions: 162
    Spherical Harmonics?: true
    Max angular momentum: 3

  ==> DFT Potential <==

   => LibXC <=

    Version 6.2.2
    S. Lehtola, C. Steigemann, M. J.T. Oliveira, and M. A.L. Marques.,  SoftwareX 7, 1â€“5 (2018) (10.1016/j.softx.2017.11.002)

   => Composite Functional: B3LYP <=

    B3LYP Hyb-GGA Exchange-Correlation Functional

    P. J. Stephens, F. J. Devlin, C. F. Chabalowski, and M. J. Frisch.,  J. Phys. Chem. 98, 11623 (1994) (10.1021/j100096a001)

    Deriv               =              1
    GGA                 =           TRUE
    Meta                =          FALSE

    Exchange Hybrid     =           TRUE
    MP2 Hybrid          =          FALSE

   => Exchange Functionals <=

    0.0800   Slater exchange
    0.7200         Becke 88

   => Exact (HF) Exchange <=

    0.2000               HF

   => Correlation Functionals <=

    0.1900   Vosko, Wilk & Nusair (VWN5_RPA)
    0.8100   Lee, Yang & Parr

   => LibXC Density Thresholds  <==

    XC_HYB_GGA_XC_B3LYP:  1.00E-15

   => Molecular Quadrature <=

    Radial Scheme          =       TREUTLER
    Pruning Scheme         =           NONE
    Nuclear Scheme         =       TREUTLER

    Blocking Scheme        =         OCTREE
    BS radius alpha        =              1
    Pruning alpha          =              1
    Radial Points          =             75
    Spherical Points       =            302
    Total Points           =          42544
    Total Blocks           =            386
    Max Points             =            252
    Max Functions          =             28
    Weights Tolerance      =       1.00E-15

  -Total Gradient:
     Atom            X                  Y                   Z
    ------   -----------------  -----------------  -----------------
       1        0.000000000000    -0.000023922949     0.000000000000
       2       -0.000000000000     0.000023922949     0.000000000000

*** tstop() called on Joses-MacBook-Pro-2.local at Thu Jul 17 13:29:56 2025
Module time:
	user time   =       0.46 seconds =       0.01 minutes
	system time =       1.11 seconds =       0.02 minutes
	total time  =          0 seconds =       0.00 minutes
Total time:
	user time   =      32.21 seconds =       0.54 minutes
	system time =      43.02 seconds =       0.72 minutes
	total time  =          8 seconds =       0.13 minutes

    			-----------------------------------------

    			 OPTKING 3.0: for geometry optimizations

    			     By R.A. King, Bethel University

    			        with contributions from

    			    A.V. Copan, J. Cayton, A. Heide

    			-----------------------------------------

	                            ===> Fragment 1 <==

	 Z (Atomic Numbers)          Masses                          Geom
	       5.000000            11.009305         -0.00000000  1.63098749  0.00000000
	       5.000000            11.009305          0.00000000 -1.63098749  0.00000000

	 - Coordinate -           - BOHR/RAD -       - ANG/DEG -
	 R(1,2)           =         3.261975           1.726163

	        --- Internal Coordinate Step in ANG or DEG, aJ/ANG or AJ/DEG ---
	-------------------------------------------------------------------------------
	           Coordinate      Previous         Force          Change          New
	           ----------      --------        ------          ------        ------
	               R(1,2)       1.72616        0.00020        0.00009       1.72625
	-------------------------------------------------------------------------------

	                                 ==> Convergence Check <==

	Measures of convergence in internal coordinates in au.

	Criteria marked as inactive (o), active & met (*), and active & unmet ( ).

	----------------------------------------------------------------------------------------------
	   Step    Total Energy     Delta E     Max Force     RMS Force      Max Disp      RMS Disp
	----------------------------------------------------------------------------------------------
	  Convergence Criteria     1.00e-06 *    3.00e-04 *             o    1.20e-03 *             o
	----------------------------------------------------------------------------------------------
	    10     -48.84660219   -1.61e-07 *    2.39e-05 *    2.39e-05 o    1.62e-04 *    1.62e-04 o  ~
	----------------------------------------------------------------------------------------------

Next Geometry in Ang
	Fragment 1 (Ang)

	    B  -0.0000000000   0.8631241530   0.0000000000
	    B   0.0000000000  -0.8631241530   0.0000000000

    Final optimized geometry and variables:
    Molecular point group: d2h
    Full point group: D_inf_h

    Geometry (in Angstrom), charge = 1, multiplicity = 6:

    B           -0.000000000000     0.863081412455     0.000000000000
    B            0.000000000000    -0.863081412455     0.000000000000

    Psi4 stopped on: Thursday, 17 July 2025 01:29PM
    Psi4 wall time for execution: 0:00:08.51

*** Psi4 exiting successfully. Buy a developer a beer!
