                               Psi4 1.9.1 release

  ==> Input File <==

--------------------------------------------------------------------------
molecule {
1 6
Cl   0.00000        0.60000        0.00000
Cl   0.00000       -0.60000        0.00000
}

set {
basis              cc-pvdz
reference          uks
maxiter            500
geom_maxiter       500
DAMPING_PERCENTAGE 1
guess              SAP
}

optimize('b3lyp')
--------------------------------------------------------------------------

    Molecular point group: d2h
  Charge       = 1
  Multiplicity = 6
  Basis Set: CC-PVDZ
    Blend: CC-PVDZ
  Basis Set: (CC-PVDZ AUX)
    Blend: CC-PVDZ-JKFIT
  @DF-UKS Final Energy:  -917.84684781144199
    Total Energy =                       -917.8468478114419895
 Dipole X            :          0.0000000            0.0000000            0.0000000
 Dipole Y            :          0.0000000            0.0000000            0.0000000
 Dipole Z            :          0.0000000            0.0000000            0.0000000
 Magnitude           :                                                    0.0000000
    Molecular point group: d2h
  Basis Set: CC-PVDZ
    Blend: CC-PVDZ
  Basis Set: (CC-PVDZ AUX)
    Blend: CC-PVDZ-JKFIT
  Basis Set: CC-PVDZ
    Blend: CC-PVDZ
  Basis Set: (CC-PVDZ AUX)
    Blend: CC-PVDZ-JKFIT
  @DF-UKS Final Energy:  -917.89527819048408
    Total Energy =                       -917.8952781904840776
  Basis Set: CC-PVDZ
    Blend: CC-PVDZ
  Basis Set: (CC-PVDZ AUX)
    Blend: CC-PVDZ-JKFIT
  Basis Set: CC-PVDZ
    Blend: CC-PVDZ
  @DF-UKS Final Energy:  -917.98382186119863
    Total Energy =                       -917.9838218611986349
  @DF-UKS Final Energy:  -918.26173412254263
    Total Energy =                       -918.2617341225426344
  @DF-UKS Final Energy:  -918.75647560998618
    Total Energy =                       -918.7564756099861825
  @DF-UKS Final Energy:  -918.93365837949534
    Total Energy =                       -918.9336583794953413
  @DF-UKS Final Energy:  -919.04966315374190
    Total Energy =                       -919.0496631537419034
  @DF-UKS Final Energy:  -919.10023098615864
    Total Energy =                       -919.1002309861586355
  @DF-UKS Final Energy:  -919.12398923571493
    Total Energy =                       -919.1239892357149301
  @DF-UKS Final Energy:  -919.13249850773366
    Total Energy =                       -919.1324985077336578
  @DF-UKS Final Energy:  -919.13423022800896
    Total Energy =                       -919.1342302280090735
  @DF-UKS Final Energy:  -919.13441048481900
    Total Energy =                       -919.1344104848190000
  Basis Set: (CC-PVDZ AUX)
    Blend: CC-PVDZ-JKFIT
  Basis Set: CC-PVDZ
    Blend: CC-PVDZ
  Basis Set: (CC-PVDZ AUX)
    Blend: CC-PVDZ-JKFIT
  @DF-UKS Final Energy:  -919.13443089092334
    Total Energy =                       -919.1344308909233405
  Basis Set: CC-PVDZ
    Blend: CC-PVDZ
  Basis Set: (CC-PVDZ AUX)
    Blend: CC-PVDZ-JKFIT
  Charge       = 1
  Multiplicity = 6
  Basis Set: CC-PVDZ
    Blend: CC-PVDZ
  Basis Set: (CC-PVDZ AUX)
    Blend: CC-PVDZ-JKFIT

    Orbital Energies [Eh]
    ---------------------

    Alpha Occupied:

       1B2u -101.998872     1Ag  -101.998872     2B2u   -9.893809
       2Ag    -9.893743     3Ag    -7.661110     3B2u   -7.660933
       1B3u   -7.652654     1B1u   -7.652654     1B1g   -7.652654
       1B3g   -7.652654     4Ag    -1.304347     4B2u   -1.163107
       5Ag    -0.860173     2B1u   -0.762009     2B3u   -0.762009
       2B3g   -0.675352     2B1g   -0.675352     5B2u   -0.561777
       6Ag     0.008409

    Alpha Virtual:

       3B3u    0.160638     3B1u    0.160638     6B2u    0.172726
       4B3u    0.240120     4B1u    0.240120     7Ag     0.245501
       3B1g    0.253596     3B3g    0.253596     1B2g    0.302679
       8Ag     0.302679     1Au     0.351825     7B2u    0.351825
       8B2u    0.374186     9Ag     0.447503     4B3g    0.537146
       4B1g    0.537146     9B2u    0.989155

    Beta Occupied:

       1Ag  -101.982143     1B2u -101.982143     2B2u   -9.876837
       2Ag    -9.876784     1B3u   -7.631771     1B1u   -7.631771
       1B1g   -7.631763     1B3g   -7.631763     3Ag    -7.629525
       3B2u   -7.629408     4Ag    -1.181263     4B2u   -1.028036
       2B1u   -0.665929     2B3u   -0.665929

    Beta Virtual:

       5Ag    -0.643279     2B3g   -0.523814     2B1g   -0.523814
       5B2u   -0.354204     6Ag     0.190321     3B3u    0.228696
       3B1u    0.228696     6B2u    0.239817     7Ag     0.298565
       3B1g    0.298864     3B3g    0.298864     4B3u    0.309455
       4B1u    0.309455     1B2g    0.385813     8Ag     0.385815
       1Au     0.438837     7B2u    0.438839     8B2u    0.474799
       9Ag     0.530640     4B3g    0.627967     4B1g    0.627967
       9B2u    1.082985

    Final Occupation by Irrep:
             Ag   B1g   B2g   B3g    Au   B1u   B2u   B3u
    DOCC [     4,    1,    0,    1,    0,    2,    4,    2 ]
    SOCC [     2,    1,    0,    1,    0,    0,    1,    0 ]
    NA   [     6,    2,    0,    2,    0,    2,    5,    2 ]
    NB   [     4,    1,    0,    1,    0,    2,    4,    2 ]

  @DF-UKS Final Energy:  -919.13443345990765

   => Energetics <=

    Nuclear Repulsion Energy =             75.7490266093517874
    One-Electron Energy =               -1408.1284692989615905
    Two-Electron Energy =                 458.4543738964357544
    DFT Exchange-Correlation Energy =     -45.2093646667336415
    Empirical Dispersion Energy =           0.0000000000000000
    VV10 Nonlocal Energy =                  0.0000000000000000
    Total Energy =                       -919.1344334599076547

  UHF NO Occupations:
  HONO-2 :    2B3g 1.0000000
  HONO-1 :    6 Ag 1.0000000
  HONO-0 :    5B2u 1.0000000
  LUNO+0 :    3B3u 0.0011178
  LUNO+1 :    3B1u 0.0011178
  LUNO+2 :    6B2u 0.0002817
  LUNO+3 :    7 Ag 0.0001161

Computation Completed

Properties will be evaluated at   0.000000,   0.000000,   0.000000 [a0]

Properties computed using the SCF density matrix

 Multipole Moments:

 ------------------------------------------------------------------------------------
     Multipole            Electronic (a.u.)      Nuclear  (a.u.)        Total (a.u.)
 ------------------------------------------------------------------------------------

 L = 1.  Multiply by 2.5417464519 to convert [e a0] to [Debye]
 Dipole X            :          0.0000000            0.0000000            0.0000000
 Dipole Y            :          0.0000000            0.0000000            0.0000000
 Dipole Z            :          0.0000000            0.0000000            0.0000000
 Magnitude           :                                                    0.0000000

 ------------------------------------------------------------------------------------

*** tstop() called on Joses-MacBook-Pro-2.local at Thu Jul 17 16:00:44 2025
Module time:
	user time   =       7.36 seconds =       0.12 minutes
	system time =       1.95 seconds =       0.03 minutes
	total time  =          0 seconds =       0.00 minutes
Total time:
	user time   =     152.79 seconds =       2.55 minutes
	system time =      45.93 seconds =       0.77 minutes
	total time  =         18 seconds =       0.30 minutes

*** tstart() called on Joses-MacBook-Pro-2.local
*** at Thu Jul 17 16:00:44 2025

         ------------------------------------------------------------
                                   SCF GRAD
                          Rob Parrish, Justin Turney,
                       Andy Simmonett, and Alex Sokolov
         ------------------------------------------------------------

  ==> Geometry <==

    Molecular point group: d2h
    Full point group: D_inf_h

    Geometry (in Angstrom), charge = 1, multiplicity = 6:

       Center              X                  Y                   Z               Mass
    ------------   -----------------  -----------------  -----------------  -----------------
         CL          -0.000000000000     1.009466528675     0.000000000000    34.968852682000
         CL           0.000000000000    -1.009466528675     0.000000000000    34.968852682000

  Nuclear repulsion =   75.749026609351787

  ==> Basis Set <==

  Basis Set: CC-PVDZ
    Blend: CC-PVDZ
    Number of shells: 16
    Number of basis functions: 36
    Number of Cartesian functions: 38
    Spherical Harmonics?: true
    Max angular momentum: 2

  ==> DFJKGrad: Density-Fitted SCF Gradients <==

    Gradient:                    1
    J tasked:                  Yes
    K tasked:                  Yes
    wK tasked:                  No
    OpenMP threads:              1
    Integrals threads:           1
    Memory [MiB]:              375
    Schwarz Cutoff:          1E-12
    Fitting Condition:       1E-10

   => Auxiliary Basis Set <=

  Basis Set: (CC-PVDZ AUX)
    Blend: CC-PVDZ-JKFIT
    Number of shells: 72
    Number of basis functions: 224
    Number of Cartesian functions: 260
    Spherical Harmonics?: true
    Max angular momentum: 3

  ==> DFT Potential <==

   => LibXC <=

    Version 6.2.2
    S. Lehtola, C. Steigemann, M. J.T. Oliveira, and M. A.L. Marques.,  SoftwareX 7, 1â€“5 (2018) (10.1016/j.softx.2017.11.002)

   => Composite Functional: B3LYP <=

    B3LYP Hyb-GGA Exchange-Correlation Functional

    P. J. Stephens, F. J. Devlin, C. F. Chabalowski, and M. J. Frisch.,  J. Phys. Chem. 98, 11623 (1994) (10.1021/j100096a001)

    Deriv               =              1
    GGA                 =           TRUE
    Meta                =          FALSE

    Exchange Hybrid     =           TRUE
    MP2 Hybrid          =          FALSE

   => Exchange Functionals <=

    0.0800   Slater exchange
    0.7200         Becke 88

   => Exact (HF) Exchange <=

    0.2000               HF

   => Correlation Functionals <=

    0.1900   Vosko, Wilk & Nusair (VWN5_RPA)
    0.8100   Lee, Yang & Parr

   => LibXC Density Thresholds  <==

    XC_HYB_GGA_XC_B3LYP:  1.00E-15

   => Molecular Quadrature <=

    Radial Scheme          =       TREUTLER
    Pruning Scheme         =           NONE
    Nuclear Scheme         =       TREUTLER

    Blocking Scheme        =         OCTREE
    BS radius alpha        =              1
    Pruning alpha          =              1
    Radial Points          =             75
    Spherical Points       =            302
    Total Points           =          39646
    Total Blocks           =            372
    Max Points             =            251
    Max Functions          =             36
    Weights Tolerance      =       1.00E-15

  -Total Gradient:
     Atom            X                  Y                   Z
    ------   -----------------  -----------------  -----------------
       1        0.000000000000    -0.000275480790     0.000000000000
       2       -0.000000000000     0.000275480790    -0.000000000000

*** tstop() called on Joses-MacBook-Pro-2.local at Thu Jul 17 16:00:45 2025
Module time:
	user time   =       2.41 seconds =       0.04 minutes
	system time =       1.11 seconds =       0.02 minutes
	total time  =          1 seconds =       0.02 minutes
Total time:
	user time   =     155.21 seconds =       2.59 minutes
	system time =      47.04 seconds =       0.78 minutes
	total time  =         19 seconds =       0.32 minutes

    			-----------------------------------------

    			 OPTKING 3.0: for geometry optimizations

    			     By R.A. King, Bethel University

    			        with contributions from

    			    A.V. Copan, J. Cayton, A. Heide

    			-----------------------------------------

	                            ===> Fragment 1 <==

	 Z (Atomic Numbers)          Masses                          Geom
	      17.000000            34.968853         -0.00000000  1.90761527  0.00000000
	      17.000000            34.968853          0.00000000 -1.90761527  0.00000000

	 - Coordinate -           - BOHR/RAD -       - ANG/DEG -
	 R(1,2)           =         3.815231           2.018933

	        --- Internal Coordinate Step in ANG or DEG, aJ/ANG or AJ/DEG ---
	-------------------------------------------------------------------------------
	           Coordinate      Previous         Force          Change          New
	           ----------      --------        ------          ------        ------
	               R(1,2)       2.01893        0.00227        0.00046       2.01940
	-------------------------------------------------------------------------------

	                                 ==> Convergence Check <==

	Measures of convergence in internal coordinates in au.

	Criteria marked as inactive (o), active & met (*), and active & unmet ( ).

	----------------------------------------------------------------------------------------------
	   Step    Total Energy     Delta E     Max Force     RMS Force      Max Disp      RMS Disp
	----------------------------------------------------------------------------------------------
	  Convergence Criteria     1.00e-06 *    3.00e-04 *             o    1.20e-03 *             o
	----------------------------------------------------------------------------------------------
	    14    -919.13443346   -2.57e-06      2.75e-04 *    2.75e-04 o    8.74e-04 *    8.74e-04 o  ~
	----------------------------------------------------------------------------------------------

Next Geometry in Ang
	Fragment 1 (Ang)

	   Cl  -0.0000000000   1.0096978436   0.0000000000
	   Cl   0.0000000000  -1.0096978436   0.0000000000

    Final optimized geometry and variables:
    Molecular point group: d2h
    Full point group: D_inf_h

    Geometry (in Angstrom), charge = 1, multiplicity = 6:

    CL          -0.000000000000     1.009466528675     0.000000000000
    CL           0.000000000000    -1.009466528675     0.000000000000

    Psi4 stopped on: Thursday, 17 July 2025 04:00PM
    Psi4 wall time for execution: 0:00:19.95

*** Psi4 exiting successfully. Buy a developer a beer!
