                               Psi4 1.9.1 release

  ==> Input File <==

--------------------------------------------------------------------------
molecule {
1 6
N   0.00000        0.60000        0.00000
F   0.00000       -0.60000        0.00000
}

set {
basis              cc-pvdz
reference          uks
maxiter            500
geom_maxiter       500
DAMPING_PERCENTAGE 1
guess              SAP
}

optimize('b3lyp')
--------------------------------------------------------------------------

    Molecular point group: c2v
  Charge       = 1
  Multiplicity = 6
  Basis Set: CC-PVDZ
    Blend: CC-PVDZ
  Basis Set: (CC-PVDZ AUX)
    Blend: CC-PVDZ-JKFIT
  @DF-UKS Final Energy:  -153.26659556716419
    Total Energy =                       -153.2665955671641598
 Dipole X            :          0.0000000            0.0000000            0.0000000
 Dipole Y            :          0.0000000            0.0000000            0.0000000
 Dipole Z            :         -0.3480635            0.4783305            0.1302670
 Magnitude           :                                                    0.1302670
    Molecular point group: c2v
  Basis Set: CC-PVDZ
    Blend: CC-PVDZ
  Basis Set: (CC-PVDZ AUX)
    Blend: CC-PVDZ-JKFIT
  Basis Set: CC-PVDZ
    Blend: CC-PVDZ
  Basis Set: (CC-PVDZ AUX)
    Blend: CC-PVDZ-JKFIT
  @DF-UKS Final Energy:  -153.56617376862900
    Total Energy =                       -153.5661737686289996
  Basis Set: CC-PVDZ
    Blend: CC-PVDZ
  Basis Set: (CC-PVDZ AUX)
    Blend: CC-PVDZ-JKFIT
  Basis Set: CC-PVDZ
    Blend: CC-PVDZ
  @DF-UKS Final Energy:  -153.63059214045282
    Total Energy =                       -153.6305921404528192
  @DF-UKS Final Energy:  -153.67049371121962
    Total Energy =                       -153.6704937112196205
  @DF-UKS Final Energy:  -153.68785186945775
    Total Energy =                       -153.6878518694577451
  @DF-UKS Final Energy:  -153.69543647946767
    Total Energy =                       -153.6954364794676735
  @DF-UKS Final Energy:  -153.69824201540743
    Total Energy =                       -153.6982420154074305
  @DF-UKS Final Energy:  -153.69894527078276
    Total Energy =                       -153.6989452707827581
  @DF-UKS Final Energy:  -153.69922157855666
    Total Energy =                       -153.6992215785566600
  @DF-UKS Final Energy:  -153.69927960834255
    Total Energy =                       -153.6992796083425787
  @DF-UKS Final Energy:  -153.69929357076683
    Total Energy =                       -153.6992935707668551
  Basis Set: (CC-PVDZ AUX)
    Blend: CC-PVDZ-JKFIT
  Basis Set: CC-PVDZ
    Blend: CC-PVDZ
  Basis Set: (CC-PVDZ AUX)
    Blend: CC-PVDZ-JKFIT
  @DF-UKS Final Energy:  -153.69929790255739
    Total Energy =                       -153.6992979025573618
  Basis Set: CC-PVDZ
    Blend: CC-PVDZ
  Basis Set: (CC-PVDZ AUX)
    Blend: CC-PVDZ-JKFIT
  Charge       = 1
  Multiplicity = 6
  Basis Set: CC-PVDZ
    Blend: CC-PVDZ
  Basis Set: (CC-PVDZ AUX)
    Blend: CC-PVDZ-JKFIT

    Orbital Energies [Eh]
    ---------------------

    Alpha Occupied:

       1A1   -25.428787     2A1   -14.765599     3A1    -1.793558
       4A1    -1.125822     1B2    -1.093417     5A1    -1.064817
       1B1    -0.997973     6A1    -0.654464     2B2    -0.651937
       2B1    -0.651404

    Alpha Virtual:

       7A1     0.360457     3B2     0.368701     3B1     0.373130
       8A1     0.468262     4B2     0.608155     4B1     0.656189
       9A1     0.712945    10A1     1.068672     5B2     1.372983
       5B1     1.373771     1A2     1.374795    11A1     1.374795
      12A1     1.504502     6B2     2.866166    13A1     2.877783
       2A2     2.919545     6B1     2.936971    14A1     2.960189

    Beta Occupied:

       1A1   -25.368918     2A1   -14.695645     3A1    -1.626446
       1B1    -0.938753     4A1    -0.894051

    Beta Virtual:

       5A1    -0.773652     1B2    -0.750085     6A1    -0.368847
       2B2    -0.367401     2B1    -0.367005     7A1     0.472674
       3B1     0.480977     3B2     0.483747     8A1     0.581825
       4B1     0.690074     4B2     0.723151     9A1     0.804537
      10A1     1.166893     5B2     1.538292     5B1     1.538696
      11A1     1.542455     1A2     1.542455    12A1     1.652864
       6B1     3.025692     2A2     3.028582    13A1     3.037667
       6B2     3.049463    14A1     3.066799

    Final Occupation by Irrep:
             A1    A2    B1    B2
    DOCC [     4,    0,    1,    0 ]
    SOCC [     2,    0,    1,    2 ]
    NA   [     6,    0,    2,    2 ]
    NB   [     4,    0,    1,    0 ]

  @DF-UKS Final Energy:  -153.69929848794550

   => Energetics <=

    Nuclear Repulsion Energy =             14.7034126913652496
    One-Electron Energy =                -235.3504903901634862
    Two-Electron Energy =                  80.4575472360820356
    DFT Exchange-Correlation Energy =     -13.5097680252293166
    Empirical Dispersion Energy =           0.0000000000000000
    VV10 Nonlocal Energy =                  0.0000000000000000
    Total Energy =                       -153.6992984879454980

  UHF NO Occupations:
  HONO-2 :    1 B2 1.0000000
  HONO-1 :    6 A1 1.0000000
  HONO-0 :    2 B2 1.0000000
  LUNO+0 :    7 A1 0.0021913
  LUNO+1 :    8 A1 0.0004821
  LUNO+2 :    3 B1 0.0001722
  LUNO+3 :    9 A1 0.0000005

Computation Completed

Properties will be evaluated at   0.000000,   0.000000,   0.000000 [a0]

Properties computed using the SCF density matrix

 Multipole Moments:

 ------------------------------------------------------------------------------------
     Multipole            Electronic (a.u.)      Nuclear  (a.u.)        Total (a.u.)
 ------------------------------------------------------------------------------------

 L = 1.  Multiply by 2.5417464519 to convert [e a0] to [Debye]
 Dipole X            :          0.0000000            0.0000000            0.0000000
 Dipole Y            :          0.0000000            0.0000000            0.0000000
 Dipole Z            :         -1.4662050            0.9037960           -0.5624090
 Magnitude           :                                                    0.5624090

 ------------------------------------------------------------------------------------

*** tstop() called on Joses-MacBook-Pro-2.local at Thu Jul 17 13:52:08 2025
Module time:
	user time   =       1.94 seconds =       0.03 minutes
	system time =       4.27 seconds =       0.07 minutes
	total time  =          1 seconds =       0.02 minutes
Total time:
	user time   =      43.20 seconds =       0.72 minutes
	system time =      80.23 seconds =       1.34 minutes
	total time  =         13 seconds =       0.22 minutes

*** tstart() called on Joses-MacBook-Pro-2.local
*** at Thu Jul 17 13:52:08 2025

         ------------------------------------------------------------
                                   SCF GRAD
                          Rob Parrish, Justin Turney,
                       Andy Simmonett, and Alex Sokolov
         ------------------------------------------------------------

  ==> Geometry <==

    Molecular point group: c2v
    Full point group: C_inf_v

    Geometry (in Angstrom), charge = 1, multiplicity = 6:

       Center              X                  Y                   Z               Mass
    ------------   -----------------  -----------------  -----------------  -----------------
         N            0.000000000000     0.000000000000     1.305290734124    14.003074004430
         F            0.000000000000     0.000000000000    -0.962085212672    18.998403162730

  Nuclear repulsion =   14.703412691365250

  ==> Basis Set <==

  Basis Set: CC-PVDZ
    Blend: CC-PVDZ
    Number of shells: 12
    Number of basis functions: 28
    Number of Cartesian functions: 30
    Spherical Harmonics?: true
    Max angular momentum: 2

  ==> DFJKGrad: Density-Fitted SCF Gradients <==

    Gradient:                    1
    J tasked:                  Yes
    K tasked:                  Yes
    wK tasked:                  No
    OpenMP threads:              1
    Integrals threads:           1
    Memory [MiB]:              375
    Schwarz Cutoff:          1E-12
    Fitting Condition:       1E-10

   => Auxiliary Basis Set <=

  Basis Set: (CC-PVDZ AUX)
    Blend: CC-PVDZ-JKFIT
    Number of shells: 48
    Number of basis functions: 140
    Number of Cartesian functions: 162
    Spherical Harmonics?: true
    Max angular momentum: 3

  ==> DFT Potential <==

   => LibXC <=

    Version 6.2.2
    S. Lehtola, C. Steigemann, M. J.T. Oliveira, and M. A.L. Marques.,  SoftwareX 7, 1â€“5 (2018) (10.1016/j.softx.2017.11.002)

   => Composite Functional: B3LYP <=

    B3LYP Hyb-GGA Exchange-Correlation Functional

    P. J. Stephens, F. J. Devlin, C. F. Chabalowski, and M. J. Frisch.,  J. Phys. Chem. 98, 11623 (1994) (10.1021/j100096a001)

    Deriv               =              1
    GGA                 =           TRUE
    Meta                =          FALSE

    Exchange Hybrid     =           TRUE
    MP2 Hybrid          =          FALSE

   => Exchange Functionals <=

    0.0800   Slater exchange
    0.7200         Becke 88

   => Exact (HF) Exchange <=

    0.2000               HF

   => Correlation Functionals <=

    0.1900   Vosko, Wilk & Nusair (VWN5_RPA)
    0.8100   Lee, Yang & Parr

   => LibXC Density Thresholds  <==

    XC_HYB_GGA_XC_B3LYP:  1.00E-15

   => Molecular Quadrature <=

    Radial Scheme          =       TREUTLER
    Pruning Scheme         =           NONE
    Nuclear Scheme         =       TREUTLER

    Blocking Scheme        =         OCTREE
    BS radius alpha        =              1
    Pruning alpha          =              1
    Radial Points          =             75
    Spherical Points       =            302
    Total Points           =          42628
    Total Blocks           =            374
    Max Points             =            256
    Max Functions          =             28
    Weights Tolerance      =       1.00E-15

  -Total Gradient:
     Atom            X                  Y                   Z
    ------   -----------------  -----------------  -----------------
       1        0.000000000000    -0.000000000000    -0.000045026569
       2        0.000000000000     0.000000000000     0.000028079473

*** tstop() called on Joses-MacBook-Pro-2.local at Thu Jul 17 13:52:08 2025
Module time:
	user time   =       0.66 seconds =       0.01 minutes
	system time =       1.18 seconds =       0.02 minutes
	total time  =          0 seconds =       0.00 minutes
Total time:
	user time   =      43.87 seconds =       0.73 minutes
	system time =      81.42 seconds =       1.36 minutes
	total time  =         13 seconds =       0.22 minutes

    			-----------------------------------------

    			 OPTKING 3.0: for geometry optimizations

    			     By R.A. King, Bethel University

    			        with contributions from

    			    A.V. Copan, J. Cayton, A. Heide

    			-----------------------------------------

	                            ===> Fragment 1 <==

	 Z (Atomic Numbers)          Masses                          Geom
	       7.000000            14.003074          0.00000000  0.00000000  2.46664200
	       9.000000            18.998403          0.00000000  0.00000000 -1.81807756

	 - Coordinate -           - BOHR/RAD -       - ANG/DEG -
	 R(1,2)           =         4.284720           2.267376

	        --- Internal Coordinate Step in ANG or DEG, aJ/ANG or AJ/DEG ---
	-------------------------------------------------------------------------------
	           Coordinate      Previous         Force          Change          New
	           ----------      --------        ------          ------        ------
	               R(1,2)       2.26738        0.00030        0.00080       2.26818
	-------------------------------------------------------------------------------

	                                 ==> Convergence Check <==

	Measures of convergence in internal coordinates in au.

	Criteria marked as inactive (o), active & met (*), and active & unmet ( ).

	----------------------------------------------------------------------------------------------
	   Step    Total Energy     Delta E     Max Force     RMS Force      Max Disp      RMS Disp
	----------------------------------------------------------------------------------------------
	  Convergence Criteria     1.00e-06 *    3.00e-04 *             o    1.20e-03 *             o
	----------------------------------------------------------------------------------------------
	    13    -153.69929849   -5.85e-07 *    3.66e-05 *    3.66e-05 o    1.52e-03      1.52e-03 o  ~
	----------------------------------------------------------------------------------------------

Next Geometry in Ang
	Fragment 1 (Ang)

	    N   0.0000000000   0.0000000000   1.3056921156
	    F   0.0000000000   0.0000000000  -0.9624865942

    Final optimized geometry and variables:
    Molecular point group: c2v
    Full point group: C_inf_v

    Geometry (in Angstrom), charge = 1, multiplicity = 6:

    N            0.000000000000     0.000000000000     1.305290734124
    F            0.000000000000     0.000000000000    -0.962085212672

    Psi4 stopped on: Thursday, 17 July 2025 01:52PM
    Psi4 wall time for execution: 0:00:13.46

*** Psi4 exiting successfully. Buy a developer a beer!
