                               Psi4 1.9.1 release

  ==> Input File <==

--------------------------------------------------------------------------
molecule {
1 6
Mg   0.00000        0.60000        0.00000
Si   0.00000       -0.60000        0.00000
}

set {
basis              cc-pvdz
reference          uks
maxiter            500
geom_maxiter       500
DAMPING_PERCENTAGE 1
guess              SAP
}

optimize('b3lyp')
--------------------------------------------------------------------------

    Molecular point group: c2v
  Charge       = 1
  Multiplicity = 6
  Basis Set: CC-PVDZ
    Blend: CC-PVDZ
  Basis Set: (CC-PVDZ AUX)
    Blend: CC-PVDZ-JKFIT + DEF2-UNIVERSAL-JKFIT
  @DF-UKS Final Energy:  -487.89448211191859
    Total Energy =                       -487.8944821119185917
 Dipole X            :          0.0000000            0.0000000            0.0000000
 Dipole Y            :          0.0000000            0.0000000            0.0000000
 Dipole Z            :         -0.7144240           -0.0029443           -0.7173682
 Magnitude           :                                                    0.7173682
    Molecular point group: c2v
  Basis Set: CC-PVDZ
    Blend: CC-PVDZ
  Basis Set: (CC-PVDZ AUX)
    Blend: CC-PVDZ-JKFIT + DEF2-UNIVERSAL-JKFIT
  Basis Set: CC-PVDZ
    Blend: CC-PVDZ
  Basis Set: (CC-PVDZ AUX)
    Blend: CC-PVDZ-JKFIT + DEF2-UNIVERSAL-JKFIT
  @DF-UKS Final Energy:  -487.90728335158485
    Total Energy =                       -487.9072833515848515
  Basis Set: CC-PVDZ
    Blend: CC-PVDZ
  Basis Set: (CC-PVDZ AUX)
    Blend: CC-PVDZ-JKFIT + DEF2-UNIVERSAL-JKFIT
  Basis Set: CC-PVDZ
    Blend: CC-PVDZ
  @DF-UKS Final Energy:  -487.93206832219363
    Total Energy =                       -487.9320683221936292
  @DF-UKS Final Energy:  -488.02271421964230
    Total Energy =                       -488.0227142196422960
  @DF-UKS Final Energy:  -488.43987926466463
    Total Energy =                       -488.4398792646646257
  @DF-UKS Final Energy:  -488.70080004206812
    Total Energy =                       -488.7008000420681242
  @DF-UKS Final Energy:  -488.86005540427010
    Total Energy =                       -488.8600554042700992
  @DF-UKS Final Energy:  -488.94071030057455
    Total Energy =                       -488.9407103005745512
  @DF-UKS Final Energy:  -488.98531694379233
    Total Energy =                       -488.9853169437923839
  @DF-UKS Final Energy:  -489.00977621432367
    Total Energy =                       -489.0097762143236650
  @DF-UKS Final Energy:  -489.02301213922198
    Total Energy =                       -489.0230121392219758
  @DF-UKS Final Energy:  -489.02995004892773
    Total Energy =                       -489.0299500489277307
  @DF-UKS Final Energy:  -489.03330776354858
    Total Energy =                       -489.0333077635485779
  @DF-UKS Final Energy:  -489.03470171309408
    Total Energy =                       -489.0347017130940799
  @DF-UKS Final Energy:  -489.03514710715694
    Total Energy =                       -489.0351471071569449
  @DF-UKS Final Energy:  -489.03523788961161
    Total Energy =                       -489.0352378896116079
  Basis Set: (CC-PVDZ AUX)
    Blend: CC-PVDZ-JKFIT + DEF2-UNIVERSAL-JKFIT
  Basis Set: CC-PVDZ
    Blend: CC-PVDZ
  Basis Set: (CC-PVDZ AUX)
    Blend: CC-PVDZ-JKFIT + DEF2-UNIVERSAL-JKFIT
  @DF-UKS Final Energy:  -489.03524499716883
    Total Energy =                       -489.0352449971688884
  Basis Set: CC-PVDZ
    Blend: CC-PVDZ
  Basis Set: (CC-PVDZ AUX)
    Blend: CC-PVDZ-JKFIT + DEF2-UNIVERSAL-JKFIT
  Charge       = 1
  Multiplicity = 6
  Basis Set: CC-PVDZ
    Blend: CC-PVDZ
  Basis Set: (CC-PVDZ AUX)
    Blend: CC-PVDZ-JKFIT + DEF2-UNIVERSAL-JKFIT

    Orbital Energies [Eh]
    ---------------------

    Alpha Occupied:

       1A1   -66.381478     2A1   -47.137831     3A1    -5.524855
       4A1    -3.885287     1B2    -3.884389     1B1    -3.884389
       5A1    -3.409841     2B1    -2.152833     2B2    -2.152833
       6A1    -2.152565     7A1    -0.675778     8A1    -0.458596
       9A1    -0.385759     3B2    -0.385756     3B1    -0.385756

    Alpha Virtual:

       4B2    -0.239641     4B1    -0.239641    10A1    -0.219704
      11A1    -0.072115    12A1    -0.040695     5B2    -0.021207
       5B1    -0.021207    13A1     0.048287     6B1     0.048406
       6B2     0.048406     1A2     0.072607    14A1     0.072607
      15A1     0.134449     7B1     0.135712     7B2     0.135712
      16A1     0.143018    17A1     0.144003     2A2     0.144005
       8B1     0.178107     8B2     0.178107    18A1     0.333355

    Beta Occupied:

       1A1   -66.365395     2A1   -47.134248     3A1    -5.503774
       4A1    -3.863582     1B2    -3.861482     1B1    -3.861482
       5A1    -3.403362     2B1    -2.148567     2B2    -2.148567
       6A1    -2.147615

    Beta Virtual:

       7A1    -0.449946     8A1    -0.351617     9A1    -0.229600
       3B2    -0.213446     3B1    -0.213446     4B2    -0.181106
       4B1    -0.181106    10A1    -0.146318    11A1    -0.048657
      12A1    -0.010903     5B2    -0.001281     5B1    -0.001281
       6B1     0.102999     6B2     0.102999    13A1     0.111363
      14A1     0.113359     1A2     0.113366    15A1     0.204195
       7B1     0.221537     7B2     0.221537    16A1     0.251698
       2A2     0.286685    17A1     0.286760     8B1     0.294129
       8B2     0.294129    18A1     0.413764

    Final Occupation by Irrep:
             A1    A2    B1    B2
    DOCC [     6,    0,    2,    2 ]
    SOCC [     3,    0,    1,    1 ]
    NA   [     9,    0,    3,    3 ]
    NB   [     6,    0,    2,    2 ]

  @DF-UKS Final Energy:  -489.03524548103456

   => Energetics <=

    Nuclear Repulsion Energy =             24.7646667699729299
    One-Electron Energy =                -722.9881507714059126
    Two-Electron Energy =                 239.0869505024212742
    DFT Exchange-Correlation Energy =     -29.8987119820227853
    Empirical Dispersion Energy =           0.0000000000000000
    VV10 Nonlocal Energy =                  0.0000000000000000
    Total Energy =                       -489.0352454810345648

  UHF NO Occupations:
  HONO-2 :    3 B1 1.0000000
  HONO-1 :    3 B2 1.0000000
  HONO-0 :    9 A1 1.0000000
  LUNO+0 :    4 B2 0.0000014
  LUNO+1 :    4 B1 0.0000014
  LUNO+2 :   10 A1 0.0000013
  LUNO+3 :    5 B2 0.0000002

Computation Completed

Properties will be evaluated at   0.000000,   0.000000,   0.000000 [a0]

Properties computed using the SCF density matrix

 Multipole Moments:

 ------------------------------------------------------------------------------------
     Multipole            Electronic (a.u.)      Nuclear  (a.u.)        Total (a.u.)
 ------------------------------------------------------------------------------------

 L = 1.  Multiply by 2.5417464519 to convert [e a0] to [Debye]
 Dipole X            :          0.0000000            0.0000000            0.0000000
 Dipole Y            :          0.0000000            0.0000000            0.0000000
 Dipole Z            :          2.3482867           -0.0088079            2.3394788
 Magnitude           :                                                    2.3394788

 ------------------------------------------------------------------------------------

*** tstop() called on Joses-MacBook-Pro-2.local at Thu Jul 17 15:06:44 2025
Module time:
	user time   =       6.57 seconds =       0.11 minutes
	system time =       1.83 seconds =       0.03 minutes
	total time  =          1 seconds =       0.02 minutes
Total time:
	user time   =     225.29 seconds =       3.75 minutes
	system time =      62.55 seconds =       1.04 minutes
	total time  =         28 seconds =       0.47 minutes

*** tstart() called on Joses-MacBook-Pro-2.local
*** at Thu Jul 17 15:06:44 2025

         ------------------------------------------------------------
                                   SCF GRAD
                          Rob Parrish, Justin Turney,
                       Andy Simmonett, and Alex Sokolov
         ------------------------------------------------------------

  ==> Geometry <==

    Molecular point group: c2v
    Full point group: C_inf_v

    Geometry (in Angstrom), charge = 1, multiplicity = 6:

       Center              X                  Y                   Z               Mass
    ------------   -----------------  -----------------  -----------------  -----------------
         MG           0.000000000000     0.000000000000     1.932824114275    23.985041697000
         SI           0.000000000000     0.000000000000    -1.657039307604    27.976926534650

  Nuclear repulsion =   24.764666769972930

  ==> Basis Set <==

  Basis Set: CC-PVDZ
    Blend: CC-PVDZ
    Number of shells: 16
    Number of basis functions: 36
    Number of Cartesian functions: 38
    Spherical Harmonics?: true
    Max angular momentum: 2

  ==> DFJKGrad: Density-Fitted SCF Gradients <==

    Gradient:                    1
    J tasked:                  Yes
    K tasked:                  Yes
    wK tasked:                  No
    OpenMP threads:              1
    Integrals threads:           1
    Memory [MiB]:              375
    Schwarz Cutoff:          1E-12
    Fitting Condition:       1E-10

   => Auxiliary Basis Set <=

  Basis Set: (CC-PVDZ AUX)
    Blend: CC-PVDZ-JKFIT + DEF2-UNIVERSAL-JKFIT
    Number of shells: 70
    Number of basis functions: 224
    Number of Cartesian functions: 267
    Spherical Harmonics?: true
    Max angular momentum: 4

  ==> DFT Potential <==

   => LibXC <=

    Version 6.2.2
    S. Lehtola, C. Steigemann, M. J.T. Oliveira, and M. A.L. Marques.,  SoftwareX 7, 1â€“5 (2018) (10.1016/j.softx.2017.11.002)

   => Composite Functional: B3LYP <=

    B3LYP Hyb-GGA Exchange-Correlation Functional

    P. J. Stephens, F. J. Devlin, C. F. Chabalowski, and M. J. Frisch.,  J. Phys. Chem. 98, 11623 (1994) (10.1021/j100096a001)

    Deriv               =              1
    GGA                 =           TRUE
    Meta                =          FALSE

    Exchange Hybrid     =           TRUE
    MP2 Hybrid          =          FALSE

   => Exchange Functionals <=

    0.0800   Slater exchange
    0.7200         Becke 88

   => Exact (HF) Exchange <=

    0.2000               HF

   => Correlation Functionals <=

    0.1900   Vosko, Wilk & Nusair (VWN5_RPA)
    0.8100   Lee, Yang & Parr

   => LibXC Density Thresholds  <==

    XC_HYB_GGA_XC_B3LYP:  1.00E-15

   => Molecular Quadrature <=

    Radial Scheme          =       TREUTLER
    Pruning Scheme         =           NONE
    Nuclear Scheme         =       TREUTLER

    Blocking Scheme        =         OCTREE
    BS radius alpha        =              1
    Pruning alpha          =              1
    Radial Points          =             75
    Spherical Points       =            302
    Total Points           =          43018
    Total Blocks           =            425
    Max Points             =            255
    Max Functions          =             36
    Weights Tolerance      =       1.00E-15

  -Total Gradient:
     Atom            X                  Y                   Z
    ------   -----------------  -----------------  -----------------
       1        0.000000000000    -0.000000000000    -0.000012960981
       2        0.000000000000    -0.000000000000     0.000037151171

*** tstop() called on Joses-MacBook-Pro-2.local at Thu Jul 17 15:06:44 2025
Module time:
	user time   =       2.53 seconds =       0.04 minutes
	system time =       1.72 seconds =       0.03 minutes
	total time  =          0 seconds =       0.00 minutes
Total time:
	user time   =     227.83 seconds =       3.80 minutes
	system time =      64.27 seconds =       1.07 minutes
	total time  =         28 seconds =       0.47 minutes

    			-----------------------------------------

    			 OPTKING 3.0: for geometry optimizations

    			     By R.A. King, Bethel University

    			        with contributions from

    			    A.V. Copan, J. Cayton, A. Heide

    			-----------------------------------------

	                            ===> Fragment 1 <==

	 Z (Atomic Numbers)          Masses                          Geom
	      12.000000            23.985042          0.00000000  0.00000000  3.65250822
	      14.000000            27.976927          0.00000000  0.00000000 -3.13135047

	 - Coordinate -           - BOHR/RAD -       - ANG/DEG -
	 R(1,2)           =         6.783859           3.589863

	        --- Internal Coordinate Step in ANG or DEG, aJ/ANG or AJ/DEG ---
	-------------------------------------------------------------------------------
	           Coordinate      Previous         Force          Change          New
	           ----------      --------        ------          ------        ------
	               R(1,2)       3.58986        0.00021        0.00229       3.59215
	-------------------------------------------------------------------------------

	                                 ==> Convergence Check <==

	Measures of convergence in internal coordinates in au.

	Criteria marked as inactive (o), active & met (*), and active & unmet ( ).

	----------------------------------------------------------------------------------------------
	   Step    Total Energy     Delta E     Max Force     RMS Force      Max Disp      RMS Disp
	----------------------------------------------------------------------------------------------
	  Convergence Criteria     1.00e-06 *    3.00e-04 *             o    1.20e-03 *             o
	----------------------------------------------------------------------------------------------
	    18    -489.03524548   -4.84e-07 *    2.51e-05 *    2.51e-05 o    4.32e-03      4.32e-03 o  ~
	----------------------------------------------------------------------------------------------

Next Geometry in Ang
	Fragment 1 (Ang)

	   Mg   0.0000000000   0.0000000000   1.9339684239
	   Si   0.0000000000   0.0000000000  -1.6581836172

    Final optimized geometry and variables:
    Molecular point group: c2v
    Full point group: C_inf_v

    Geometry (in Angstrom), charge = 1, multiplicity = 6:

    MG           0.000000000000     0.000000000000     1.932824114275
    SI           0.000000000000     0.000000000000    -1.657039307604

    Psi4 stopped on: Thursday, 17 July 2025 03:06PM
    Psi4 wall time for execution: 0:00:28.43

*** Psi4 exiting successfully. Buy a developer a beer!
