                               Psi4 1.9.1 release

  ==> Input File <==

--------------------------------------------------------------------------
molecule {
1 6
Li   0.00000        0.60000        0.00000
Na   0.00000       -0.60000        0.00000
}

set {
basis              cc-pvdz
reference          uks
maxiter            500
geom_maxiter       500
DAMPING_PERCENTAGE 1
guess              SAP
}

optimize('b3lyp')
--------------------------------------------------------------------------

    Molecular point group: c2v
  Charge       = 1
  Multiplicity = 6
  Basis Set: CC-PVDZ
    Blend: CC-PVDZ
  Basis Set: (CC-PVDZ AUX)
    Blend: DEF2-UNIVERSAL-JKFIT
  @DF-UKS Final Energy:  -166.10541667685197
    Total Energy =                       -166.1054166768519735
 Dipole X            :          0.0000000            0.0000000            0.0000000
 Dipole Y            :          0.0000000            0.0000000            0.0000000
 Dipole Z            :          0.3059456           -0.6202195           -0.3142740
 Magnitude           :                                                    0.3142740
    Molecular point group: c2v
  Basis Set: CC-PVDZ
    Blend: CC-PVDZ
  Basis Set: (CC-PVDZ AUX)
    Blend: DEF2-UNIVERSAL-JKFIT
  Basis Set: CC-PVDZ
    Blend: CC-PVDZ
  Basis Set: (CC-PVDZ AUX)
    Blend: DEF2-UNIVERSAL-JKFIT
  @DF-UKS Final Energy:  -166.13433732255498
    Total Energy =                       -166.1343373225549556
  Basis Set: CC-PVDZ
    Blend: CC-PVDZ
  Basis Set: (CC-PVDZ AUX)
    Blend: DEF2-UNIVERSAL-JKFIT
  Basis Set: CC-PVDZ
    Blend: CC-PVDZ
  @DF-UKS Final Energy:  -166.17195200899701
    Total Energy =                       -166.1719520089969819
  @DF-UKS Final Energy:  -166.22803445111563
    Total Energy =                       -166.2280344511156329
  @DF-UKS Final Energy:  -166.25232840443141
    Total Energy =                       -166.2523284044314096
  @DF-UKS Final Energy:  -166.26577770478926
    Total Energy =                       -166.2657777047892296
  @DF-UKS Final Energy:  -166.26989845066285
    Total Energy =                       -166.2698984506628506
  @DF-UKS Final Energy:  -166.27061974547328
    Total Energy =                       -166.2706197454732830
  Basis Set: (CC-PVDZ AUX)
    Blend: DEF2-UNIVERSAL-JKFIT
  Basis Set: CC-PVDZ
    Blend: CC-PVDZ
  Basis Set: (CC-PVDZ AUX)
    Blend: DEF2-UNIVERSAL-JKFIT
  @DF-UKS Final Energy:  -166.27064960307052
    Total Energy =                       -166.2706496030704955
  Basis Set: CC-PVDZ
    Blend: CC-PVDZ
  Basis Set: (CC-PVDZ AUX)
    Blend: DEF2-UNIVERSAL-JKFIT
  Charge       = 1
  Multiplicity = 6
  Basis Set: CC-PVDZ
    Blend: CC-PVDZ
  Basis Set: (CC-PVDZ AUX)
    Blend: DEF2-UNIVERSAL-JKFIT

    Orbital Energies [Eh]
    ---------------------

    Alpha Occupied:

       1A1   -40.793010     2A1    -3.798884     1B1    -2.776030
       3A1    -2.752055     1B2    -2.656239     4A1    -2.654514
       5A1    -0.595723     2B1    -0.364660     2B2    -0.359984

    Alpha Virtual:

       6A1    -0.326723     7A1    -0.224240     3B1    -0.198013
       3B2    -0.195594     8A1    -0.134540     1A2    -0.118883
       9A1    -0.118753    10A1    -0.093702     4B1    -0.085521
       4B2    -0.084784    11A1    -0.065948     5B1    -0.048896
       5B2    -0.048601    12A1    -0.040571     6B1    -0.017459
       6B2    -0.015442    13A1     0.019956    14A1     0.069526
       2A2     0.069526    15A1     0.107625     7B1     0.180588
       7B2     0.181270    16A1     1.255458

    Beta Occupied:

       1A1   -40.718477     2A1    -3.593417     1B2    -2.578596
       3A1    -2.474811

    Beta Virtual:

       4A1    -2.409508     1B1    -2.336961     5A1    -0.439244
       6A1    -0.272587     2B2    -0.242234     2B1    -0.237931
       7A1    -0.209106     3B2    -0.151263     3B1    -0.149199
       8A1    -0.099710     9A1    -0.084076     4B2    -0.073760
       4B1    -0.072077    10A1    -0.062369     1A2    -0.051523
      11A1    -0.047384     5B2    -0.040067     5B1    -0.039045
      12A1    -0.014961     6B2     0.019179     6B1     0.024238
      13A1     0.035998     2A2     0.117169    14A1     0.118155
      15A1     0.139092     7B2     0.201704     7B1     0.207745
      16A1     1.309856

    Final Occupation by Irrep:
             A1    A2    B1    B2
    DOCC [     3,    0,    0,    1 ]
    SOCC [     2,    0,    2,    1 ]
    NA   [     5,    0,    2,    2 ]
    NB   [     3,    0,    0,    1 ]

  @DF-UKS Final Energy:  -166.27065066346447

   => Energetics <=

    Nuclear Repulsion Energy =              8.7100799800775182
    One-Electron Energy =                -235.3824386971962781
    Two-Electron Energy =                  72.1985189643555287
    DFT Exchange-Correlation Energy =     -11.7968109107012218
    Empirical Dispersion Energy =           0.0000000000000000
    VV10 Nonlocal Energy =                  0.0000000000000000
    Total Energy =                       -166.2706506634644654

  UHF NO Occupations:
  HONO-2 :    2 B1 1.0000000
  HONO-1 :    2 B2 1.0000000
  HONO-0 :    5 A1 1.0000000
  LUNO+0 :    6 A1 0.0001176
  LUNO+1 :    7 A1 0.0000124
  LUNO+2 :    3 B2 0.0000008
  LUNO+3 :    8 A1 0.0000000

Computation Completed

Properties will be evaluated at   0.000000,   0.000000,   0.000000 [a0]

Properties computed using the SCF density matrix

 Multipole Moments:

 ------------------------------------------------------------------------------------
     Multipole            Electronic (a.u.)      Nuclear  (a.u.)        Total (a.u.)
 ------------------------------------------------------------------------------------

 L = 1.  Multiply by 2.5417464519 to convert [e a0] to [Debye]
 Dipole X            :          0.0000000            0.0000000            0.0000000
 Dipole Y            :          0.0000000            0.0000000            0.0000000
 Dipole Z            :          0.9465673           -1.0362323           -0.0896650
 Magnitude           :                                                    0.0896650

 ------------------------------------------------------------------------------------

*** tstop() called on Joses-MacBook-Pro-2.local at Thu Jul 17 12:51:55 2025
Module time:
	user time   =       3.85 seconds =       0.06 minutes
	system time =       6.14 seconds =       0.10 minutes
	total time  =          1 seconds =       0.02 minutes
Total time:
	user time   =      58.75 seconds =       0.98 minutes
	system time =     112.80 seconds =       1.88 minutes
	total time  =         18 seconds =       0.30 minutes

*** tstart() called on Joses-MacBook-Pro-2.local
*** at Thu Jul 17 12:51:55 2025

         ------------------------------------------------------------
                                   SCF GRAD
                          Rob Parrish, Justin Turney,
                       Andy Simmonett, and Alex Sokolov
         ------------------------------------------------------------

  ==> Geometry <==

    Molecular point group: c2v
    Full point group: C_inf_v

    Geometry (in Angstrom), charge = 1, multiplicity = 6:

       Center              X                  Y                   Z               Mass
    ------------   -----------------  -----------------  -----------------  -----------------
         LI           0.000000000000     0.000000000000     1.536111453123     7.016003436600
         NA           0.000000000000     0.000000000000    -0.468789534245    22.989769282000

  Nuclear repulsion =    8.710079980077518

  ==> Basis Set <==

  Basis Set: CC-PVDZ
    Blend: CC-PVDZ
    Number of shells: 14
    Number of basis functions: 32
    Number of Cartesian functions: 34
    Spherical Harmonics?: true
    Max angular momentum: 2

  ==> DFJKGrad: Density-Fitted SCF Gradients <==

    Gradient:                    1
    J tasked:                  Yes
    K tasked:                  Yes
    wK tasked:                  No
    OpenMP threads:              1
    Integrals threads:           1
    Memory [MiB]:              375
    Schwarz Cutoff:          1E-12
    Fitting Condition:       1E-10

   => Auxiliary Basis Set <=

  Basis Set: (CC-PVDZ AUX)
    Blend: DEF2-UNIVERSAL-JKFIT
    Number of shells: 51
    Number of basis functions: 163
    Number of Cartesian functions: 197
    Spherical Harmonics?: true
    Max angular momentum: 4

  ==> DFT Potential <==

   => LibXC <=

    Version 6.2.2
    S. Lehtola, C. Steigemann, M. J.T. Oliveira, and M. A.L. Marques.,  SoftwareX 7, 1â€“5 (2018) (10.1016/j.softx.2017.11.002)

   => Composite Functional: B3LYP <=

    B3LYP Hyb-GGA Exchange-Correlation Functional

    P. J. Stephens, F. J. Devlin, C. F. Chabalowski, and M. J. Frisch.,  J. Phys. Chem. 98, 11623 (1994) (10.1021/j100096a001)

    Deriv               =              1
    GGA                 =           TRUE
    Meta                =          FALSE

    Exchange Hybrid     =           TRUE
    MP2 Hybrid          =          FALSE

   => Exchange Functionals <=

    0.0800   Slater exchange
    0.7200         Becke 88

   => Exact (HF) Exchange <=

    0.2000               HF

   => Correlation Functionals <=

    0.1900   Vosko, Wilk & Nusair (VWN5_RPA)
    0.8100   Lee, Yang & Parr

   => LibXC Density Thresholds  <==

    XC_HYB_GGA_XC_B3LYP:  1.00E-15

   => Molecular Quadrature <=

    Radial Scheme          =       TREUTLER
    Pruning Scheme         =           NONE
    Nuclear Scheme         =       TREUTLER

    Blocking Scheme        =         OCTREE
    BS radius alpha        =              1
    Pruning alpha          =              1
    Radial Points          =             75
    Spherical Points       =            302
    Total Points           =          43569
    Total Blocks           =            450
    Max Points             =            254
    Max Functions          =             32
    Weights Tolerance      =       1.00E-15

  -Total Gradient:
     Atom            X                  Y                   Z
    ------   -----------------  -----------------  -----------------
       1        0.000000000000     0.000000000000    -0.000068153544
       2        0.000000000000    -0.000000000000     0.000070546049

*** tstop() called on Joses-MacBook-Pro-2.local at Thu Jul 17 12:51:56 2025
Module time:
	user time   =       1.12 seconds =       0.02 minutes
	system time =       2.54 seconds =       0.04 minutes
	total time  =          1 seconds =       0.02 minutes
Total time:
	user time   =      59.87 seconds =       1.00 minutes
	system time =     115.35 seconds =       1.92 minutes
	total time  =         19 seconds =       0.32 minutes

    			-----------------------------------------

    			 OPTKING 3.0: for geometry optimizations

    			     By R.A. King, Bethel University

    			        with contributions from

    			    A.V. Copan, J. Cayton, A. Heide

    			-----------------------------------------

	                            ===> Fragment 1 <==

	 Z (Atomic Numbers)          Masses                          Geom
	       3.000000             7.016003          0.00000000  0.00000000  2.90282994
	      11.000000            22.989769          0.00000000  0.00000000 -0.88588383

	 - Coordinate -           - BOHR/RAD -       - ANG/DEG -
	 R(1,2)           =         3.788714           2.004901

	        --- Internal Coordinate Step in ANG or DEG, aJ/ANG or AJ/DEG ---
	-------------------------------------------------------------------------------
	           Coordinate      Previous         Force          Change          New
	           ----------      --------        ------          ------        ------
	               R(1,2)       2.00490        0.00057        0.00050       2.00540
	-------------------------------------------------------------------------------

	                                 ==> Convergence Check <==

	Measures of convergence in internal coordinates in au.

	Criteria marked as inactive (o), active & met (*), and active & unmet ( ).

	----------------------------------------------------------------------------------------------
	   Step    Total Energy     Delta E     Max Force     RMS Force      Max Disp      RMS Disp
	----------------------------------------------------------------------------------------------
	  Convergence Criteria     1.00e-06 *    3.00e-04 *             o    1.20e-03 *             o
	----------------------------------------------------------------------------------------------
	    10    -166.27065066   -1.06e-06      6.93e-05 *    6.93e-05 o    9.39e-04 *    9.39e-04 o  ~
	----------------------------------------------------------------------------------------------

Next Geometry in Ang
	Fragment 1 (Ang)

	   Li   0.0000000000   0.0000000000   1.5363599864
	   Na   0.0000000000   0.0000000000  -0.4690380675

    Final optimized geometry and variables:
    Molecular point group: c2v
    Full point group: C_inf_v

    Geometry (in Angstrom), charge = 1, multiplicity = 6:

    LI           0.000000000000     0.000000000000     1.536111453123
    NA           0.000000000000     0.000000000000    -0.468789534245

    Psi4 stopped on: Thursday, 17 July 2025 12:51PM
    Psi4 wall time for execution: 0:00:19.05

*** Psi4 exiting successfully. Buy a developer a beer!
