                               Psi4 1.9.1 release

  ==> Input File <==

--------------------------------------------------------------------------
molecule {
1 6
Li   0.00000        0.60000        0.00000
Cl   0.00000       -0.60000        0.00000
}

set {
basis              cc-pvdz
reference          uks
maxiter            500
geom_maxiter       500
DAMPING_PERCENTAGE 1
guess              SAP
}

optimize('b3lyp')
--------------------------------------------------------------------------

    Molecular point group: c2v
  Charge       = 1
  Multiplicity = 6
  Basis Set: CC-PVDZ
    Blend: CC-PVDZ
  Basis Set: (CC-PVDZ AUX)
    Blend: CC-PVDZ-JKFIT + DEF2-UNIVERSAL-JKFIT
  @DF-UKS Final Energy:  -466.04812194903013
    Total Energy =                       -466.0481219490301328
 Dipole X            :          0.0000000            0.0000000            0.0000000
 Dipole Y            :          0.0000000            0.0000000            0.0000000
 Dipole Z            :         -1.0245582           -0.7759044           -1.8004625
 Magnitude           :                                                    1.8004625
    Molecular point group: c2v
  Basis Set: CC-PVDZ
    Blend: CC-PVDZ
  Basis Set: (CC-PVDZ AUX)
    Blend: CC-PVDZ-JKFIT + DEF2-UNIVERSAL-JKFIT
  Basis Set: CC-PVDZ
    Blend: CC-PVDZ
  Basis Set: (CC-PVDZ AUX)
    Blend: CC-PVDZ-JKFIT + DEF2-UNIVERSAL-JKFIT
  @DF-UKS Final Energy:  -466.22333374471384
    Total Energy =                       -466.2233337447138410
  Basis Set: CC-PVDZ
    Blend: CC-PVDZ
  Basis Set: (CC-PVDZ AUX)
    Blend: CC-PVDZ-JKFIT + DEF2-UNIVERSAL-JKFIT
  Basis Set: CC-PVDZ
    Blend: CC-PVDZ
  @DF-UKS Final Energy:  -466.36488806186594
    Total Energy =                       -466.3648880618659405
  @DF-UKS Final Energy:  -466.46188276229077
    Total Energy =                       -466.4618827622907133
  @DF-UKS Final Energy:  -466.52984726601414
    Total Energy =                       -466.5298472660141442
  @DF-UKS Final Energy:  -466.57699629252852
    Total Energy =                       -466.5769962925285199
  @DF-UKS Final Energy:  -466.60766151202398
    Total Energy =                       -466.6076615120239808
  @DF-UKS Final Energy:  -466.61145204703632
    Total Energy =                       -466.6114520470363232
  @DF-UKS Final Energy:  -466.62187149171410
    Total Energy =                       -466.6218714917141028
  @DF-UKS Final Energy:  -466.62345402566052
    Total Energy =                       -466.6234540256605214
  @DF-UKS Final Energy:  -466.62358905235737
    Total Energy =                       -466.6235890523573744
  Basis Set: (CC-PVDZ AUX)
    Blend: CC-PVDZ-JKFIT + DEF2-UNIVERSAL-JKFIT
  Basis Set: CC-PVDZ
    Blend: CC-PVDZ
  Basis Set: (CC-PVDZ AUX)
    Blend: CC-PVDZ-JKFIT + DEF2-UNIVERSAL-JKFIT
  @DF-UKS Final Energy:  -466.62359111513246
    Total Energy =                       -466.6235911151324558
  Basis Set: CC-PVDZ
    Blend: CC-PVDZ
  Basis Set: (CC-PVDZ AUX)
    Blend: CC-PVDZ-JKFIT + DEF2-UNIVERSAL-JKFIT
  Charge       = 1
  Multiplicity = 6
  Basis Set: CC-PVDZ
    Blend: CC-PVDZ
  Basis Set: (CC-PVDZ AUX)
    Blend: CC-PVDZ-JKFIT + DEF2-UNIVERSAL-JKFIT

    Orbital Energies [Eh]
    ---------------------

    Alpha Occupied:

       1A1  -102.371192     2A1   -10.255052     1B2    -8.019668
       3A1    -8.019529     1B1    -8.018920     4A1    -2.139189
       5A1    -1.514452     2B2    -1.001957     6A1    -1.000570
       2B1    -0.999687     7A1    -0.319199     3B1    -0.226779

    Alpha Virtual:

       3B2    -0.175132     8A1    -0.160853     9A1    -0.129624
       4B1    -0.069162     4B2    -0.059715    10A1    -0.005687
      11A1     0.000811     5B1     0.001691     5B2     0.015309
       1A2     0.030155    12A1     0.031449     6B2     0.059561
       6B1     0.060509     2A2     0.098016    13A1     0.106031
      14A1     0.131346    15A1     0.167399     7B1     0.212728
       7B2     0.219898    16A1     0.504771

    Beta Occupied:

       1A1  -102.345203     2A1   -10.229473     1B2    -7.982584
       3A1    -7.982257     1B1    -7.980959     4A1    -2.131637
       5A1    -1.334760

    Beta Virtual:

       2B2    -0.780277     6A1    -0.775858     2B1    -0.773737
       7A1    -0.212986     8A1    -0.135073     3B2    -0.131304
       3B1    -0.116953     9A1    -0.083030     4B2    -0.035558
       4B1    -0.024514    10A1     0.003348     5B2     0.054393
       5B1     0.063916    11A1     0.065868     1A2     0.133235
      12A1     0.133517     6B2     0.134880     6B1     0.139990
      13A1     0.192867     2A2     0.194282    14A1     0.206377
      15A1     0.227225     7B2     0.289574     7B1     0.299105
      16A1     0.568105

    Final Occupation by Irrep:
             A1    A2    B1    B2
    DOCC [     5,    0,    1,    1 ]
    SOCC [     2,    0,    2,    1 ]
    NA   [     7,    0,    3,    2 ]
    NB   [     5,    0,    1,    1 ]

  @DF-UKS Final Energy:  -466.62359110406226

   => Energetics <=

    Nuclear Repulsion Energy =              9.6131590077266758
    One-Electron Energy =                -651.6686066799898072
    Two-Electron Energy =                 199.2345576889413223
    DFT Exchange-Correlation Energy =     -23.8027011207405330
    Empirical Dispersion Energy =           0.0000000000000000
    VV10 Nonlocal Energy =                  0.0000000000000000
    Total Energy =                       -466.6235911040623137

  UHF NO Occupations:
  HONO-2 :    3 B1 1.0000000
  HONO-1 :    7 A1 1.0000000
  HONO-0 :    2 B2 1.0000000
  LUNO+0 :    8 A1 0.0001900
  LUNO+1 :    9 A1 0.0000011
  LUNO+2 :    3 B2 0.0000000
  LUNO+3 :    4 B1 0.0000000

Computation Completed

Properties will be evaluated at   0.000000,   0.000000,   0.000000 [a0]

Properties computed using the SCF density matrix

 Multipole Moments:

 ------------------------------------------------------------------------------------
     Multipole            Electronic (a.u.)      Nuclear  (a.u.)        Total (a.u.)
 ------------------------------------------------------------------------------------

 L = 1.  Multiply by 2.5417464519 to convert [e a0] to [Debye]
 Dipole X            :          0.0000000            0.0000000            0.0000000
 Dipole Y            :          0.0000000            0.0000000            0.0000000
 Dipole Z            :         -0.4937348           -1.8152320           -2.3089668
 Magnitude           :                                                    2.3089668

 ------------------------------------------------------------------------------------

*** tstop() called on Joses-MacBook-Pro-2.local at Thu Jul 17 12:58:06 2025
Module time:
	user time   =       2.99 seconds =       0.05 minutes
	system time =       2.62 seconds =       0.04 minutes
	total time  =          1 seconds =       0.02 minutes
Total time:
	user time   =      56.16 seconds =       0.94 minutes
	system time =      70.77 seconds =       1.18 minutes
	total time  =         12 seconds =       0.20 minutes

*** tstart() called on Joses-MacBook-Pro-2.local
*** at Thu Jul 17 12:58:06 2025

         ------------------------------------------------------------
                                   SCF GRAD
                          Rob Parrish, Justin Turney,
                       Andy Simmonett, and Alex Sokolov
         ------------------------------------------------------------

  ==> Geometry <==

    Molecular point group: c2v
    Full point group: C_inf_v

    Geometry (in Angstrom), charge = 1, multiplicity = 6:

       Center              X                  Y                   Z               Mass
    ------------   -----------------  -----------------  -----------------  -----------------
         LI           0.000000000000     0.000000000000     2.338265905709     7.016003436600
         CL           0.000000000000     0.000000000000    -0.469139830790    34.968852682000

  Nuclear repulsion =    9.613159007726676

  ==> Basis Set <==

  Basis Set: CC-PVDZ
    Blend: CC-PVDZ
    Number of shells: 14
    Number of basis functions: 32
    Number of Cartesian functions: 34
    Spherical Harmonics?: true
    Max angular momentum: 2

  ==> DFJKGrad: Density-Fitted SCF Gradients <==

    Gradient:                    1
    J tasked:                  Yes
    K tasked:                  Yes
    wK tasked:                  No
    OpenMP threads:              1
    Integrals threads:           1
    Memory [MiB]:              375
    Schwarz Cutoff:          1E-12
    Fitting Condition:       1E-10

   => Auxiliary Basis Set <=

  Basis Set: (CC-PVDZ AUX)
    Blend: CC-PVDZ-JKFIT + DEF2-UNIVERSAL-JKFIT
    Number of shells: 53
    Number of basis functions: 163
    Number of Cartesian functions: 190
    Spherical Harmonics?: true
    Max angular momentum: 3

  ==> DFT Potential <==

   => LibXC <=

    Version 6.2.2
    S. Lehtola, C. Steigemann, M. J.T. Oliveira, and M. A.L. Marques.,  SoftwareX 7, 1â€“5 (2018) (10.1016/j.softx.2017.11.002)

   => Composite Functional: B3LYP <=

    B3LYP Hyb-GGA Exchange-Correlation Functional

    P. J. Stephens, F. J. Devlin, C. F. Chabalowski, and M. J. Frisch.,  J. Phys. Chem. 98, 11623 (1994) (10.1021/j100096a001)

    Deriv               =              1
    GGA                 =           TRUE
    Meta                =          FALSE

    Exchange Hybrid     =           TRUE
    MP2 Hybrid          =          FALSE

   => Exchange Functionals <=

    0.0800   Slater exchange
    0.7200         Becke 88

   => Exact (HF) Exchange <=

    0.2000               HF

   => Correlation Functionals <=

    0.1900   Vosko, Wilk & Nusair (VWN5_RPA)
    0.8100   Lee, Yang & Parr

   => LibXC Density Thresholds  <==

    XC_HYB_GGA_XC_B3LYP:  1.00E-15

   => Molecular Quadrature <=

    Radial Scheme          =       TREUTLER
    Pruning Scheme         =           NONE
    Nuclear Scheme         =       TREUTLER

    Blocking Scheme        =         OCTREE
    BS radius alpha        =              1
    Pruning alpha          =              1
    Radial Points          =             75
    Spherical Points       =            302
    Total Points           =          44350
    Total Blocks           =            444
    Max Points             =            254
    Max Functions          =             32
    Weights Tolerance      =       1.00E-15

  -Total Gradient:
     Atom            X                  Y                   Z
    ------   -----------------  -----------------  -----------------
       1        0.000000000000     0.000000000000     0.000021528155
       2        0.000000000000    -0.000000000000     0.000036354489

*** tstop() called on Joses-MacBook-Pro-2.local at Thu Jul 17 12:58:06 2025
Module time:
	user time   =       0.90 seconds =       0.01 minutes
	system time =       1.38 seconds =       0.02 minutes
	total time  =          0 seconds =       0.00 minutes
Total time:
	user time   =      57.07 seconds =       0.95 minutes
	system time =      72.15 seconds =       1.20 minutes
	total time  =         12 seconds =       0.20 minutes

    			-----------------------------------------

    			 OPTKING 3.0: for geometry optimizations

    			     By R.A. King, Bethel University

    			        with contributions from

    			    A.V. Copan, J. Cayton, A. Heide

    			-----------------------------------------

	                            ===> Fragment 1 <==

	 Z (Atomic Numbers)          Masses                          Geom
	       3.000000             7.016003          0.00000000  0.00000000  4.41868217
	      17.000000            34.968853          0.00000000  0.00000000 -0.88654579

	 - Coordinate -           - BOHR/RAD -       - ANG/DEG -
	 R(1,2)           =         5.305228           2.807406

	        --- Internal Coordinate Step in ANG or DEG, aJ/ANG or AJ/DEG ---
	-------------------------------------------------------------------------------
	           Coordinate      Previous         Force          Change          New
	           ----------      --------        ------          ------        ------
	               R(1,2)       2.80741        0.00006        0.00010       2.80751
	-------------------------------------------------------------------------------

	                                 ==> Convergence Check <==

	Measures of convergence in internal coordinates in au.

	Criteria marked as inactive (o), active & met (*), and active & unmet ( ).

	----------------------------------------------------------------------------------------------
	   Step    Total Energy     Delta E     Max Force     RMS Force      Max Disp      RMS Disp
	----------------------------------------------------------------------------------------------
	  Convergence Criteria     1.00e-06 *    3.00e-04 *             o    1.20e-03 *             o
	----------------------------------------------------------------------------------------------
	    13    -466.62359110    1.11e-08 *    7.41e-06 *    7.41e-06 o    1.89e-04 *    1.89e-04 o  ~
	----------------------------------------------------------------------------------------------

Next Geometry in Ang
	Fragment 1 (Ang)

	   Li   0.0000000000   0.0000000000   2.3383160359
	   Cl   0.0000000000   0.0000000000  -0.4691899610

    Final optimized geometry and variables:
    Molecular point group: c2v
    Full point group: C_inf_v

    Geometry (in Angstrom), charge = 1, multiplicity = 6:

    LI           0.000000000000     0.000000000000     2.338265905709
    CL           0.000000000000     0.000000000000    -0.469139830790

    Psi4 stopped on: Thursday, 17 July 2025 12:58PM
    Psi4 wall time for execution: 0:00:13.13

*** Psi4 exiting successfully. Buy a developer a beer!
