                               Psi4 1.9.1 release

  ==> Input File <==

--------------------------------------------------------------------------
molecule {
1 6
Si   0.00000        0.60000        0.00000
S   0.00000       -0.60000        0.00000
}

set {
basis              cc-pvdz
reference          uks
maxiter            500
geom_maxiter       500
DAMPING_PERCENTAGE 1
guess              SAP
}

optimize('b3lyp')
--------------------------------------------------------------------------

    Molecular point group: c2v
  Charge       = 1
  Multiplicity = 6
  Basis Set: CC-PVDZ
    Blend: CC-PVDZ
  Basis Set: (CC-PVDZ AUX)
    Blend: CC-PVDZ-JKFIT
  @DF-UKS Final Energy:  -685.60507362291855
    Total Energy =                       -685.6050736229185532
 Dipole X            :          0.0000000            0.0000000            0.0000000
 Dipole Y            :          0.0000000            0.0000000            0.0000000
 Dipole Z            :         -0.9386050           -0.0008257           -0.9394307
 Magnitude           :                                                    0.9394307
    Molecular point group: c2v
  Basis Set: CC-PVDZ
    Blend: CC-PVDZ
  Basis Set: (CC-PVDZ AUX)
    Blend: CC-PVDZ-JKFIT
  Basis Set: CC-PVDZ
    Blend: CC-PVDZ
  Basis Set: (CC-PVDZ AUX)
    Blend: CC-PVDZ-JKFIT
  @DF-UKS Final Energy:  -685.64225702894964
    Total Energy =                       -685.6422570289495297
  Basis Set: CC-PVDZ
    Blend: CC-PVDZ
  Basis Set: (CC-PVDZ AUX)
    Blend: CC-PVDZ-JKFIT
  Basis Set: CC-PVDZ
    Blend: CC-PVDZ
  @DF-UKS Final Energy:  -685.71234350013492
    Total Energy =                       -685.7123435001349208
  @DF-UKS Final Energy:  -685.94954620606495
    Total Energy =                       -685.9495462060649515
  @DF-UKS Final Energy:  -686.57007886356541
    Total Energy =                       -686.5700788635654135
  @DF-UKS Final Energy:  -686.78514293175260
    Total Energy =                       -686.7851429317526026
  @DF-UKS Final Energy:  -687.01121367233463
    Total Energy =                       -687.0112136723345202
  @DF-UKS Final Energy:  -687.10458818543236
    Total Energy =                       -687.1045881854323625
  @DF-UKS Final Energy:  -687.12948421324597
    Total Energy =                       -687.1294842132458598
  @DF-UKS Final Energy:  -687.14177985987362
    Total Energy =                       -687.1417798598736226
  @DF-UKS Final Energy:  -687.14522986247573
    Total Energy =                       -687.1452298624757304
  @DF-UKS Final Energy:  -687.14673057299444
    Total Energy =                       -687.1467305729944428
  @DF-UKS Final Energy:  -687.14724650375274
    Total Energy =                       -687.1472465037528536
  @DF-UKS Final Energy:  -687.14733717981107
    Total Energy =                       -687.1473371798110747
  @DF-UKS Final Energy:  -687.14735548293561
    Total Energy =                       -687.1473554829357226
  Basis Set: (CC-PVDZ AUX)
    Blend: CC-PVDZ-JKFIT
  Basis Set: CC-PVDZ
    Blend: CC-PVDZ
  Basis Set: (CC-PVDZ AUX)
    Blend: CC-PVDZ-JKFIT
  @DF-UKS Final Energy:  -687.14735989206508
    Total Energy =                       -687.1473598920649692
  Basis Set: CC-PVDZ
    Blend: CC-PVDZ
  Basis Set: (CC-PVDZ AUX)
    Blend: CC-PVDZ-JKFIT
  Charge       = 1
  Multiplicity = 6
  Basis Set: CC-PVDZ
    Blend: CC-PVDZ
  Basis Set: (CC-PVDZ AUX)
    Blend: CC-PVDZ-JKFIT

    Orbital Energies [Eh]
    ---------------------

    Alpha Occupied:

       1A1   -89.294316     2A1   -66.418797     3A1    -8.348648
       1B2    -6.314969     1B1    -6.314969     4A1    -6.307296
       5A1    -5.561511     6A1    -3.922745     2B1    -3.919649
       2B2    -3.919649     7A1    -1.069141     8A1    -0.729141
       3B1    -0.647592     3B2    -0.647592     9A1    -0.605843
       4B1    -0.413793     4B2    -0.413793

    Alpha Virtual:

      10A1    -0.294670    11A1     0.007391     5B2     0.053489
       5B1     0.053489    12A1     0.063257     6B2     0.100676
       6B1     0.100676     1A2     0.105064    13A1     0.105065
      14A1     0.119097     7B1     0.193415     7B2     0.193415
      15A1     0.210531     2A2     0.210536    16A1     0.262016
      17A1     0.283669     8B2     0.339102     8B1     0.339102
      18A1     0.663286

    Beta Occupied:

       1A1   -89.279124     2A1   -66.408264     3A1    -8.333251
       4A1    -6.290059     1B2    -6.289177     1B1    -6.289177
       5A1    -5.548104     6A1    -3.914429     2B1    -3.901041
       2B2    -3.901041     7A1    -0.952488     8A1    -0.643418

    Beta Virtual:

       3B1    -0.474556     3B2    -0.474556     9A1    -0.462590
       4B1    -0.267760     4B2    -0.267760    10A1    -0.239600
      11A1     0.038911    12A1     0.101689     5B2     0.127216
       5B1     0.127216     6B2     0.147551     6B1     0.147551
      13A1     0.161449    14A1     0.208105     1A2     0.208106
       7B1     0.252671     7B2     0.252671    15A1     0.317157
      16A1     0.326346     2A2     0.326352    17A1     0.326376
       8B2     0.414579     8B1     0.414579    18A1     0.716376

    Final Occupation by Irrep:
             A1    A2    B1    B2
    DOCC [     8,    0,    2,    2 ]
    SOCC [     1,    0,    2,    2 ]
    NA   [     9,    0,    4,    4 ]
    NB   [     8,    0,    2,    2 ]

  @DF-UKS Final Energy:  -687.14736042792447

   => Energetics <=

    Nuclear Repulsion Energy =             47.3227645972523945
    One-Electron Energy =               -1035.8453439707709549
    Two-Electron Energy =                 338.6009590583307727
    DFT Exchange-Correlation Energy =     -37.2257401127366165
    Empirical Dispersion Energy =           0.0000000000000000
    VV10 Nonlocal Energy =                  0.0000000000000000
    Total Energy =                       -687.1473604279243546

  UHF NO Occupations:
  HONO-2 :    4 B2 1.0000000
  HONO-1 :    3 B1 1.0000000
  HONO-0 :    4 B1 1.0000000
  LUNO+0 :   10 A1 0.0033076
  LUNO+1 :   11 A1 0.0003435
  LUNO+2 :   12 A1 0.0000004
  LUNO+3 :    5 B1 0.0000001

Computation Completed

Properties will be evaluated at   0.000000,   0.000000,   0.000000 [a0]

Properties computed using the SCF density matrix

 Multipole Moments:

 ------------------------------------------------------------------------------------
     Multipole            Electronic (a.u.)      Nuclear  (a.u.)        Total (a.u.)
 ------------------------------------------------------------------------------------

 L = 1.  Multiply by 2.5417464519 to convert [e a0] to [Debye]
 Dipole X            :          0.0000000            0.0000000            0.0000000
 Dipole Y            :          0.0000000            0.0000000            0.0000000
 Dipole Z            :         -0.4267937           -0.0017235           -0.4285172
 Magnitude           :                                                    0.4285172

 ------------------------------------------------------------------------------------

*** tstop() called on Joses-MacBook-Pro-2.local at Thu Jul 17 15:41:55 2025
Module time:
	user time   =       7.75 seconds =       0.13 minutes
	system time =       1.76 seconds =       0.03 minutes
	total time  =          1 seconds =       0.02 minutes
Total time:
	user time   =     199.18 seconds =       3.32 minutes
	system time =      50.66 seconds =       0.84 minutes
	total time  =         24 seconds =       0.40 minutes

*** tstart() called on Joses-MacBook-Pro-2.local
*** at Thu Jul 17 15:41:55 2025

         ------------------------------------------------------------
                                   SCF GRAD
                          Rob Parrish, Justin Turney,
                       Andy Simmonett, and Alex Sokolov
         ------------------------------------------------------------

  ==> Geometry <==

    Molecular point group: c2v
    Full point group: C_inf_v

    Geometry (in Angstrom), charge = 1, multiplicity = 6:

       Center              X                  Y                   Z               Mass
    ------------   -----------------  -----------------  -----------------  -----------------
         SI           0.000000000000     0.000000000000     1.335881352231    27.976926534650
         S            0.000000000000     0.000000000000    -1.168953185626    31.972071174400

  Nuclear repulsion =   47.322764597252394

  ==> Basis Set <==

  Basis Set: CC-PVDZ
    Blend: CC-PVDZ
    Number of shells: 16
    Number of basis functions: 36
    Number of Cartesian functions: 38
    Spherical Harmonics?: true
    Max angular momentum: 2

  ==> DFJKGrad: Density-Fitted SCF Gradients <==

    Gradient:                    1
    J tasked:                  Yes
    K tasked:                  Yes
    wK tasked:                  No
    OpenMP threads:              1
    Integrals threads:           1
    Memory [MiB]:              375
    Schwarz Cutoff:          1E-12
    Fitting Condition:       1E-10

   => Auxiliary Basis Set <=

  Basis Set: (CC-PVDZ AUX)
    Blend: CC-PVDZ-JKFIT
    Number of shells: 72
    Number of basis functions: 224
    Number of Cartesian functions: 260
    Spherical Harmonics?: true
    Max angular momentum: 3

  ==> DFT Potential <==

   => LibXC <=

    Version 6.2.2
    S. Lehtola, C. Steigemann, M. J.T. Oliveira, and M. A.L. Marques.,  SoftwareX 7, 1â€“5 (2018) (10.1016/j.softx.2017.11.002)

   => Composite Functional: B3LYP <=

    B3LYP Hyb-GGA Exchange-Correlation Functional

    P. J. Stephens, F. J. Devlin, C. F. Chabalowski, and M. J. Frisch.,  J. Phys. Chem. 98, 11623 (1994) (10.1021/j100096a001)

    Deriv               =              1
    GGA                 =           TRUE
    Meta                =          FALSE

    Exchange Hybrid     =           TRUE
    MP2 Hybrid          =          FALSE

   => Exchange Functionals <=

    0.0800   Slater exchange
    0.7200         Becke 88

   => Exact (HF) Exchange <=

    0.2000               HF

   => Correlation Functionals <=

    0.1900   Vosko, Wilk & Nusair (VWN5_RPA)
    0.8100   Lee, Yang & Parr

   => LibXC Density Thresholds  <==

    XC_HYB_GGA_XC_B3LYP:  1.00E-15

   => Molecular Quadrature <=

    Radial Scheme          =       TREUTLER
    Pruning Scheme         =           NONE
    Nuclear Scheme         =       TREUTLER

    Blocking Scheme        =         OCTREE
    BS radius alpha        =              1
    Pruning alpha          =              1
    Radial Points          =             75
    Spherical Points       =            302
    Total Points           =          41645
    Total Blocks           =            387
    Max Points             =            253
    Max Functions          =             36
    Weights Tolerance      =       1.00E-15

  -Total Gradient:
     Atom            X                  Y                   Z
    ------   -----------------  -----------------  -----------------
       1       -0.000000000000    -0.000000000000    -0.000040874353
       2        0.000000000000    -0.000000000000     0.000058771098

*** tstop() called on Joses-MacBook-Pro-2.local at Thu Jul 17 15:41:55 2025
Module time:
	user time   =       2.58 seconds =       0.04 minutes
	system time =       0.90 seconds =       0.01 minutes
	total time  =          0 seconds =       0.00 minutes
Total time:
	user time   =     201.76 seconds =       3.36 minutes
	system time =      51.56 seconds =       0.86 minutes
	total time  =         24 seconds =       0.40 minutes

    			-----------------------------------------

    			 OPTKING 3.0: for geometry optimizations

    			     By R.A. King, Bethel University

    			        with contributions from

    			    A.V. Copan, J. Cayton, A. Heide

    			-----------------------------------------

	                            ===> Fragment 1 <==

	 Z (Atomic Numbers)          Masses                          Geom
	      14.000000            27.976927          0.00000000  0.00000000  2.52444989
	      16.000000            31.972071          0.00000000  0.00000000 -2.20900137

	 - Coordinate -           - BOHR/RAD -       - ANG/DEG -
	 R(1,2)           =         4.733451           2.504835

	        --- Internal Coordinate Step in ANG or DEG, aJ/ANG or AJ/DEG ---
	-------------------------------------------------------------------------------
	           Coordinate      Previous         Force          Change          New
	           ----------      --------        ------          ------        ------
	               R(1,2)       2.50483        0.00041        0.00063       2.50546
	-------------------------------------------------------------------------------

	                                 ==> Convergence Check <==

	Measures of convergence in internal coordinates in au.

	Criteria marked as inactive (o), active & met (*), and active & unmet ( ).

	----------------------------------------------------------------------------------------------
	   Step    Total Energy     Delta E     Max Force     RMS Force      Max Disp      RMS Disp
	----------------------------------------------------------------------------------------------
	  Convergence Criteria     1.00e-06 *    3.00e-04 *             o    1.20e-03 *             o
	----------------------------------------------------------------------------------------------
	    17    -687.14736043   -5.36e-07 *    4.98e-05 *    4.98e-05 o    1.19e-03 *    1.19e-03 o  ~
	----------------------------------------------------------------------------------------------

Next Geometry in Ang
	Fragment 1 (Ang)

	   Si   0.0000000000   0.0000000000   1.3361954425
	    S   0.0000000000   0.0000000000  -1.1692672759

    Final optimized geometry and variables:
    Molecular point group: c2v
    Full point group: C_inf_v

    Geometry (in Angstrom), charge = 1, multiplicity = 6:

    SI           0.000000000000     0.000000000000     1.335881352231
    S            0.000000000000     0.000000000000    -1.168953185626

    Psi4 stopped on: Thursday, 17 July 2025 03:41PM
    Psi4 wall time for execution: 0:00:24.55

*** Psi4 exiting successfully. Buy a developer a beer!
