                               Psi4 1.9.1 release

  ==> Input File <==

--------------------------------------------------------------------------
molecule {
1 6
C   0.00000        0.60000        0.00000
Ne   0.00000       -0.60000        0.00000
}

set {
basis              cc-pvdz
reference          uks
maxiter            500
geom_maxiter       500
DAMPING_PERCENTAGE 1
guess              SAP
}

optimize('b3lyp')
--------------------------------------------------------------------------

    Molecular point group: c2v
  Charge       = 1
  Multiplicity = 6
  Basis Set: CC-PVDZ
    Blend: CC-PVDZ
  Basis Set: (CC-PVDZ AUX)
    Blend: CC-PVDZ-JKFIT
  @DF-UKS Final Energy:  -165.26576997843540
    Total Energy =                       -165.2657699784354008
 Dipole X            :          0.0000000            0.0000000            0.0000000
 Dipole Y            :          0.0000000            0.0000000            0.0000000
 Dipole Z            :         -1.1680473           -0.0032151           -1.1712624
 Magnitude           :                                                    1.1712624
    Molecular point group: c2v
  Basis Set: CC-PVDZ
    Blend: CC-PVDZ
  Basis Set: (CC-PVDZ AUX)
    Blend: CC-PVDZ-JKFIT
  Basis Set: CC-PVDZ
    Blend: CC-PVDZ
  Basis Set: (CC-PVDZ AUX)
    Blend: CC-PVDZ-JKFIT
  @DF-UKS Final Energy:  -165.58569489317179
    Total Energy =                       -165.5856948931717909
  Basis Set: CC-PVDZ
    Blend: CC-PVDZ
  Basis Set: (CC-PVDZ AUX)
    Blend: CC-PVDZ-JKFIT
  Basis Set: CC-PVDZ
    Blend: CC-PVDZ
  @DF-UKS Final Energy:  -165.68902369653296
    Total Energy =                       -165.6890236965329848
  @DF-UKS Final Energy:  -165.74585582974834
    Total Energy =                       -165.7458558297483364
  @DF-UKS Final Energy:  -165.77617494278201
    Total Energy =                       -165.7761749427820064
  @DF-UKS Final Energy:  -165.79194380391087
    Total Energy =                       -165.7919438039108684
  @DF-UKS Final Energy:  -165.79991596548749
    Total Energy =                       -165.7999159654874859
  @DF-UKS Final Energy:  -165.80382776661497
    Total Energy =                       -165.8038277666149725
  @DF-UKS Final Energy:  -165.80562340167484
    Total Energy =                       -165.8056234016748363
  @DF-UKS Final Energy:  -165.80637280743656
    Total Energy =                       -165.8063728074365599
  @DF-UKS Final Energy:  -165.80664561078669
    Total Energy =                       -165.8066456107867168
  @DF-UKS Final Energy:  -165.80671124632084
    Total Energy =                       -165.8067112463208730
  @DF-UKS Final Energy:  -165.80673461505418
    Total Energy =                       -165.8067346150541823
  Basis Set: (CC-PVDZ AUX)
    Blend: CC-PVDZ-JKFIT
  Basis Set: CC-PVDZ
    Blend: CC-PVDZ
  Basis Set: (CC-PVDZ AUX)
    Blend: CC-PVDZ-JKFIT
  @DF-UKS Final Energy:  -165.80673889627201
    Total Energy =                       -165.8067388962720372
  Basis Set: CC-PVDZ
    Blend: CC-PVDZ
  Basis Set: (CC-PVDZ AUX)
    Blend: CC-PVDZ-JKFIT
  Charge       = 1
  Multiplicity = 6
  Basis Set: CC-PVDZ
    Blend: CC-PVDZ
  Basis Set: (CC-PVDZ AUX)
    Blend: CC-PVDZ-JKFIT

    Orbital Energies [Eh]
    ---------------------

    Alpha Occupied:

       1A1   -31.851118     2A1   -10.481564     3A1    -2.216999
       1B1    -1.389723     4A1    -1.279534     1B2    -1.279396
       5A1    -0.804280     6A1    -0.462149     2B1    -0.454252
       2B2    -0.454134

    Alpha Virtual:

       7A1     0.230611     3B1     0.274644     3B2     0.275032
       8A1     0.360055     4B1     0.704532     4B2     0.763003
       9A1     0.802715     5B1     0.912424     5B2     0.912564
      10A1     0.914827     1A2     0.918333    11A1     0.918336
      12A1     1.186194    13A1     3.881387     2A2     3.907488
       6B1     3.907561     6B2     3.990791    14A1     3.991346

    Beta Occupied:

       1A1   -31.811046     2A1   -10.412542     3A1    -2.108909
       1B2    -1.239817     4A1    -1.239816

    Beta Virtual:

       1B1    -1.027416     5A1    -0.435638     6A1    -0.157471
       2B2    -0.142211     2B1    -0.142159     7A1     0.359797
       3B2     0.413869     3B1     0.414162     8A1     0.511148
       4B2     0.781343     4B1     0.818063     9A1     0.831908
      10A1     1.150157     5B1     1.150917     5B2     1.151170
      11A1     1.156238     1A2     1.156288    12A1     1.239990
       6B2     4.009771    13A1     4.010327     2A2     4.021629
       6B1     4.021803    14A1     4.045531

    Final Occupation by Irrep:
             A1    A2    B1    B2
    DOCC [     4,    0,    0,    1 ]
    SOCC [     2,    0,    2,    1 ]
    NA   [     6,    0,    2,    2 ]
    NB   [     4,    0,    0,    1 ]

  @DF-UKS Final Energy:  -165.80673980013879

   => Energetics <=

    Nuclear Repulsion Energy =             10.2546412291142950
    One-Electron Energy =                -244.6390575067228781
    Two-Electron Energy =                  82.5190071399404985
    DFT Exchange-Correlation Energy =     -13.9413306624707065
    Empirical Dispersion Energy =           0.0000000000000000
    VV10 Nonlocal Energy =                  0.0000000000000000
    Total Energy =                       -165.8067398001387858

  UHF NO Occupations:
  HONO-2 :    2 B2 1.0000000
  HONO-1 :    2 B1 1.0000000
  HONO-0 :    6 A1 1.0000000
  LUNO+0 :    7 A1 0.0002605
  LUNO+1 :    8 A1 0.0000479
  LUNO+2 :    3 B2 0.0000426
  LUNO+3 :    9 A1 0.0000012

Computation Completed

Properties will be evaluated at   0.000000,   0.000000,   0.000000 [a0]

Properties computed using the SCF density matrix

 Multipole Moments:

 ------------------------------------------------------------------------------------
     Multipole            Electronic (a.u.)      Nuclear  (a.u.)        Total (a.u.)
 ------------------------------------------------------------------------------------

 L = 1.  Multiply by 2.5417464519 to convert [e a0] to [Debye]
 Dipole X            :          0.0000000            0.0000000            0.0000000
 Dipole Y            :          0.0000000            0.0000000            0.0000000
 Dipole Z            :         -2.0932420           -0.0082956           -2.1015376
 Magnitude           :                                                    2.1015376

 ------------------------------------------------------------------------------------

*** tstop() called on Joses-MacBook-Pro-2.local at Thu Jul 17 13:42:13 2025
Module time:
	user time   =       1.50 seconds =       0.03 minutes
	system time =       3.01 seconds =       0.05 minutes
	total time  =          0 seconds =       0.00 minutes
Total time:
	user time   =      42.31 seconds =       0.71 minutes
	system time =      68.10 seconds =       1.14 minutes
	total time  =         10 seconds =       0.17 minutes

*** tstart() called on Joses-MacBook-Pro-2.local
*** at Thu Jul 17 13:42:13 2025

         ------------------------------------------------------------
                                   SCF GRAD
                          Rob Parrish, Justin Turney,
                       Andy Simmonett, and Alex Sokolov
         ------------------------------------------------------------

  ==> Geometry <==

    Molecular point group: c2v
    Full point group: C_inf_v

    Geometry (in Angstrom), charge = 1, multiplicity = 6:

       Center              X                  Y                   Z               Mass
    ------------   -----------------  -----------------  -----------------  -----------------
         C            0.000000000000     0.000000000000     1.934863585190    12.000000000000
         NE           0.000000000000     0.000000000000    -1.161357133879    19.992440176200

  Nuclear repulsion =   10.254641229114295

  ==> Basis Set <==

  Basis Set: CC-PVDZ
    Blend: CC-PVDZ
    Number of shells: 12
    Number of basis functions: 28
    Number of Cartesian functions: 30
    Spherical Harmonics?: true
    Max angular momentum: 2

  ==> DFJKGrad: Density-Fitted SCF Gradients <==

    Gradient:                    1
    J tasked:                  Yes
    K tasked:                  Yes
    wK tasked:                  No
    OpenMP threads:              1
    Integrals threads:           1
    Memory [MiB]:              375
    Schwarz Cutoff:          1E-12
    Fitting Condition:       1E-10

   => Auxiliary Basis Set <=

  Basis Set: (CC-PVDZ AUX)
    Blend: CC-PVDZ-JKFIT
    Number of shells: 48
    Number of basis functions: 140
    Number of Cartesian functions: 162
    Spherical Harmonics?: true
    Max angular momentum: 3

  ==> DFT Potential <==

   => LibXC <=

    Version 6.2.2
    S. Lehtola, C. Steigemann, M. J.T. Oliveira, and M. A.L. Marques.,  SoftwareX 7, 1â€“5 (2018) (10.1016/j.softx.2017.11.002)

   => Composite Functional: B3LYP <=

    B3LYP Hyb-GGA Exchange-Correlation Functional

    P. J. Stephens, F. J. Devlin, C. F. Chabalowski, and M. J. Frisch.,  J. Phys. Chem. 98, 11623 (1994) (10.1021/j100096a001)

    Deriv               =              1
    GGA                 =           TRUE
    Meta                =          FALSE

    Exchange Hybrid     =           TRUE
    MP2 Hybrid          =          FALSE

   => Exchange Functionals <=

    0.0800   Slater exchange
    0.7200         Becke 88

   => Exact (HF) Exchange <=

    0.2000               HF

   => Correlation Functionals <=

    0.1900   Vosko, Wilk & Nusair (VWN5_RPA)
    0.8100   Lee, Yang & Parr

   => LibXC Density Thresholds  <==

    XC_HYB_GGA_XC_B3LYP:  1.00E-15

   => Molecular Quadrature <=

    Radial Scheme          =       TREUTLER
    Pruning Scheme         =           NONE
    Nuclear Scheme         =       TREUTLER

    Blocking Scheme        =         OCTREE
    BS radius alpha        =              1
    Pruning alpha          =              1
    Radial Points          =             75
    Spherical Points       =            302
    Total Points           =          43429
    Total Blocks           =            383
    Max Points             =            256
    Max Functions          =             28
    Weights Tolerance      =       1.00E-15

  -Total Gradient:
     Atom            X                  Y                   Z
    ------   -----------------  -----------------  -----------------
       1        0.000000000000    -0.000000000000    -0.000027393676
       2        0.000000000000     0.000000000000     0.000033789897

*** tstop() called on Joses-MacBook-Pro-2.local at Thu Jul 17 13:42:14 2025
Module time:
	user time   =       0.49 seconds =       0.01 minutes
	system time =       0.92 seconds =       0.02 minutes
	total time  =          1 seconds =       0.02 minutes
Total time:
	user time   =      42.81 seconds =       0.71 minutes
	system time =      69.02 seconds =       1.15 minutes
	total time  =         11 seconds =       0.18 minutes

    			-----------------------------------------

    			 OPTKING 3.0: for geometry optimizations

    			     By R.A. King, Bethel University

    			        with contributions from

    			    A.V. Copan, J. Cayton, A. Heide

    			-----------------------------------------

	                            ===> Fragment 1 <==

	 Z (Atomic Numbers)          Masses                          Geom
	       6.000000            12.000000          0.00000000  0.00000000  3.65636227
	      10.000000            19.992440          0.00000000  0.00000000 -2.19464692

	 - Coordinate -           - BOHR/RAD -       - ANG/DEG -
	 R(1,2)           =         5.851009           3.096221

	        --- Internal Coordinate Step in ANG or DEG, aJ/ANG or AJ/DEG ---
	-------------------------------------------------------------------------------
	           Coordinate      Previous         Force          Change          New
	           ----------      --------        ------          ------        ------
	               R(1,2)       3.09622        0.00025        0.00541       3.10163
	-------------------------------------------------------------------------------

	                                 ==> Convergence Check <==

	Measures of convergence in internal coordinates in au.

	Criteria marked as inactive (o), active & met (*), and active & unmet ( ).

	----------------------------------------------------------------------------------------------
	   Step    Total Energy     Delta E     Max Force     RMS Force      Max Disp      RMS Disp
	----------------------------------------------------------------------------------------------
	  Convergence Criteria     1.00e-06 *    3.00e-04 *             o    1.20e-03 *             o
	----------------------------------------------------------------------------------------------
	    15    -165.80673980   -9.04e-07 *    3.06e-05 *    3.06e-05 o    1.02e-02      1.02e-02 o  ~
	----------------------------------------------------------------------------------------------

Next Geometry in Ang
	Fragment 1 (Ang)

	    C   0.0000000000   0.0000000000   1.9375688821
	   Ne   0.0000000000   0.0000000000  -1.1640624307

    Final optimized geometry and variables:
    Molecular point group: c2v
    Full point group: C_inf_v

    Geometry (in Angstrom), charge = 1, multiplicity = 6:

    C            0.000000000000     0.000000000000     1.934863585190
    NE           0.000000000000     0.000000000000    -1.161357133879

    Psi4 stopped on: Thursday, 17 July 2025 01:42PM
    Psi4 wall time for execution: 0:00:11.12

*** Psi4 exiting successfully. Buy a developer a beer!
