                               Psi4 1.9.1 release

  ==> Input File <==

--------------------------------------------------------------------------
molecule {
1 6
B   0.00000        0.60000        0.00000
Cl   0.00000       -0.60000        0.00000
}

set {
basis              cc-pvdz
reference          uks
maxiter            500
geom_maxiter       500
DAMPING_PERCENTAGE 1
guess              SAP
}

optimize('b3lyp')
--------------------------------------------------------------------------

    Molecular point group: c2v
  Charge       = 1
  Multiplicity = 6
  Basis Set: CC-PVDZ
    Blend: CC-PVDZ
  Basis Set: (CC-PVDZ AUX)
    Blend: CC-PVDZ-JKFIT
  @DF-UKS Final Energy:  -483.61292574137093
    Total Energy =                       -483.6129257413709865
 Dipole X            :          0.0000000            0.0000000            0.0000000
 Dipole Y            :          0.0000000            0.0000000            0.0000000
 Dipole Z            :         -0.3047381           -0.6073306           -0.9120686
 Magnitude           :                                                    0.9120686
    Molecular point group: c2v
  Basis Set: CC-PVDZ
    Blend: CC-PVDZ
  Basis Set: (CC-PVDZ AUX)
    Blend: CC-PVDZ-JKFIT
  Basis Set: CC-PVDZ
    Blend: CC-PVDZ
  Basis Set: (CC-PVDZ AUX)
    Blend: CC-PVDZ-JKFIT
  @DF-UKS Final Energy:  -483.91221713136167
    Total Energy =                       -483.9122171313616718
  Basis Set: CC-PVDZ
    Blend: CC-PVDZ
  Basis Set: (CC-PVDZ AUX)
    Blend: CC-PVDZ-JKFIT
  Basis Set: CC-PVDZ
    Blend: CC-PVDZ
  @DF-UKS Final Energy:  -484.04214648875717
    Total Energy =                       -484.0421464887571688
  @DF-UKS Final Energy:  -484.11272934960732
    Total Energy =                       -484.1127293496073776
  @DF-UKS Final Energy:  -484.15014854288131
    Total Energy =                       -484.1501485428813112
  @DF-UKS Final Energy:  -484.17137272341978
    Total Energy =                       -484.1713727234197790
  @DF-UKS Final Energy:  -484.18381146436178
    Total Energy =                       -484.1838114643617814
  @DF-UKS Final Energy:  -484.19134988222845
    Total Energy =                       -484.1913498822283941
  @DF-UKS Final Energy:  -484.19609743939060
    Total Energy =                       -484.1960974393905417
  @DF-UKS Final Energy:  -484.19925429649624
    Total Energy =                       -484.1992542964961785
  @DF-UKS Final Energy:  -484.20133942262703
    Total Energy =                       -484.2013394226270293
  @DF-UKS Final Energy:  -484.20256054137246
    Total Energy =                       -484.2025605413724065
  @DF-UKS Final Energy:  -484.20328340807049
    Total Energy =                       -484.2032834080704333
  @DF-UKS Final Energy:  -484.20385092788888
    Total Energy =                       -484.2038509278888796
  @DF-UKS Final Energy:  -484.20385359817067
    Total Energy =                       -484.2038535981707241
  @DF-UKS Final Energy:  -484.20385626562910
    Total Energy =                       -484.2038562656290992
  @DF-UKS Final Energy:  -484.20385892945211
    Total Energy =                       -484.2038589294521103
  @DF-UKS Final Energy:  -484.20386158966471
    Total Energy =                       -484.2038615896647116
  @DF-UKS Final Energy:  -484.20386424628106
    Total Energy =                       -484.2038642462810003
  @DF-UKS Final Energy:  -484.20386689934912
    Total Energy =                       -484.2038668993491228
  @DF-UKS Final Energy:  -484.20560030668167
    Total Energy =                       -484.2056003066816743
  @DF-UKS Final Energy:  -484.20592042127021
    Total Energy =                       -484.2059204212702070
  @DF-UKS Final Energy:  -484.20592107405611
    Total Energy =                       -484.2059210740560502
  @DF-UKS Final Energy:  -484.20592172575397
    Total Energy =                       -484.2059217257539672
  @DF-UKS Final Energy:  -484.20592237676766
    Total Energy =                       -484.2059223767676031
  @DF-UKS Final Energy:  -484.20592302706109
    Total Energy =                       -484.2059230270610897
  @DF-UKS Final Energy:  -484.20592367668087
    Total Energy =                       -484.2059236766808681
  @DF-UKS Final Energy:  -484.20592432561239
    Total Energy =                       -484.2059243256123864
  @DF-UKS Final Energy:  -484.20592497381222
    Total Energy =                       -484.2059249738122162
  @DF-UKS Final Energy:  -484.20592562136034
    Total Energy =                       -484.2059256213603362
  @DF-UKS Final Energy:  -484.20592626820604
    Total Energy =                       -484.2059262682059853
  @DF-UKS Final Energy:  -484.20592691435888
    Total Energy =                       -484.2059269143589404
  @DF-UKS Final Energy:  -484.20592755980636
    Total Energy =                       -484.2059275598063550
  @DF-UKS Final Energy:  -484.20592820460740
    Total Energy =                       -484.2059282046074031
  @DF-UKS Final Energy:  -484.20592884867352
    Total Energy =                       -484.2059288486735227
  @DF-UKS Final Energy:  -484.20592949208964
    Total Energy =                       -484.2059294920895809
  @DF-UKS Final Energy:  -484.20593013483028
    Total Energy =                       -484.2059301348302824
  @DF-UKS Final Energy:  -484.20593077685970
    Total Energy =                       -484.2059307768597023
  Basis Set: (CC-PVDZ AUX)
    Blend: CC-PVDZ-JKFIT
  Basis Set: CC-PVDZ
    Blend: CC-PVDZ
  Basis Set: (CC-PVDZ AUX)
    Blend: CC-PVDZ-JKFIT
  @DF-UKS Final Energy:  -484.20617283149920
    Total Energy =                       -484.2061728314992024
  Basis Set: CC-PVDZ
    Blend: CC-PVDZ
  Basis Set: (CC-PVDZ AUX)
    Blend: CC-PVDZ-JKFIT
  Charge       = 1
  Multiplicity = 6
  Basis Set: CC-PVDZ
    Blend: CC-PVDZ
  Basis Set: (CC-PVDZ AUX)
    Blend: CC-PVDZ-JKFIT

    Orbital Energies [Eh]
    ---------------------

    Alpha Occupied:

       1A1  -102.081213     2A1    -9.987062     1B2    -7.756478
       1B1    -7.756478     3A1    -7.730006     4A1    -6.959560
       5A1    -1.293995     2B1    -0.816360     2B2    -0.816360
       6A1    -0.757278     7A1    -0.522661     3B1    -0.293132
       3B2    -0.293132

    Alpha Virtual:

       8A1    -0.203176     4B2     0.160170     4B1     0.160170
       5B1     0.180529     5B2     0.180529     9A1     0.186963
      10A1     0.199814    11A1     0.207308     1A2     0.211528
      12A1     0.211537    13A1     0.246064     6B1     0.256838
       6B2     0.256838    14A1     0.273702    15A1     0.570281
       2A2     0.570284     7B1     0.574985     7B2     0.574985
      16A1     0.588103

    Beta Occupied:

       1A1  -102.066020     2A1    -9.972168     1B2    -7.727366
       1B1    -7.727366     3A1    -7.721122     4A1    -6.920226
       5A1    -1.181321     6A1    -0.722864

    Beta Virtual:

       2B1    -0.624571     2B2    -0.624571     7A1    -0.274248
       8A1    -0.106801     3B2    -0.062505     3B1    -0.062505
       9A1     0.201830     4B2     0.207633     4B1     0.207633
      10A1     0.242624    11A1     0.246978     5B2     0.280317
       5B1     0.280317     6B1     0.325356     6B2     0.325356
      12A1     0.329120     1A2     0.339543    13A1     0.339551
      14A1     0.341663    15A1     0.702667     7B2     0.718923
       7B1     0.718923    16A1     0.752638     2A2     0.752638

    Final Occupation by Irrep:
             A1    A2    B1    B2
    DOCC [     6,    0,    1,    1 ]
    SOCC [     1,    0,    2,    2 ]
    NA   [     7,    0,    3,    3 ]
    NB   [     6,    0,    1,    1 ]

  @DF-UKS Final Energy:  -484.20617324598038

   => Energetics <=

    Nuclear Repulsion Energy =              7.3309288880251211
    One-Electron Energy =                -673.7315964342590178
    Two-Electron Energy =                 207.8116164118807774
    DFT Exchange-Correlation Energy =     -25.6171221116273031
    Empirical Dispersion Energy =           0.0000000000000000
    VV10 Nonlocal Energy =                  0.0000000000000000
    Total Energy =                       -484.2061732459803807

  UHF NO Occupations:
  HONO-2 :    7 A1 1.0000000
  HONO-1 :    3 B1 1.0000000
  HONO-0 :    3 B2 1.0000000
  LUNO+0 :    8 A1 0.0009950
  LUNO+1 :    9 A1 0.0001023
  LUNO+2 :   10 A1 0.0000007
  LUNO+3 :   11 A1 0.0000000

Computation Completed

Properties will be evaluated at   0.000000,   0.000000,   0.000000 [a0]

Properties computed using the SCF density matrix

 Multipole Moments:

 ------------------------------------------------------------------------------------
     Multipole            Electronic (a.u.)      Nuclear  (a.u.)        Total (a.u.)
 ------------------------------------------------------------------------------------

 L = 1.  Multiply by 2.5417464519 to convert [e a0] to [Debye]
 Dipole X            :          0.0000000            0.0000000            0.0000000
 Dipole Y            :          0.0000000            0.0000000            0.0000000
 Dipole Z            :          0.4052460           -3.1053099           -2.7000639
 Magnitude           :                                                    2.7000639

 ------------------------------------------------------------------------------------

*** tstop() called on Joses-MacBook-Pro-2.local at Thu Jul 17 13:39:09 2025
Module time:
	user time   =       1.81 seconds =       0.03 minutes
	system time =       1.41 seconds =       0.02 minutes
	total time  =          1 seconds =       0.02 minutes
Total time:
	user time   =     223.68 seconds =       3.73 minutes
	system time =     307.92 seconds =       5.13 minutes
	total time  =         54 seconds =       0.90 minutes

*** tstart() called on Joses-MacBook-Pro-2.local
*** at Thu Jul 17 13:39:09 2025

         ------------------------------------------------------------
                                   SCF GRAD
                          Rob Parrish, Justin Turney,
                       Andy Simmonett, and Alex Sokolov
         ------------------------------------------------------------

  ==> Geometry <==

    Molecular point group: c2v
    Full point group: C_inf_v

    Geometry (in Angstrom), charge = 1, multiplicity = 6:

       Center              X                  Y                   Z               Mass
    ------------   -----------------  -----------------  -----------------  -----------------
         B            0.000000000000     0.000000000000     4.666495661981    11.009305360000
         CL           0.000000000000     0.000000000000    -1.469161032278    34.968852682000

  Nuclear repulsion =    7.330928888025121

  ==> Basis Set <==

  Basis Set: CC-PVDZ
    Blend: CC-PVDZ
    Number of shells: 14
    Number of basis functions: 32
    Number of Cartesian functions: 34
    Spherical Harmonics?: true
    Max angular momentum: 2

  ==> DFJKGrad: Density-Fitted SCF Gradients <==

    Gradient:                    1
    J tasked:                  Yes
    K tasked:                  Yes
    wK tasked:                  No
    OpenMP threads:              1
    Integrals threads:           1
    Memory [MiB]:              375
    Schwarz Cutoff:          1E-12
    Fitting Condition:       1E-10

   => Auxiliary Basis Set <=

  Basis Set: (CC-PVDZ AUX)
    Blend: CC-PVDZ-JKFIT
    Number of shells: 60
    Number of basis functions: 182
    Number of Cartesian functions: 211
    Spherical Harmonics?: true
    Max angular momentum: 3

  ==> DFT Potential <==

   => LibXC <=

    Version 6.2.2
    S. Lehtola, C. Steigemann, M. J.T. Oliveira, and M. A.L. Marques.,  SoftwareX 7, 1â€“5 (2018) (10.1016/j.softx.2017.11.002)

   => Composite Functional: B3LYP <=

    B3LYP Hyb-GGA Exchange-Correlation Functional

    P. J. Stephens, F. J. Devlin, C. F. Chabalowski, and M. J. Frisch.,  J. Phys. Chem. 98, 11623 (1994) (10.1021/j100096a001)

    Deriv               =              1
    GGA                 =           TRUE
    Meta                =          FALSE

    Exchange Hybrid     =           TRUE
    MP2 Hybrid          =          FALSE

   => Exchange Functionals <=

    0.0800   Slater exchange
    0.7200         Becke 88

   => Exact (HF) Exchange <=

    0.2000               HF

   => Correlation Functionals <=

    0.1900   Vosko, Wilk & Nusair (VWN5_RPA)
    0.8100   Lee, Yang & Parr

   => LibXC Density Thresholds  <==

    XC_HYB_GGA_XC_B3LYP:  1.00E-15

   => Molecular Quadrature <=

    Radial Scheme          =       TREUTLER
    Pruning Scheme         =           NONE
    Nuclear Scheme         =       TREUTLER

    Blocking Scheme        =         OCTREE
    BS radius alpha        =              1
    Pruning alpha          =              1
    Radial Points          =             75
    Spherical Points       =            302
    Total Points           =          42202
    Total Blocks           =            443
    Max Points             =            244
    Max Functions          =             32
    Weights Tolerance      =       1.00E-15

  -Total Gradient:
     Atom            X                  Y                   Z
    ------   -----------------  -----------------  -----------------
       1       -0.000000000000    -0.000000000000    -0.000249441058
       2        0.000000000000     0.000000000000     0.000247329466

*** tstop() called on Joses-MacBook-Pro-2.local at Thu Jul 17 13:39:09 2025
Module time:
	user time   =       0.76 seconds =       0.01 minutes
	system time =       1.06 seconds =       0.02 minutes
	total time  =          0 seconds =       0.00 minutes
Total time:
	user time   =     224.45 seconds =       3.74 minutes
	system time =     309.00 seconds =       5.15 minutes
	total time  =         54 seconds =       0.90 minutes

    			-----------------------------------------

    			 OPTKING 3.0: for geometry optimizations

    			     By R.A. King, Bethel University

    			        with contributions from

    			    A.V. Copan, J. Cayton, A. Heide

    			-----------------------------------------

	                            ===> Fragment 1 <==

	 Z (Atomic Numbers)          Masses                          Geom
	       5.000000            11.009305          0.00000000  0.00000000  8.81839877
	      17.000000            34.968853          0.00000000  0.00000000 -2.77631199

	 - Coordinate -           - BOHR/RAD -       - ANG/DEG -
	 R(1,2)           =        11.594711           6.135657

	        --- Internal Coordinate Step in ANG or DEG, aJ/ANG or AJ/DEG ---
	-------------------------------------------------------------------------------
	           Coordinate      Previous         Force          Change          New
	           ----------      --------        ------          ------        ------
	               R(1,2)       6.13566        0.00205        0.00088       6.13654
	-------------------------------------------------------------------------------

	                                 ==> Convergence Check <==

	Measures of convergence in internal coordinates in au.

	Criteria marked as inactive (o), active & met (*), and active & unmet ( ).

	----------------------------------------------------------------------------------------------
	   Step    Total Energy     Delta E     Max Force     RMS Force      Max Disp      RMS Disp
	----------------------------------------------------------------------------------------------
	  Convergence Criteria     1.00e-06 *    3.00e-04 *             o    1.20e-03 *             o
	----------------------------------------------------------------------------------------------
	    75    -484.20617325   -4.14e-07 *    2.48e-04 *    2.48e-04 o    1.66e-03      1.66e-03 o  ~
	----------------------------------------------------------------------------------------------

Next Geometry in Ang
	Fragment 1 (Ang)

	    B   0.0000000000   0.0000000000   4.6669359397
	   Cl   0.0000000000   0.0000000000  -1.4696013100

    Final optimized geometry and variables:
    Molecular point group: c2v
    Full point group: C_inf_v

    Geometry (in Angstrom), charge = 1, multiplicity = 6:

    B            0.000000000000     0.000000000000     4.666495661981
    CL           0.000000000000     0.000000000000    -1.469161032278

    Psi4 stopped on: Thursday, 17 July 2025 01:39PM
    Psi4 wall time for execution: 0:00:54.24

*** Psi4 exiting successfully. Buy a developer a beer!
