                               Psi4 1.9.1 release

  ==> Input File <==

--------------------------------------------------------------------------
molecule {
1 6
Be   0.00000        0.60000        0.00000
C   0.00000       -0.60000        0.00000
}

set {
basis              cc-pvdz
reference          uks
maxiter            500
geom_maxiter       500
DAMPING_PERCENTAGE 1
guess              SAP
}

optimize('b3lyp')
--------------------------------------------------------------------------

    Molecular point group: c2v
  Charge       = 1
  Multiplicity = 6
  Basis Set: CC-PVDZ
    Blend: CC-PVDZ
  Basis Set: (CC-PVDZ AUX)
    Blend: CC-PVDZ-JKFIT + DEF2-UNIVERSAL-JKFIT
  @DF-UKS Final Energy:   -51.78299031506577
    Total Energy =                        -51.7829903150657671
 Dipole X            :          0.0000000            0.0000000            0.0000000
 Dipole Y            :          0.0000000            0.0000000            0.0000000
 Dipole Z            :          0.1615417           -0.6554193           -0.4938777
 Magnitude           :                                                    0.4938777
    Molecular point group: c2v
  Basis Set: CC-PVDZ
    Blend: CC-PVDZ
  Basis Set: (CC-PVDZ AUX)
    Blend: CC-PVDZ-JKFIT + DEF2-UNIVERSAL-JKFIT
  Basis Set: CC-PVDZ
    Blend: CC-PVDZ
  Basis Set: (CC-PVDZ AUX)
    Blend: CC-PVDZ-JKFIT + DEF2-UNIVERSAL-JKFIT
  @DF-UKS Final Energy:   -51.92011804113626
    Total Energy =                        -51.9201180411362628
  Basis Set: CC-PVDZ
    Blend: CC-PVDZ
  Basis Set: (CC-PVDZ AUX)
    Blend: CC-PVDZ-JKFIT + DEF2-UNIVERSAL-JKFIT
  Basis Set: CC-PVDZ
    Blend: CC-PVDZ
  @DF-UKS Final Energy:   -51.96406974296522
    Total Energy =                        -51.9640697429652221
  @DF-UKS Final Energy:   -51.99198743762704
    Total Energy =                        -51.9919874376270386
  @DF-UKS Final Energy:   -52.00631388633941
    Total Energy =                        -52.0063138863394130
  @DF-UKS Final Energy:   -52.01427007867827
    Total Energy =                        -52.0142700786782655
  @DF-UKS Final Energy:   -52.01861709606922
    Total Energy =                        -52.0186170960692209
  @DF-UKS Final Energy:   -52.02082334967335
    Total Energy =                        -52.0208233496733570
  @DF-UKS Final Energy:   -52.02170049407198
    Total Energy =                        -52.0217004940719789
  @DF-UKS Final Energy:   -52.02191483234749
    Total Energy =                        -52.0219148323474911
  @DF-UKS Final Energy:   -52.02193623620490
    Total Energy =                        -52.0219362362048940
  Basis Set: (CC-PVDZ AUX)
    Blend: CC-PVDZ-JKFIT + DEF2-UNIVERSAL-JKFIT
  Basis Set: CC-PVDZ
    Blend: CC-PVDZ
  Basis Set: (CC-PVDZ AUX)
    Blend: CC-PVDZ-JKFIT + DEF2-UNIVERSAL-JKFIT
  @DF-UKS Final Energy:   -52.02193847545934
    Total Energy =                        -52.0219384754593435
  Basis Set: CC-PVDZ
    Blend: CC-PVDZ
  Basis Set: (CC-PVDZ AUX)
    Blend: CC-PVDZ-JKFIT + DEF2-UNIVERSAL-JKFIT
  Charge       = 1
  Multiplicity = 6
  Basis Set: CC-PVDZ
    Blend: CC-PVDZ
  Basis Set: (CC-PVDZ AUX)
    Blend: CC-PVDZ-JKFIT + DEF2-UNIVERSAL-JKFIT

    Orbital Energies [Eh]
    ---------------------

    Alpha Occupied:

       1A1   -10.558319     2A1    -4.477432     3A1    -0.872117
       4A1    -0.571384     1B1    -0.517819     1B2    -0.517819
       5A1    -0.491929

    Alpha Virtual:

       2B1    -0.327424     2B2    -0.327424     6A1    -0.300558
       7A1    -0.038251     3B2    -0.031991     3B1    -0.031991
       8A1    -0.026590     4B2     0.153996     4B1     0.153996
       1A2     0.193663     9A1     0.193663    10A1     0.217344
      11A1     0.282872     5B1     0.297347     5B2     0.297347
      12A1     0.569622     2A2     0.858621    13A1     0.858626
       6B2     0.875387     6B1     0.875387    14A1     0.973771

    Beta Occupied:

       1A1   -10.489023     2A1    -4.460751

    Beta Virtual:

       3A1    -0.516070     4A1    -0.390625     5A1    -0.271375
       1B1    -0.268662     1B2    -0.268662     2B1    -0.194469
       2B2    -0.194469     6A1    -0.151104     3B1    -0.008385
       3B2    -0.008385     7A1    -0.007344     8A1     0.011749
       4B1     0.250510     4B2     0.250510     9A1     0.267042
       1A2     0.267055    10A1     0.322511    11A1     0.408019
       5B1     0.412268     5B2     0.412268    12A1     0.705499
      13A1     1.093512     2A2     1.093721     6B1     1.103929
       6B2     1.103929    14A1     1.189025

    Final Occupation by Irrep:
             A1    A2    B1    B2
    DOCC [     2,    0,    0,    0 ]
    SOCC [     3,    0,    1,    1 ]
    NA   [     5,    0,    1,    1 ]
    NB   [     2,    0,    0,    0 ]

  @DF-UKS Final Energy:   -52.02193849850605

   => Energetics <=

    Nuclear Repulsion Energy =              4.7037926004496313
    One-Electron Energy =                 -75.9305853317469115
    Two-Electron Energy =                  25.5424434741718684
    DFT Exchange-Correlation Energy =      -6.3375892413806385
    Empirical Dispersion Energy =           0.0000000000000000
    VV10 Nonlocal Energy =                  0.0000000000000000
    Total Energy =                        -52.0219384985060529

  UHF NO Occupations:
  HONO-2 :    1 B1 1.0000000
  HONO-1 :    5 A1 1.0000000
  HONO-0 :    1 B2 1.0000000
  LUNO+0 :    6 A1 0.0000012
  LUNO+1 :    7 A1 0.0000002
  LUNO+2 :    8 A1 0.0000000
  LUNO+3 :    2 B2 0.0000000

Computation Completed

Properties will be evaluated at   0.000000,   0.000000,   0.000000 [a0]

Properties computed using the SCF density matrix

 Multipole Moments:

 ------------------------------------------------------------------------------------
     Multipole            Electronic (a.u.)      Nuclear  (a.u.)        Total (a.u.)
 ------------------------------------------------------------------------------------

 L = 1.  Multiply by 2.5417464519 to convert [e a0] to [Debye]
 Dipole X            :          0.0000000            0.0000000            0.0000000
 Dipole Y            :          0.0000000            0.0000000            0.0000000
 Dipole Z            :          3.3253406           -1.4746950            1.8506455
 Magnitude           :                                                    1.8506455

 ------------------------------------------------------------------------------------

*** tstop() called on Joses-MacBook-Pro-2.local at Thu Jul 17 13:15:15 2025
Module time:
	user time   =       1.46 seconds =       0.02 minutes
	system time =       3.06 seconds =       0.05 minutes
	total time  =          0 seconds =       0.00 minutes
Total time:
	user time   =      44.19 seconds =       0.74 minutes
	system time =      59.14 seconds =       0.99 minutes
	total time  =         10 seconds =       0.17 minutes

*** tstart() called on Joses-MacBook-Pro-2.local
*** at Thu Jul 17 13:15:15 2025

         ------------------------------------------------------------
                                   SCF GRAD
                          Rob Parrish, Justin Turney,
                       Andy Simmonett, and Alex Sokolov
         ------------------------------------------------------------

  ==> Geometry <==

    Molecular point group: c2v
    Full point group: C_inf_v

    Geometry (in Angstrom), charge = 1, multiplicity = 6:

       Center              X                  Y                   Z               Mass
    ------------   -----------------  -----------------  -----------------  -----------------
         BE           0.000000000000     0.000000000000     1.541964162098     9.012183065000
         C            0.000000000000     0.000000000000    -1.158038609041    12.000000000000

  Nuclear repulsion =    4.703792600449631

  ==> Basis Set <==

  Basis Set: CC-PVDZ
    Blend: CC-PVDZ
    Number of shells: 12
    Number of basis functions: 28
    Number of Cartesian functions: 30
    Spherical Harmonics?: true
    Max angular momentum: 2

  ==> DFJKGrad: Density-Fitted SCF Gradients <==

    Gradient:                    1
    J tasked:                  Yes
    K tasked:                  Yes
    wK tasked:                  No
    OpenMP threads:              1
    Integrals threads:           1
    Memory [MiB]:              375
    Schwarz Cutoff:          1E-12
    Fitting Condition:       1E-10

   => Auxiliary Basis Set <=

  Basis Set: (CC-PVDZ AUX)
    Blend: CC-PVDZ-JKFIT + DEF2-UNIVERSAL-JKFIT
    Number of shells: 41
    Number of basis functions: 121
    Number of Cartesian functions: 141
    Spherical Harmonics?: true
    Max angular momentum: 3

  ==> DFT Potential <==

   => LibXC <=

    Version 6.2.2
    S. Lehtola, C. Steigemann, M. J.T. Oliveira, and M. A.L. Marques.,  SoftwareX 7, 1â€“5 (2018) (10.1016/j.softx.2017.11.002)

   => Composite Functional: B3LYP <=

    B3LYP Hyb-GGA Exchange-Correlation Functional

    P. J. Stephens, F. J. Devlin, C. F. Chabalowski, and M. J. Frisch.,  J. Phys. Chem. 98, 11623 (1994) (10.1021/j100096a001)

    Deriv               =              1
    GGA                 =           TRUE
    Meta                =          FALSE

    Exchange Hybrid     =           TRUE
    MP2 Hybrid          =          FALSE

   => Exchange Functionals <=

    0.0800   Slater exchange
    0.7200         Becke 88

   => Exact (HF) Exchange <=

    0.2000               HF

   => Correlation Functionals <=

    0.1900   Vosko, Wilk & Nusair (VWN5_RPA)
    0.8100   Lee, Yang & Parr

   => LibXC Density Thresholds  <==

    XC_HYB_GGA_XC_B3LYP:  1.00E-15

   => Molecular Quadrature <=

    Radial Scheme          =       TREUTLER
    Pruning Scheme         =           NONE
    Nuclear Scheme         =       TREUTLER

    Blocking Scheme        =         OCTREE
    BS radius alpha        =              1
    Pruning alpha          =              1
    Radial Points          =             75
    Spherical Points       =            302
    Total Points           =          43424
    Total Blocks           =            404
    Max Points             =            255
    Max Functions          =             28
    Weights Tolerance      =       1.00E-15

  -Total Gradient:
     Atom            X                  Y                   Z
    ------   -----------------  -----------------  -----------------
       1        0.000000000000    -0.000000000000    -0.000000781397
       2        0.000000000000     0.000000000000     0.000009342218

*** tstop() called on Joses-MacBook-Pro-2.local at Thu Jul 17 13:15:15 2025
Module time:
	user time   =       0.70 seconds =       0.01 minutes
	system time =       1.08 seconds =       0.02 minutes
	total time  =          0 seconds =       0.00 minutes
Total time:
	user time   =      44.90 seconds =       0.75 minutes
	system time =      60.22 seconds =       1.00 minutes
	total time  =         10 seconds =       0.17 minutes

    			-----------------------------------------

    			 OPTKING 3.0: for geometry optimizations

    			     By R.A. King, Bethel University

    			        with contributions from

    			    A.V. Copan, J. Cayton, A. Heide

    			-----------------------------------------

	                            ===> Fragment 1 <==

	 Z (Atomic Numbers)          Masses                          Geom
	       4.000000             9.012183          0.00000000  0.00000000  2.91388996
	       6.000000            12.000000          0.00000000  0.00000000 -2.18837581

	 - Coordinate -           - BOHR/RAD -       - ANG/DEG -
	 R(1,2)           =         5.102266           2.700003

	        --- Internal Coordinate Step in ANG or DEG, aJ/ANG or AJ/DEG ---
	-------------------------------------------------------------------------------
	           Coordinate      Previous         Force          Change          New
	           ----------      --------        ------          ------        ------
	               R(1,2)       2.70000        0.00004        0.00040       2.70041
	-------------------------------------------------------------------------------

	                                 ==> Convergence Check <==

	Measures of convergence in internal coordinates in au.

	Criteria marked as inactive (o), active & met (*), and active & unmet ( ).

	----------------------------------------------------------------------------------------------
	   Step    Total Energy     Delta E     Max Force     RMS Force      Max Disp      RMS Disp
	----------------------------------------------------------------------------------------------
	  Convergence Criteria     1.00e-06 *    3.00e-04 *             o    1.20e-03 *             o
	----------------------------------------------------------------------------------------------
	    13     -52.02193850   -2.30e-08 *    5.06e-06 *    5.06e-06 o    7.60e-04 *    7.60e-04 o  ~
	----------------------------------------------------------------------------------------------

Next Geometry in Ang
	Fragment 1 (Ang)

	   Be   0.0000000000   0.0000000000   1.5421652967
	    C   0.0000000000   0.0000000000  -1.1582397436

    Final optimized geometry and variables:
    Molecular point group: c2v
    Full point group: C_inf_v

    Geometry (in Angstrom), charge = 1, multiplicity = 6:

    BE           0.000000000000     0.000000000000     1.541964162098
    C            0.000000000000     0.000000000000    -1.158038609041

    Psi4 stopped on: Thursday, 17 July 2025 01:15PM
    Psi4 wall time for execution: 0:00:10.57

*** Psi4 exiting successfully. Buy a developer a beer!
