                               Psi4 1.9.1 release

  ==> Input File <==

--------------------------------------------------------------------------
molecule {
1 6
Be   0.00000        0.60000        0.00000
O   0.00000       -0.60000        0.00000
}

set {
basis              cc-pvdz
reference          uks
maxiter            500
geom_maxiter       500
DAMPING_PERCENTAGE 1
guess              SAP
}

optimize('b3lyp')
--------------------------------------------------------------------------

    Molecular point group: c2v
  Charge       = 1
  Multiplicity = 6
  Basis Set: CC-PVDZ
    Blend: CC-PVDZ
  Basis Set: (CC-PVDZ AUX)
    Blend: CC-PVDZ-JKFIT + DEF2-UNIVERSAL-JKFIT
  @DF-UKS Final Energy:   -88.72155841793725
    Total Energy =                        -88.7215584179372456
 Dipole X            :          0.0000000            0.0000000            0.0000000
 Dipole Y            :          0.0000000            0.0000000            0.0000000
 Dipole Z            :         -0.7922815           -0.7361317           -1.5284131
 Magnitude           :                                                    1.5284131
    Molecular point group: c2v
  Basis Set: CC-PVDZ
    Blend: CC-PVDZ
  Basis Set: (CC-PVDZ AUX)
    Blend: CC-PVDZ-JKFIT + DEF2-UNIVERSAL-JKFIT
  Basis Set: CC-PVDZ
    Blend: CC-PVDZ
  Basis Set: (CC-PVDZ AUX)
    Blend: CC-PVDZ-JKFIT + DEF2-UNIVERSAL-JKFIT
  @DF-UKS Final Energy:   -88.89996443900836
    Total Energy =                        -88.8999644390083432
  Basis Set: CC-PVDZ
    Blend: CC-PVDZ
  Basis Set: (CC-PVDZ AUX)
    Blend: CC-PVDZ-JKFIT + DEF2-UNIVERSAL-JKFIT
  Basis Set: CC-PVDZ
    Blend: CC-PVDZ
  @DF-UKS Final Energy:   -88.97442678666015
    Total Energy =                        -88.9744267866601319
  @DF-UKS Final Energy:   -89.04596513854341
    Total Energy =                        -89.0459651385434086
  @DF-UKS Final Energy:   -89.07272672948412
    Total Energy =                        -89.0727267294841170
  @DF-UKS Final Energy:   -89.10774811824477
    Total Energy =                        -89.1077481182447713
  @DF-UKS Final Energy:   -89.11400000120409
    Total Energy =                        -89.1140000012040900
  @DF-UKS Final Energy:   -89.12660415069145
    Total Energy =                        -89.1266041506914632
  @DF-UKS Final Energy:   -89.12790881675495
    Total Energy =                        -89.1279088167549389
  @DF-UKS Final Energy:   -89.13296164469335
    Total Energy =                        -89.1329616446933528
  @DF-UKS Final Energy:   -89.13485708629076
    Total Energy =                        -89.1348570862907508
  @DF-UKS Final Energy:   -89.13583912776788
    Total Energy =                        -89.1358391277678805
  @DF-UKS Final Energy:   -89.13628928755604
    Total Energy =                        -89.1362892875560249
  @DF-UKS Final Energy:   -89.13648617798636
    Total Energy =                        -89.1364861779863560
  @DF-UKS Final Energy:   -89.13656325692293
    Total Energy =                        -89.1365632569229263
  @DF-UKS Final Energy:   -89.13658849862567
    Total Energy =                        -89.1365884986256702
  @DF-UKS Final Energy:   -89.13659400670691
    Total Energy =                        -89.1365940067069147
  Basis Set: (CC-PVDZ AUX)
    Blend: CC-PVDZ-JKFIT + DEF2-UNIVERSAL-JKFIT
  Basis Set: CC-PVDZ
    Blend: CC-PVDZ
  Basis Set: (CC-PVDZ AUX)
    Blend: CC-PVDZ-JKFIT + DEF2-UNIVERSAL-JKFIT
  @DF-UKS Final Energy:   -89.13659576620159
    Total Energy =                        -89.1365957662015802
  Basis Set: CC-PVDZ
    Blend: CC-PVDZ
  Basis Set: (CC-PVDZ AUX)
    Blend: CC-PVDZ-JKFIT + DEF2-UNIVERSAL-JKFIT
  Charge       = 1
  Multiplicity = 6
  Basis Set: CC-PVDZ
    Blend: CC-PVDZ
  Basis Set: (CC-PVDZ AUX)
    Blend: CC-PVDZ-JKFIT + DEF2-UNIVERSAL-JKFIT

    Orbital Energies [Eh]
    ---------------------

    Alpha Occupied:

       1A1   -19.988745     2A1    -4.246196     3A1    -1.634571
       4A1    -1.042274     1B2    -1.042261     1B1    -1.042140
       5A1    -0.402442     2B1    -0.265611

    Alpha Virtual:

       6A1    -0.204662     2B2    -0.191650     7A1     0.012716
       3B1     0.042820     3B2     0.062356     8A1     0.075675
       4B1     0.308632     9A1     0.310406     1A2     0.315573
      10A1     0.327356     4B2     0.327435     5B1     0.348146
       5B2     0.348287    11A1     0.386690    12A1     0.597972
       2A2     1.866636     6B2     1.866685    13A1     1.866739
       6B1     1.866793    14A1     1.867611

    Beta Occupied:

       1A1   -19.904289     2A1    -4.227797     3A1    -1.382445

    Beta Virtual:

       4A1    -0.703486     1B2    -0.703031     1B1    -0.702858
       5A1    -0.250020     6A1    -0.143851     2B2    -0.128677
       2B1    -0.098963     7A1     0.058237     3B2     0.087841
       8A1     0.110628     3B1     0.113159     9A1     0.388595
       4B2     0.394298     4B1     0.423031     1A2     0.428342
      10A1     0.432027     5B2     0.457734     5B1     0.458385
      11A1     0.492992    12A1     0.709546     2A2     2.054919
       6B2     2.054956    13A1     2.055006     6B1     2.055074
      14A1     2.055840

    Final Occupation by Irrep:
             A1    A2    B1    B2
    DOCC [     3,    0,    0,    0 ]
    SOCC [     2,    0,    2,    1 ]
    NA   [     5,    0,    2,    1 ]
    NB   [     3,    0,    0,    0 ]

  @DF-UKS Final Energy:   -89.13659606330728

   => Energetics <=

    Nuclear Repulsion Energy =              4.2105825611522896
    One-Electron Energy =                -125.2067027313494521
    Two-Electron Energy =                  40.6267891306216882
    DFT Exchange-Correlation Energy =      -8.7672650237318308
    Empirical Dispersion Energy =           0.0000000000000000
    VV10 Nonlocal Energy =                  0.0000000000000000
    Total Energy =                        -89.1365960633073087

  UHF NO Occupations:
  HONO-2 :    4 A1 1.0000000
  HONO-1 :    2 B1 1.0000000
  HONO-0 :    5 A1 1.0000000
  LUNO+0 :    6 A1 0.0009667
  LUNO+1 :    7 A1 0.0000007
  LUNO+2 :    8 A1 0.0000000
  LUNO+3 :    3 B1 0.0000000

Computation Completed

Properties will be evaluated at   0.000000,   0.000000,   0.000000 [a0]

Properties computed using the SCF density matrix

 Multipole Moments:

 ------------------------------------------------------------------------------------
     Multipole            Electronic (a.u.)      Nuclear  (a.u.)        Total (a.u.)
 ------------------------------------------------------------------------------------

 L = 1.  Multiply by 2.5417464519 to convert [e a0] to [Debye]
 Dipole X            :          0.0000000            0.0000000            0.0000000
 Dipole Y            :          0.0000000            0.0000000            0.0000000
 Dipole Z            :          0.2363664           -2.4670796           -2.2307132
 Magnitude           :                                                    2.2307132

 ------------------------------------------------------------------------------------

*** tstop() called on Joses-MacBook-Pro-2.local at Thu Jul 17 13:16:17 2025
Module time:
	user time   =       2.64 seconds =       0.04 minutes
	system time =       1.80 seconds =       0.03 minutes
	total time  =          0 seconds =       0.00 minutes
Total time:
	user time   =      68.33 seconds =       1.14 minutes
	system time =      78.85 seconds =       1.31 minutes
	total time  =         14 seconds =       0.23 minutes

*** tstart() called on Joses-MacBook-Pro-2.local
*** at Thu Jul 17 13:16:17 2025

         ------------------------------------------------------------
                                   SCF GRAD
                          Rob Parrish, Justin Turney,
                       Andy Simmonett, and Alex Sokolov
         ------------------------------------------------------------

  ==> Geometry <==

    Molecular point group: c2v
    Full point group: C_inf_v

    Geometry (in Angstrom), charge = 1, multiplicity = 6:

       Center              X                  Y                   Z               Mass
    ------------   -----------------  -----------------  -----------------  -----------------
         BE           0.000000000000     0.000000000000     2.572335191535     9.012183065000
         O            0.000000000000     0.000000000000    -1.449357886680    15.994914619570

  Nuclear repulsion =    4.210582561152290

  ==> Basis Set <==

  Basis Set: CC-PVDZ
    Blend: CC-PVDZ
    Number of shells: 12
    Number of basis functions: 28
    Number of Cartesian functions: 30
    Spherical Harmonics?: true
    Max angular momentum: 2

  ==> DFJKGrad: Density-Fitted SCF Gradients <==

    Gradient:                    1
    J tasked:                  Yes
    K tasked:                  Yes
    wK tasked:                  No
    OpenMP threads:              1
    Integrals threads:           1
    Memory [MiB]:              375
    Schwarz Cutoff:          1E-12
    Fitting Condition:       1E-10

   => Auxiliary Basis Set <=

  Basis Set: (CC-PVDZ AUX)
    Blend: CC-PVDZ-JKFIT + DEF2-UNIVERSAL-JKFIT
    Number of shells: 41
    Number of basis functions: 121
    Number of Cartesian functions: 141
    Spherical Harmonics?: true
    Max angular momentum: 3

  ==> DFT Potential <==

   => LibXC <=

    Version 6.2.2
    S. Lehtola, C. Steigemann, M. J.T. Oliveira, and M. A.L. Marques.,  SoftwareX 7, 1â€“5 (2018) (10.1016/j.softx.2017.11.002)

   => Composite Functional: B3LYP <=

    B3LYP Hyb-GGA Exchange-Correlation Functional

    P. J. Stephens, F. J. Devlin, C. F. Chabalowski, and M. J. Frisch.,  J. Phys. Chem. 98, 11623 (1994) (10.1021/j100096a001)

    Deriv               =              1
    GGA                 =           TRUE
    Meta                =          FALSE

    Exchange Hybrid     =           TRUE
    MP2 Hybrid          =          FALSE

   => Exchange Functionals <=

    0.0800   Slater exchange
    0.7200         Becke 88

   => Exact (HF) Exchange <=

    0.2000               HF

   => Correlation Functionals <=

    0.1900   Vosko, Wilk & Nusair (VWN5_RPA)
    0.8100   Lee, Yang & Parr

   => LibXC Density Thresholds  <==

    XC_HYB_GGA_XC_B3LYP:  1.00E-15

   => Molecular Quadrature <=

    Radial Scheme          =       TREUTLER
    Pruning Scheme         =           NONE
    Nuclear Scheme         =       TREUTLER

    Blocking Scheme        =         OCTREE
    BS radius alpha        =              1
    Pruning alpha          =              1
    Radial Points          =             75
    Spherical Points       =            302
    Total Points           =          43679
    Total Blocks           =            427
    Max Points             =            253
    Max Functions          =             28
    Weights Tolerance      =       1.00E-15

  -Total Gradient:
     Atom            X                  Y                   Z
    ------   -----------------  -----------------  -----------------
       1        0.000000000000    -0.000000000000    -0.000008030488
       2        0.000000000000     0.000000000000    -0.000000147623

*** tstop() called on Joses-MacBook-Pro-2.local at Thu Jul 17 13:16:17 2025
Module time:
	user time   =       0.83 seconds =       0.01 minutes
	system time =       0.84 seconds =       0.01 minutes
	total time  =          0 seconds =       0.00 minutes
Total time:
	user time   =      69.17 seconds =       1.15 minutes
	system time =      79.69 seconds =       1.33 minutes
	total time  =         14 seconds =       0.23 minutes

    			-----------------------------------------

    			 OPTKING 3.0: for geometry optimizations

    			     By R.A. King, Bethel University

    			        with contributions from

    			    A.V. Copan, J. Cayton, A. Heide

    			-----------------------------------------

	                            ===> Fragment 1 <==

	 Z (Atomic Numbers)          Masses                          Geom
	       4.000000             9.012183          0.00000000  0.00000000  4.86100901
	       8.000000            15.994915          0.00000000  0.00000000 -2.73888946

	 - Coordinate -           - BOHR/RAD -       - ANG/DEG -
	 R(1,2)           =         7.599898           4.021693

	        --- Internal Coordinate Step in ANG or DEG, aJ/ANG or AJ/DEG ---
	-------------------------------------------------------------------------------
	           Coordinate      Previous         Force          Change          New
	           ----------      --------        ------          ------        ------
	               R(1,2)       4.02169        0.00003        0.00392       4.02561
	-------------------------------------------------------------------------------

	                                 ==> Convergence Check <==

	Measures of convergence in internal coordinates in au.

	Criteria marked as inactive (o), active & met (*), and active & unmet ( ).

	----------------------------------------------------------------------------------------------
	   Step    Total Energy     Delta E     Max Force     RMS Force      Max Disp      RMS Disp
	----------------------------------------------------------------------------------------------
	  Convergence Criteria     1.00e-06 *    3.00e-04 *             o    1.20e-03 *             o
	----------------------------------------------------------------------------------------------
	    19     -89.13659606   -2.97e-07 *    3.94e-06 *    3.94e-06 o    7.41e-03      7.41e-03 o  ~
	----------------------------------------------------------------------------------------------

Next Geometry in Ang
	Fragment 1 (Ang)

	   Be   0.0000000000   0.0000000000   2.5742957613
	    O   0.0000000000   0.0000000000  -1.4513184564

    Final optimized geometry and variables:
    Molecular point group: c2v
    Full point group: C_inf_v

    Geometry (in Angstrom), charge = 1, multiplicity = 6:

    BE           0.000000000000     0.000000000000     2.572335191535
    O            0.000000000000     0.000000000000    -1.449357886680

    Psi4 stopped on: Thursday, 17 July 2025 01:16PM
    Psi4 wall time for execution: 0:00:14.60

*** Psi4 exiting successfully. Buy a developer a beer!
