                               Psi4 1.9.1 release

  ==> Input File <==

--------------------------------------------------------------------------
molecule {
1 6
N   0.00000        0.60000        0.00000
Cl   0.00000       -0.60000        0.00000
}

set {
basis              cc-pvdz
reference          uks
maxiter            500
geom_maxiter       500
DAMPING_PERCENTAGE 1
guess              SAP
}

optimize('b3lyp')
--------------------------------------------------------------------------

    Molecular point group: c2v
  Charge       = 1
  Multiplicity = 6
  Basis Set: CC-PVDZ
    Blend: CC-PVDZ
  Basis Set: (CC-PVDZ AUX)
    Blend: CC-PVDZ-JKFIT
  @DF-UKS Final Energy:  -513.52780873123845
    Total Energy =                       -513.5278087312384514
 Dipole X            :          0.0000000            0.0000000            0.0000000
 Dipole Y            :          0.0000000            0.0000000            0.0000000
 Dipole Z            :          0.7052224            0.3116229            1.0168453
 Magnitude           :                                                    1.0168453
    Molecular point group: c2v
  Basis Set: CC-PVDZ
    Blend: CC-PVDZ
  Basis Set: (CC-PVDZ AUX)
    Blend: CC-PVDZ-JKFIT
  Basis Set: CC-PVDZ
    Blend: CC-PVDZ
  Basis Set: (CC-PVDZ AUX)
    Blend: CC-PVDZ-JKFIT
  @DF-UKS Final Energy:  -513.81178886222142
    Total Energy =                       -513.8117888622214195
  Basis Set: CC-PVDZ
    Blend: CC-PVDZ
  Basis Set: (CC-PVDZ AUX)
    Blend: CC-PVDZ-JKFIT
  Basis Set: CC-PVDZ
    Blend: CC-PVDZ
  @DF-UKS Final Energy:  -513.99033043961742
    Total Energy =                       -513.9903304396174235
  @DF-UKS Final Energy:  -514.11801759853302
    Total Energy =                       -514.1180175985330152
  @DF-UKS Final Energy:  -514.19958026817415
    Total Energy =                       -514.1995802681740315
  @DF-UKS Final Energy:  -514.23637255638539
    Total Energy =                       -514.2363725563853905
  @DF-UKS Final Energy:  -514.25467250249051
    Total Energy =                       -514.2546725024905072
  @DF-UKS Final Energy:  -514.26366037708078
    Total Energy =                       -514.2636603770807824
  @DF-UKS Final Energy:  -514.26785868968955
    Total Energy =                       -514.2678586896895467
  @DF-UKS Final Energy:  -514.26966463348515
    Total Energy =                       -514.2696646334851494
  @DF-UKS Final Energy:  -514.27035428964336
    Total Energy =                       -514.2703542896434783
  @DF-UKS Final Energy:  -514.27056890396216
    Total Energy =                       -514.2705689039621575
  @DF-UKS Final Energy:  -514.27060858167658
    Total Energy =                       -514.2706085816765835
  @DF-UKS Final Energy:  -514.27061733805226
    Total Energy =                       -514.2706173380522614
  Basis Set: (CC-PVDZ AUX)
    Blend: CC-PVDZ-JKFIT
  Basis Set: CC-PVDZ
    Blend: CC-PVDZ
  Basis Set: (CC-PVDZ AUX)
    Blend: CC-PVDZ-JKFIT
  @DF-UKS Final Energy:  -514.27061988905314
    Total Energy =                       -514.2706198890531368
  Basis Set: CC-PVDZ
    Blend: CC-PVDZ
  Basis Set: (CC-PVDZ AUX)
    Blend: CC-PVDZ-JKFIT
  Charge       = 1
  Multiplicity = 6
  Basis Set: CC-PVDZ
    Blend: CC-PVDZ
  Basis Set: (CC-PVDZ AUX)
    Blend: CC-PVDZ-JKFIT

    Orbital Energies [Eh]
    ---------------------

    Alpha Occupied:

       1A1  -102.071883     2A1   -14.614385     3A1    -9.977881
       1B2    -7.747315     4A1    -7.747133     1B1    -7.720905
       5A1    -1.285731     6A1    -0.980920     2B2    -0.808559
       7A1    -0.808023     2B1    -0.749471     8A1    -0.525692
       3B2    -0.520552     3B1    -0.520285

    Alpha Virtual:

       9A1     0.159785     4B2     0.165167     4B1     0.195144
      10A1     0.198536    11A1     0.218206     5B2     0.219376
       5B1     0.264557     1A2     0.264654    12A1     0.278988
       6B2     0.491688     6B1     0.492728    13A1     0.554150
      14A1     0.672823     7B2     1.500105     7B1     1.500333
      15A1     1.503809     2A2     1.503857    16A1     1.506444

    Beta Occupied:

       1A1  -102.056671     2A1   -14.557356     3A1    -9.962962
       1B2    -7.718217     4A1    -7.718011     1B1    -7.711979
       5A1    -1.173369     6A1    -0.783281     2B1    -0.715095

    Beta Virtual:

       2B2    -0.617053     7A1    -0.616808     8A1    -0.273220
       3B2    -0.264186     3B1    -0.263835     4B1     0.208353
       4B2     0.213241     9A1     0.219003    10A1     0.243625
       5B1     0.332970     1A2     0.333211    11A1     0.333709
      12A1     0.342558     5B2     0.346986     6B2     0.598765
       6B1     0.599362    13A1     0.657864    14A1     0.764136
       7B2     1.648110     7B1     1.648335    15A1     1.652743
       2A2     1.652804    16A1     1.653685

    Final Occupation by Irrep:
             A1    A2    B1    B2
    DOCC [     6,    0,    2,    1 ]
    SOCC [     2,    0,    1,    2 ]
    NA   [     8,    0,    3,    3 ]
    NB   [     6,    0,    2,    1 ]

  @DF-UKS Final Energy:  -514.27062018958804

   => Energetics <=

    Nuclear Repulsion Energy =             20.1362891914239199
    One-Electron Energy =                -740.4498934352429842
    Two-Electron Energy =                 233.9620118391753749
    DFT Exchange-Correlation Energy =     -27.9190277849442943
    Empirical Dispersion Energy =           0.0000000000000000
    VV10 Nonlocal Energy =                  0.0000000000000000
    Total Energy =                       -514.2706201895880440

  UHF NO Occupations:
  HONO-2 :    2 B2 1.0000000
  HONO-1 :    3 B2 1.0000000
  HONO-0 :    8 A1 1.0000000
  LUNO+0 :    9 A1 0.0011110
  LUNO+1 :   10 A1 0.0009895
  LUNO+2 :    4 B1 0.0001085
  LUNO+3 :   11 A1 0.0000001

Computation Completed

Properties will be evaluated at   0.000000,   0.000000,   0.000000 [a0]

Properties computed using the SCF density matrix

 Multipole Moments:

 ------------------------------------------------------------------------------------
     Multipole            Electronic (a.u.)      Nuclear  (a.u.)        Total (a.u.)
 ------------------------------------------------------------------------------------

 L = 1.  Multiply by 2.5417464519 to convert [e a0] to [Debye]
 Dipole X            :          0.0000000            0.0000000            0.0000000
 Dipole Y            :          0.0000000            0.0000000            0.0000000
 Dipole Z            :         -2.2924890            0.8121135           -1.4803755
 Magnitude           :                                                    1.4803755

 ------------------------------------------------------------------------------------

*** tstop() called on Joses-MacBook-Pro-2.local at Thu Jul 17 13:58:21 2025
Module time:
	user time   =       1.81 seconds =       0.03 minutes
	system time =       4.01 seconds =       0.07 minutes
	total time  =          0 seconds =       0.00 minutes
Total time:
	user time   =      52.88 seconds =       0.88 minutes
	system time =     123.35 seconds =       2.06 minutes
	total time  =         18 seconds =       0.30 minutes

*** tstart() called on Joses-MacBook-Pro-2.local
*** at Thu Jul 17 13:58:21 2025

         ------------------------------------------------------------
                                   SCF GRAD
                          Rob Parrish, Justin Turney,
                       Andy Simmonett, and Alex Sokolov
         ------------------------------------------------------------

  ==> Geometry <==

    Molecular point group: c2v
    Full point group: C_inf_v

    Geometry (in Angstrom), charge = 1, multiplicity = 6:

       Center              X                  Y                   Z               Mass
    ------------   -----------------  -----------------  -----------------  -----------------
         N            0.000000000000     0.000000000000     2.233072622692    14.003074004430
         CL           0.000000000000     0.000000000000    -0.894220965074    34.968852682000

  Nuclear repulsion =   20.136289191423920

  ==> Basis Set <==

  Basis Set: CC-PVDZ
    Blend: CC-PVDZ
    Number of shells: 14
    Number of basis functions: 32
    Number of Cartesian functions: 34
    Spherical Harmonics?: true
    Max angular momentum: 2

  ==> DFJKGrad: Density-Fitted SCF Gradients <==

    Gradient:                    1
    J tasked:                  Yes
    K tasked:                  Yes
    wK tasked:                  No
    OpenMP threads:              1
    Integrals threads:           1
    Memory [MiB]:              375
    Schwarz Cutoff:          1E-12
    Fitting Condition:       1E-10

   => Auxiliary Basis Set <=

  Basis Set: (CC-PVDZ AUX)
    Blend: CC-PVDZ-JKFIT
    Number of shells: 60
    Number of basis functions: 182
    Number of Cartesian functions: 211
    Spherical Harmonics?: true
    Max angular momentum: 3

  ==> DFT Potential <==

   => LibXC <=

    Version 6.2.2
    S. Lehtola, C. Steigemann, M. J.T. Oliveira, and M. A.L. Marques.,  SoftwareX 7, 1â€“5 (2018) (10.1016/j.softx.2017.11.002)

   => Composite Functional: B3LYP <=

    B3LYP Hyb-GGA Exchange-Correlation Functional

    P. J. Stephens, F. J. Devlin, C. F. Chabalowski, and M. J. Frisch.,  J. Phys. Chem. 98, 11623 (1994) (10.1021/j100096a001)

    Deriv               =              1
    GGA                 =           TRUE
    Meta                =          FALSE

    Exchange Hybrid     =           TRUE
    MP2 Hybrid          =          FALSE

   => Exchange Functionals <=

    0.0800   Slater exchange
    0.7200         Becke 88

   => Exact (HF) Exchange <=

    0.2000               HF

   => Correlation Functionals <=

    0.1900   Vosko, Wilk & Nusair (VWN5_RPA)
    0.8100   Lee, Yang & Parr

   => LibXC Density Thresholds  <==

    XC_HYB_GGA_XC_B3LYP:  1.00E-15

   => Molecular Quadrature <=

    Radial Scheme          =       TREUTLER
    Pruning Scheme         =           NONE
    Nuclear Scheme         =       TREUTLER

    Blocking Scheme        =         OCTREE
    BS radius alpha        =              1
    Pruning alpha          =              1
    Radial Points          =             75
    Spherical Points       =            302
    Total Points           =          41258
    Total Blocks           =            375
    Max Points             =            254
    Max Functions          =             32
    Weights Tolerance      =       1.00E-15

  -Total Gradient:
     Atom            X                  Y                   Z
    ------   -----------------  -----------------  -----------------
       1        0.000000000000    -0.000000000000    -0.000012035965
       2        0.000000000000     0.000000000000     0.000021995321

*** tstop() called on Joses-MacBook-Pro-2.local at Thu Jul 17 13:58:22 2025
Module time:
	user time   =       0.70 seconds =       0.01 minutes
	system time =       1.80 seconds =       0.03 minutes
	total time  =          1 seconds =       0.02 minutes
Total time:
	user time   =      53.58 seconds =       0.89 minutes
	system time =     125.17 seconds =       2.09 minutes
	total time  =         19 seconds =       0.32 minutes

    			-----------------------------------------

    			 OPTKING 3.0: for geometry optimizations

    			     By R.A. King, Bethel University

    			        with contributions from

    			    A.V. Copan, J. Cayton, A. Heide

    			-----------------------------------------

	                            ===> Fragment 1 <==

	 Z (Atomic Numbers)          Masses                          Geom
	       7.000000            14.003074          0.00000000  0.00000000  4.21989568
	      17.000000            34.968853          0.00000000  0.00000000 -1.68983272

	 - Coordinate -           - BOHR/RAD -       - ANG/DEG -
	 R(1,2)           =         5.909728           3.127294

	        --- Internal Coordinate Step in ANG or DEG, aJ/ANG or AJ/DEG ---
	-------------------------------------------------------------------------------
	           Coordinate      Previous         Force          Change          New
	           ----------      --------        ------          ------        ------
	               R(1,2)       3.12729        0.00014        0.00205       3.12934
	-------------------------------------------------------------------------------

	                                 ==> Convergence Check <==

	Measures of convergence in internal coordinates in au.

	Criteria marked as inactive (o), active & met (*), and active & unmet ( ).

	----------------------------------------------------------------------------------------------
	   Step    Total Energy     Delta E     Max Force     RMS Force      Max Disp      RMS Disp
	----------------------------------------------------------------------------------------------
	  Convergence Criteria     1.00e-06 *    3.00e-04 *             o    1.20e-03 *             o
	----------------------------------------------------------------------------------------------
	    16    -514.27062019   -3.01e-07 *    1.70e-05 *    1.70e-05 o    3.87e-03      3.87e-03 o  ~
	----------------------------------------------------------------------------------------------

Next Geometry in Ang
	Fragment 1 (Ang)

	    N   0.0000000000   0.0000000000   2.2340974513
	   Cl   0.0000000000   0.0000000000  -0.8952457937

    Final optimized geometry and variables:
    Molecular point group: c2v
    Full point group: C_inf_v

    Geometry (in Angstrom), charge = 1, multiplicity = 6:

    N            0.000000000000     0.000000000000     2.233072622692
    CL           0.000000000000     0.000000000000    -0.894220965074

    Psi4 stopped on: Thursday, 17 July 2025 01:58PM
    Psi4 wall time for execution: 0:00:19.22

*** Psi4 exiting successfully. Buy a developer a beer!
