                               Psi4 1.9.1 release

  ==> Input File <==

--------------------------------------------------------------------------
molecule {
1 6
Ne   0.00000        0.60000        0.00000
Mg   0.00000       -0.60000        0.00000
}

set {
basis              cc-pvdz
reference          uks
maxiter            500
geom_maxiter       500
DAMPING_PERCENTAGE 1
guess              SAP
}

optimize('b3lyp')
--------------------------------------------------------------------------

    Molecular point group: c2v
  Charge       = 1
  Multiplicity = 6
  Basis Set: CC-PVDZ
    Blend: CC-PVDZ
  Basis Set: (CC-PVDZ AUX)
    Blend: CC-PVDZ-JKFIT + DEF2-UNIVERSAL-JKFIT
  @DF-UKS Final Energy:  -326.30898140250758
    Total Energy =                       -326.3089814025075839
 Dipole X            :          0.0000000            0.0000000            0.0000000
 Dipole Y            :          0.0000000            0.0000000            0.0000000
 Dipole Z            :          1.3244135           -0.0030353            1.3213781
 Magnitude           :                                                    1.3213781
    Molecular point group: c2v
  Basis Set: CC-PVDZ
    Blend: CC-PVDZ
  Basis Set: (CC-PVDZ AUX)
    Blend: CC-PVDZ-JKFIT + DEF2-UNIVERSAL-JKFIT
  Basis Set: CC-PVDZ
    Blend: CC-PVDZ
  Basis Set: (CC-PVDZ AUX)
    Blend: CC-PVDZ-JKFIT + DEF2-UNIVERSAL-JKFIT
  @DF-UKS Final Energy:  -326.54746341827865
    Total Energy =                       -326.5474634182786531
  Basis Set: CC-PVDZ
    Blend: CC-PVDZ
  Basis Set: (CC-PVDZ AUX)
    Blend: CC-PVDZ-JKFIT + DEF2-UNIVERSAL-JKFIT
  Basis Set: CC-PVDZ
    Blend: CC-PVDZ
  @DF-UKS Final Energy:  -326.71383599748992
    Total Energy =                       -326.7138359974898663
  @DF-UKS Final Energy:  -326.82926278255565
    Total Energy =                       -326.8292627825556451
  @DF-UKS Final Energy:  -326.90891710215863
    Total Energy =                       -326.9089171021586253
  @DF-UKS Final Energy:  -326.94584051370265
    Total Energy =                       -326.9458405137026489
  @DF-UKS Final Energy:  -326.95783936687599
    Total Energy =                       -326.9578393668759873
  @DF-UKS Final Energy:  -326.96025215431365
    Total Energy =                       -326.9602521543135936
  @DF-UKS Final Energy:  -326.96045132112494
    Total Energy =                       -326.9604513211249923
  Basis Set: (CC-PVDZ AUX)
    Blend: CC-PVDZ-JKFIT + DEF2-UNIVERSAL-JKFIT
  Basis Set: CC-PVDZ
    Blend: CC-PVDZ
  Basis Set: (CC-PVDZ AUX)
    Blend: CC-PVDZ-JKFIT + DEF2-UNIVERSAL-JKFIT
  @DF-UKS Final Energy:  -326.96046840592538
    Total Energy =                       -326.9604684059254396
  Basis Set: CC-PVDZ
    Blend: CC-PVDZ
  Basis Set: (CC-PVDZ AUX)
    Blend: CC-PVDZ-JKFIT + DEF2-UNIVERSAL-JKFIT
  Charge       = 1
  Multiplicity = 6
  Basis Set: CC-PVDZ
    Blend: CC-PVDZ
  Basis Set: (CC-PVDZ AUX)
    Blend: CC-PVDZ-JKFIT + DEF2-UNIVERSAL-JKFIT

    Orbital Energies [Eh]
    ---------------------

    Alpha Occupied:

       1A1   -47.011183     2A1   -32.597566     3A1    -3.301264
       4A1    -2.803142     5A1    -2.050260     1B2    -2.042946
       1B1    -2.042891     6A1    -1.949853     2B2    -1.948303
       2B1    -1.829435     7A1    -0.481790     3B2    -0.273359
       3B1    -0.270901

    Alpha Virtual:

       8A1    -0.238256     9A1    -0.165195     4B2    -0.015373
       4B1    -0.014488    10A1    -0.008592     5B2     0.076373
       5B1     0.081137    11A1     0.098633     1A2     0.122157
      12A1     0.122160     6B2     0.424900     6B1     0.472560
      13A1     0.524213    14A1     1.114363     7B2     3.310133
      15A1     3.318052     2A2     3.391004     7B1     3.394862
      16A1     3.425477

    Beta Occupied:

       1A1   -47.005935     2A1   -32.507317     3A1    -3.293315
       4A1    -2.570662     5A1    -2.043802     1B2    -2.034012
       1B1    -2.033922     2B1    -1.741799

    Beta Virtual:

       6A1    -1.509241     2B2    -1.507509     7A1    -0.333209
       8A1    -0.215416     3B1    -0.154156     3B2    -0.154004
       9A1    -0.104602    10A1     0.011982     4B2     0.033291
       4B1     0.033882     5B1     0.124265     5B2     0.126311
      11A1     0.141420    12A1     0.199370     1A2     0.199375
       6B1     0.507974     6B2     0.534071    13A1     0.631830
      14A1     1.217207     2A2     3.527709     7B1     3.531447
      15A1     3.541623     7B2     3.567137    16A1     3.576420

    Final Occupation by Irrep:
             A1    A2    B1    B2
    DOCC [     5,    0,    2,    1 ]
    SOCC [     2,    0,    1,    2 ]
    NA   [     7,    0,    3,    3 ]
    NB   [     5,    0,    2,    1 ]

  @DF-UKS Final Energy:  -326.96046868520489

   => Energetics <=

    Nuclear Repulsion Energy =             26.3354947931160979
    One-Electron Energy =                -498.5779634958389011
    Two-Electron Energy =                 167.9105399166199959
    DFT Exchange-Correlation Energy =     -22.6285398991020905
    Empirical Dispersion Energy =           0.0000000000000000
    VV10 Nonlocal Energy =                  0.0000000000000000
    Total Energy =                       -326.9604686852048872

  UHF NO Occupations:
  HONO-2 :    3 B2 1.0000000
  HONO-1 :    7 A1 1.0000000
  HONO-0 :    3 B1 1.0000000
  LUNO+0 :    8 A1 0.0005171
  LUNO+1 :    4 B1 0.0001472
  LUNO+2 :    4 B2 0.0000013
  LUNO+3 :    5 B1 0.0000013

Computation Completed

Properties will be evaluated at   0.000000,   0.000000,   0.000000 [a0]

Properties computed using the SCF density matrix

 Multipole Moments:

 ------------------------------------------------------------------------------------
     Multipole            Electronic (a.u.)      Nuclear  (a.u.)        Total (a.u.)
 ------------------------------------------------------------------------------------

 L = 1.  Multiply by 2.5417464519 to convert [e a0] to [Debye]
 Dipole X            :          0.0000000            0.0000000            0.0000000
 Dipole Y            :          0.0000000            0.0000000            0.0000000
 Dipole Z            :          4.0992679           -0.0060991            4.0931688
 Magnitude           :                                                    4.0931688

 ------------------------------------------------------------------------------------

*** tstop() called on Joses-MacBook-Pro-2.local at Thu Jul 17 14:38:58 2025
Module time:
	user time   =       2.52 seconds =       0.04 minutes
	system time =       2.71 seconds =       0.05 minutes
	total time  =          0 seconds =       0.00 minutes
Total time:
	user time   =      52.32 seconds =       0.87 minutes
	system time =      55.39 seconds =       0.92 minutes
	total time  =         11 seconds =       0.18 minutes

*** tstart() called on Joses-MacBook-Pro-2.local
*** at Thu Jul 17 14:38:58 2025

         ------------------------------------------------------------
                                   SCF GRAD
                          Rob Parrish, Justin Turney,
                       Andy Simmonett, and Alex Sokolov
         ------------------------------------------------------------

  ==> Geometry <==

    Molecular point group: c2v
    Full point group: C_inf_v

    Geometry (in Angstrom), charge = 1, multiplicity = 6:

       Center              X                  Y                   Z               Mass
    ------------   -----------------  -----------------  -----------------  -----------------
         NE           0.000000000000     0.000000000000     1.315076496657    19.992440176200
         MG           0.000000000000     0.000000000000    -1.096166040430    23.985041697000

  Nuclear repulsion =   26.335494793116098

  ==> Basis Set <==

  Basis Set: CC-PVDZ
    Blend: CC-PVDZ
    Number of shells: 14
    Number of basis functions: 32
    Number of Cartesian functions: 34
    Spherical Harmonics?: true
    Max angular momentum: 2

  ==> DFJKGrad: Density-Fitted SCF Gradients <==

    Gradient:                    1
    J tasked:                  Yes
    K tasked:                  Yes
    wK tasked:                  No
    OpenMP threads:              1
    Integrals threads:           1
    Memory [MiB]:              375
    Schwarz Cutoff:          1E-12
    Fitting Condition:       1E-10

   => Auxiliary Basis Set <=

  Basis Set: (CC-PVDZ AUX)
    Blend: CC-PVDZ-JKFIT + DEF2-UNIVERSAL-JKFIT
    Number of shells: 58
    Number of basis functions: 182
    Number of Cartesian functions: 218
    Spherical Harmonics?: true
    Max angular momentum: 4

  ==> DFT Potential <==

   => LibXC <=

    Version 6.2.2
    S. Lehtola, C. Steigemann, M. J.T. Oliveira, and M. A.L. Marques.,  SoftwareX 7, 1â€“5 (2018) (10.1016/j.softx.2017.11.002)

   => Composite Functional: B3LYP <=

    B3LYP Hyb-GGA Exchange-Correlation Functional

    P. J. Stephens, F. J. Devlin, C. F. Chabalowski, and M. J. Frisch.,  J. Phys. Chem. 98, 11623 (1994) (10.1021/j100096a001)

    Deriv               =              1
    GGA                 =           TRUE
    Meta                =          FALSE

    Exchange Hybrid     =           TRUE
    MP2 Hybrid          =          FALSE

   => Exchange Functionals <=

    0.0800   Slater exchange
    0.7200         Becke 88

   => Exact (HF) Exchange <=

    0.2000               HF

   => Correlation Functionals <=

    0.1900   Vosko, Wilk & Nusair (VWN5_RPA)
    0.8100   Lee, Yang & Parr

   => LibXC Density Thresholds  <==

    XC_HYB_GGA_XC_B3LYP:  1.00E-15

   => Molecular Quadrature <=

    Radial Scheme          =       TREUTLER
    Pruning Scheme         =           NONE
    Nuclear Scheme         =       TREUTLER

    Blocking Scheme        =         OCTREE
    BS radius alpha        =              1
    Pruning alpha          =              1
    Radial Points          =             75
    Spherical Points       =            302
    Total Points           =          43478
    Total Blocks           =            409
    Max Points             =            254
    Max Functions          =             32
    Weights Tolerance      =       1.00E-15

  -Total Gradient:
     Atom            X                  Y                   Z
    ------   -----------------  -----------------  -----------------
       1        0.000000000000    -0.000000000000    -0.000010707011
       2        0.000000000000     0.000000000000     0.000062933120

*** tstop() called on Joses-MacBook-Pro-2.local at Thu Jul 17 14:38:59 2025
Module time:
	user time   =       0.87 seconds =       0.01 minutes
	system time =       1.85 seconds =       0.03 minutes
	total time  =          1 seconds =       0.02 minutes
Total time:
	user time   =      53.20 seconds =       0.89 minutes
	system time =      57.24 seconds =       0.95 minutes
	total time  =         12 seconds =       0.20 minutes

    			-----------------------------------------

    			 OPTKING 3.0: for geometry optimizations

    			     By R.A. King, Bethel University

    			        with contributions from

    			    A.V. Copan, J. Cayton, A. Heide

    			-----------------------------------------

	                            ===> Fragment 1 <==

	 Z (Atomic Numbers)          Masses                          Geom
	      10.000000            19.992440          0.00000000  0.00000000  2.48513441
	      12.000000            23.985042          0.00000000  0.00000000 -2.07145360

	 - Coordinate -           - BOHR/RAD -       - ANG/DEG -
	 R(1,2)           =         4.556588           2.411243

	        --- Internal Coordinate Step in ANG or DEG, aJ/ANG or AJ/DEG ---
	-------------------------------------------------------------------------------
	           Coordinate      Previous         Force          Change          New
	           ----------      --------        ------          ------        ------
	               R(1,2)       2.41124        0.00030        0.00022       2.41146
	-------------------------------------------------------------------------------

	                                 ==> Convergence Check <==

	Measures of convergence in internal coordinates in au.

	Criteria marked as inactive (o), active & met (*), and active & unmet ( ).

	----------------------------------------------------------------------------------------------
	   Step    Total Energy     Delta E     Max Force     RMS Force      Max Disp      RMS Disp
	----------------------------------------------------------------------------------------------
	  Convergence Criteria     1.00e-06 *    3.00e-04 *             o    1.20e-03 *             o
	----------------------------------------------------------------------------------------------
	    11    -326.96046869   -2.79e-07 *    3.68e-05 *    3.68e-05 o    4.09e-04 *    4.09e-04 o  ~
	----------------------------------------------------------------------------------------------

Next Geometry in Ang
	Fragment 1 (Ang)

	   Ne   0.0000000000   0.0000000000   1.3151846019
	   Mg   0.0000000000   0.0000000000  -1.0962741457

    Final optimized geometry and variables:
    Molecular point group: c2v
    Full point group: C_inf_v

    Geometry (in Angstrom), charge = 1, multiplicity = 6:

    NE           0.000000000000     0.000000000000     1.315076496657
    MG           0.000000000000     0.000000000000    -1.096166040430

    Psi4 stopped on: Thursday, 17 July 2025 02:38PM
    Psi4 wall time for execution: 0:00:12.21

*** Psi4 exiting successfully. Buy a developer a beer!
