                               Psi4 1.9.1 release

  ==> Input File <==

--------------------------------------------------------------------------
molecule {
1 6
B   0.00000        0.60000        0.00000
N   0.00000       -0.60000        0.00000
}

set {
basis              cc-pvdz
reference          uks
maxiter            500
geom_maxiter       500
DAMPING_PERCENTAGE 1
guess              SAP
}

optimize('b3lyp')
--------------------------------------------------------------------------

    Molecular point group: c2v
  Charge       = 1
  Multiplicity = 6
  Basis Set: CC-PVDZ
    Blend: CC-PVDZ
  Basis Set: (CC-PVDZ AUX)
    Blend: CC-PVDZ-JKFIT
  @DF-UKS Final Energy:   -78.64920994458400
    Total Energy =                        -78.6492099445840012
 Dipole X            :          0.0000000            0.0000000            0.0000000
 Dipole Y            :          0.0000000            0.0000000            0.0000000
 Dipole Z            :         -0.0629169           -0.6391457           -0.7020627
 Magnitude           :                                                    0.7020627
    Molecular point group: c2v
  Basis Set: CC-PVDZ
    Blend: CC-PVDZ
  Basis Set: (CC-PVDZ AUX)
    Blend: CC-PVDZ-JKFIT
  Basis Set: CC-PVDZ
    Blend: CC-PVDZ
  Basis Set: (CC-PVDZ AUX)
    Blend: CC-PVDZ-JKFIT
  @DF-UKS Final Energy:   -78.76838738470011
    Total Energy =                        -78.7683873847001053
  Basis Set: CC-PVDZ
    Blend: CC-PVDZ
  Basis Set: (CC-PVDZ AUX)
    Blend: CC-PVDZ-JKFIT
  Basis Set: CC-PVDZ
    Blend: CC-PVDZ
  @DF-UKS Final Energy:   -78.78906745315749
    Total Energy =                        -78.7890674531574717
  @DF-UKS Final Energy:   -78.80241530093272
    Total Energy =                        -78.8024153009327222
  @DF-UKS Final Energy:   -78.80636286735761
    Total Energy =                        -78.8063628673576062
  @DF-UKS Final Energy:   -78.80823265739207
    Total Energy =                        -78.8082326573920682
  @DF-UKS Final Energy:   -78.80884829202569
    Total Energy =                        -78.8088482920256865
  @DF-UKS Final Energy:   -78.80915466841564
    Total Energy =                        -78.8091546684156441
  @DF-UKS Final Energy:   -78.80922763745572
    Total Energy =                        -78.8092276374557201
  @DF-UKS Final Energy:   -78.80924955347187
    Total Energy =                        -78.8092495534718722
  Basis Set: (CC-PVDZ AUX)
    Blend: CC-PVDZ-JKFIT
  Basis Set: CC-PVDZ
    Blend: CC-PVDZ
  Basis Set: (CC-PVDZ AUX)
    Blend: CC-PVDZ-JKFIT
  @DF-UKS Final Energy:   -78.80925339176552
    Total Energy =                        -78.8092533917655373
  Basis Set: CC-PVDZ
    Blend: CC-PVDZ
  Basis Set: (CC-PVDZ AUX)
    Blend: CC-PVDZ-JKFIT
  Charge       = 1
  Multiplicity = 6
  Basis Set: CC-PVDZ
    Blend: CC-PVDZ
  Basis Set: (CC-PVDZ AUX)
    Blend: CC-PVDZ-JKFIT

    Orbital Energies [Eh]
    ---------------------

    Alpha Occupied:

       1A1   -14.831917     2A1    -7.251599     3A1    -1.193065
       4A1    -0.817641     1B2    -0.718378     1B1    -0.715042
       5A1    -0.648175     2B2    -0.509503

    Alpha Virtual:

       2B1    -0.405551     6A1    -0.294963     7A1     0.010110
       3B2     0.017465     3B1     0.034659     8A1     0.077868
       4B2     0.307011     4B1     0.312164     9A1     0.355511
       1A2     0.362289    10A1     0.371378     5B2     0.476979
       5B1     0.479854    11A1     0.612694    12A1     0.872851
       2A2     1.324707    13A1     1.324784     6B1     1.437992
       6B2     1.439040    14A1     1.657408

    Beta Occupied:

       1A1   -14.771317     2A1    -7.215779     3A1    -1.002319

    Beta Virtual:

       4A1    -0.576095     1B1    -0.463308     1B2    -0.452500
       5A1    -0.412130     2B1    -0.303537     2B2    -0.260848
       6A1    -0.177142     7A1     0.049073     3B1     0.064341
       3B2     0.093509     8A1     0.147592     4B1     0.410760
       4B2     0.431405     9A1     0.446035    10A1     0.482194
       1A2     0.483504     5B1     0.566022     5B2     0.583035
      11A1     0.720451    12A1     0.959666    13A1     1.479374
       2A2     1.479394     6B1     1.578269     6B2     1.586448
      14A1     1.790306

    Final Occupation by Irrep:
             A1    A2    B1    B2
    DOCC [     3,    0,    0,    0 ]
    SOCC [     2,    0,    1,    2 ]
    NA   [     5,    0,    1,    2 ]
    NB   [     3,    0,    0,    0 ]

  @DF-UKS Final Energy:   -78.80925367954457

   => Energetics <=

    Nuclear Repulsion Energy =              9.9847421634907807
    One-Electron Energy =                -121.8329357519362617
    Two-Electron Energy =                  41.4808123057350144
    DFT Exchange-Correlation Energy =      -8.4418723968341034
    Empirical Dispersion Energy =           0.0000000000000000
    VV10 Nonlocal Energy =                  0.0000000000000000
    Total Energy =                        -78.8092536795445682

  UHF NO Occupations:
  HONO-2 :    1 B1 1.0000000
  HONO-1 :    1 B2 1.0000000
  HONO-0 :    2 B2 1.0000000
  LUNO+0 :    6 A1 0.0011008
  LUNO+1 :    7 A1 0.0000006
  LUNO+2 :    8 A1 0.0000002
  LUNO+3 :    9 A1 0.0000000

Computation Completed

Properties will be evaluated at   0.000000,   0.000000,   0.000000 [a0]

Properties computed using the SCF density matrix

 Multipole Moments:

 ------------------------------------------------------------------------------------
     Multipole            Electronic (a.u.)      Nuclear  (a.u.)        Total (a.u.)
 ------------------------------------------------------------------------------------

 L = 1.  Multiply by 2.5417464519 to convert [e a0] to [Debye]
 Dipole X            :          0.0000000            0.0000000            0.0000000
 Dipole Y            :          0.0000000            0.0000000            0.0000000
 Dipole Z            :          1.4300329           -0.9879864            0.4420465
 Magnitude           :                                                    0.4420465

 ------------------------------------------------------------------------------------

*** tstop() called on Joses-MacBook-Pro-2.local at Thu Jul 17 13:30:48 2025
Module time:
	user time   =       1.65 seconds =       0.03 minutes
	system time =       3.69 seconds =       0.06 minutes
	total time  =          0 seconds =       0.00 minutes
Total time:
	user time   =      32.33 seconds =       0.54 minutes
	system time =      69.00 seconds =       1.15 minutes
	total time  =          9 seconds =       0.15 minutes

*** tstart() called on Joses-MacBook-Pro-2.local
*** at Thu Jul 17 13:30:48 2025

         ------------------------------------------------------------
                                   SCF GRAD
                          Rob Parrish, Justin Turney,
                       Andy Simmonett, and Alex Sokolov
         ------------------------------------------------------------

  ==> Geometry <==

    Molecular point group: c2v
    Full point group: C_inf_v

    Geometry (in Angstrom), charge = 1, multiplicity = 6:

       Center              X                  Y                   Z               Mass
    ------------   -----------------  -----------------  -----------------  -----------------
         B            0.000000000000     0.000000000000     1.038486127779    11.009305360000
         N            0.000000000000     0.000000000000    -0.816464362698    14.003074004430

  Nuclear repulsion =    9.984742163490781

  ==> Basis Set <==

  Basis Set: CC-PVDZ
    Blend: CC-PVDZ
    Number of shells: 12
    Number of basis functions: 28
    Number of Cartesian functions: 30
    Spherical Harmonics?: true
    Max angular momentum: 2

  ==> DFJKGrad: Density-Fitted SCF Gradients <==

    Gradient:                    1
    J tasked:                  Yes
    K tasked:                  Yes
    wK tasked:                  No
    OpenMP threads:              1
    Integrals threads:           1
    Memory [MiB]:              375
    Schwarz Cutoff:          1E-12
    Fitting Condition:       1E-10

   => Auxiliary Basis Set <=

  Basis Set: (CC-PVDZ AUX)
    Blend: CC-PVDZ-JKFIT
    Number of shells: 48
    Number of basis functions: 140
    Number of Cartesian functions: 162
    Spherical Harmonics?: true
    Max angular momentum: 3

  ==> DFT Potential <==

   => LibXC <=

    Version 6.2.2
    S. Lehtola, C. Steigemann, M. J.T. Oliveira, and M. A.L. Marques.,  SoftwareX 7, 1â€“5 (2018) (10.1016/j.softx.2017.11.002)

   => Composite Functional: B3LYP <=

    B3LYP Hyb-GGA Exchange-Correlation Functional

    P. J. Stephens, F. J. Devlin, C. F. Chabalowski, and M. J. Frisch.,  J. Phys. Chem. 98, 11623 (1994) (10.1021/j100096a001)

    Deriv               =              1
    GGA                 =           TRUE
    Meta                =          FALSE

    Exchange Hybrid     =           TRUE
    MP2 Hybrid          =          FALSE

   => Exchange Functionals <=

    0.0800   Slater exchange
    0.7200         Becke 88

   => Exact (HF) Exchange <=

    0.2000               HF

   => Correlation Functionals <=

    0.1900   Vosko, Wilk & Nusair (VWN5_RPA)
    0.8100   Lee, Yang & Parr

   => LibXC Density Thresholds  <==

    XC_HYB_GGA_XC_B3LYP:  1.00E-15

   => Molecular Quadrature <=

    Radial Scheme          =       TREUTLER
    Pruning Scheme         =           NONE
    Nuclear Scheme         =       TREUTLER

    Blocking Scheme        =         OCTREE
    BS radius alpha        =              1
    Pruning alpha          =              1
    Radial Points          =             75
    Spherical Points       =            302
    Total Points           =          43301
    Total Blocks           =            395
    Max Points             =            255
    Max Functions          =             28
    Weights Tolerance      =       1.00E-15

  -Total Gradient:
     Atom            X                  Y                   Z
    ------   -----------------  -----------------  -----------------
       1        0.000000000000     0.000000000000    -0.000028594089
       2        0.000000000000     0.000000000000     0.000033841011

*** tstop() called on Joses-MacBook-Pro-2.local at Thu Jul 17 13:30:48 2025
Module time:
	user time   =       0.47 seconds =       0.01 minutes
	system time =       1.09 seconds =       0.02 minutes
	total time  =          0 seconds =       0.00 minutes
Total time:
	user time   =      32.80 seconds =       0.55 minutes
	system time =      70.09 seconds =       1.17 minutes
	total time  =          9 seconds =       0.15 minutes

    			-----------------------------------------

    			 OPTKING 3.0: for geometry optimizations

    			     By R.A. King, Bethel University

    			        with contributions from

    			    A.V. Copan, J. Cayton, A. Heide

    			-----------------------------------------

	                            ===> Fragment 1 <==

	 Z (Atomic Numbers)          Masses                          Geom
	       5.000000            11.009305          0.00000000  0.00000000  1.96245437
	       7.000000            14.003074          0.00000000  0.00000000 -1.54289404

	 - Coordinate -           - BOHR/RAD -       - ANG/DEG -
	 R(1,2)           =         3.505348           1.854950

	        --- Internal Coordinate Step in ANG or DEG, aJ/ANG or AJ/DEG ---
	-------------------------------------------------------------------------------
	           Coordinate      Previous         Force          Change          New
	           ----------      --------        ------          ------        ------
	               R(1,2)       1.85495        0.00026        0.00036       1.85531
	-------------------------------------------------------------------------------

	                                 ==> Convergence Check <==

	Measures of convergence in internal coordinates in au.

	Criteria marked as inactive (o), active & met (*), and active & unmet ( ).

	----------------------------------------------------------------------------------------------
	   Step    Total Energy     Delta E     Max Force     RMS Force      Max Disp      RMS Disp
	----------------------------------------------------------------------------------------------
	  Convergence Criteria     1.00e-06 *    3.00e-04 *             o    1.20e-03 *             o
	----------------------------------------------------------------------------------------------
	    12     -78.80925368   -2.88e-07 *    3.12e-05 *    3.12e-05 o    6.81e-04 *    6.81e-04 o  ~
	----------------------------------------------------------------------------------------------

Next Geometry in Ang
	Fragment 1 (Ang)

	    B   0.0000000000   0.0000000000   1.0386662978
	    N   0.0000000000   0.0000000000  -0.8166445328

    Final optimized geometry and variables:
    Molecular point group: c2v
    Full point group: C_inf_v

    Geometry (in Angstrom), charge = 1, multiplicity = 6:

    B            0.000000000000     0.000000000000     1.038486127779
    N            0.000000000000     0.000000000000    -0.816464362698

    Psi4 stopped on: Thursday, 17 July 2025 01:30PM
    Psi4 wall time for execution: 0:00:10.23

*** Psi4 exiting successfully. Buy a developer a beer!
