                               Psi4 1.9.1 release

  ==> Input File <==

--------------------------------------------------------------------------
molecule {
1 6
Ne   0.00000        0.60000        0.00000
S   0.00000       -0.60000        0.00000
}

set {
basis              cc-pvdz
reference          uks
maxiter            500
geom_maxiter       500
DAMPING_PERCENTAGE 1
guess              SAP
}

optimize('b3lyp')
--------------------------------------------------------------------------

    Molecular point group: c2v
  Charge       = 1
  Multiplicity = 6
  Basis Set: CC-PVDZ
    Blend: CC-PVDZ
  Basis Set: (CC-PVDZ AUX)
    Blend: CC-PVDZ-JKFIT
  @DF-UKS Final Energy:  -525.11496151695962
    Total Energy =                       -525.1149615169596245
 Dipole X            :          0.0000000            0.0000000            0.0000000
 Dipole Y            :          0.0000000            0.0000000            0.0000000
 Dipole Z            :          0.5866604           -0.0069094            0.5797510
 Magnitude           :                                                    0.5797510
    Molecular point group: c2v
  Basis Set: CC-PVDZ
    Blend: CC-PVDZ
  Basis Set: (CC-PVDZ AUX)
    Blend: CC-PVDZ-JKFIT
  Basis Set: CC-PVDZ
    Blend: CC-PVDZ
  Basis Set: (CC-PVDZ AUX)
    Blend: CC-PVDZ-JKFIT
  @DF-UKS Final Energy:  -525.36512159614074
    Total Energy =                       -525.3651215961407388
  Basis Set: CC-PVDZ
    Blend: CC-PVDZ
  Basis Set: (CC-PVDZ AUX)
    Blend: CC-PVDZ-JKFIT
  Basis Set: CC-PVDZ
    Blend: CC-PVDZ
  @DF-UKS Final Energy:  -525.52780128075165
    Total Energy =                       -525.5278012807516461
  @DF-UKS Final Energy:  -525.62470329369285
    Total Energy =                       -525.6247032936928463
  @DF-UKS Final Energy:  -525.67013806674379
    Total Energy =                       -525.6701380667437888
  @DF-UKS Final Energy:  -525.68836278578362
    Total Energy =                       -525.6883627857836245
  @DF-UKS Final Energy:  -525.69542504879894
    Total Energy =                       -525.6954250487989384
  @DF-UKS Final Energy:  -525.69741278740469
    Total Energy =                       -525.6974127874046872
  @DF-UKS Final Energy:  -525.69833355853223
    Total Energy =                       -525.6983335585322266
  @DF-UKS Final Energy:  -525.69859024366724
    Total Energy =                       -525.6985902436672404
  @DF-UKS Final Energy:  -525.69869578547673
    Total Energy =                       -525.6986957854767297
  @DF-UKS Final Energy:  -525.69871702185071
    Total Energy =                       -525.6987170218507117
  Basis Set: (CC-PVDZ AUX)
    Blend: CC-PVDZ-JKFIT
  Basis Set: CC-PVDZ
    Blend: CC-PVDZ
  Basis Set: (CC-PVDZ AUX)
    Blend: CC-PVDZ-JKFIT
  @DF-UKS Final Energy:  -525.69872227747408
    Total Energy =                       -525.6987222774740758
  Basis Set: CC-PVDZ
    Blend: CC-PVDZ
  Basis Set: (CC-PVDZ AUX)
    Blend: CC-PVDZ-JKFIT
  Charge       = 1
  Multiplicity = 6
  Basis Set: CC-PVDZ
    Blend: CC-PVDZ
  Basis Set: (CC-PVDZ AUX)
    Blend: CC-PVDZ-JKFIT

    Orbital Energies [Eh]
    ---------------------

    Alpha Occupied:

       1A1   -89.385245     2A1   -31.405745     3A1    -8.397590
       1B1    -6.371764     1B2    -6.363009     4A1    -6.362775
       5A1    -1.841063     6A1    -1.093139     7A1    -0.972336
       2B1    -0.930104     2B2    -0.929722     3B1    -0.665793
       3B2    -0.658543     8A1    -0.651380     4B2     0.079385

    Alpha Virtual:

       9A1     0.162750     4B1     0.170858    10A1     0.173810
       5B2     0.185674     5B1     0.194591     1A2     0.198868
      11A1     0.205347    12A1     0.244163     6B1     1.037605
       6B2     1.038683    13A1     1.123527    14A1     1.670301
      15A1     4.301092     7B1     4.304501     7B2     4.305036
      16A1     4.336237     2A2     4.336329

    Beta Occupied:

       1A1   -89.359763     2A1   -31.390385     3A1    -8.367815
       1B1    -6.336975     1B2    -6.326840     4A1    -6.326832
       5A1    -1.803385     2B1    -0.915302     2B2    -0.914053
       6A1    -0.896779

    Beta Virtual:

       7A1    -0.781206     3B1    -0.442310     3B2    -0.404621
       8A1    -0.398574     9A1     0.235387     4B1     0.236191
       4B2     0.259377    10A1     0.272627    11A1     0.348968
       5B1     0.357449     1A2     0.365302    12A1     0.381186
       5B2     0.390307     6B1     1.045720     6B2     1.048465
      13A1     1.165020    14A1     1.697521    15A1     4.344389
       2A2     4.344504     7B1     4.345451     7B2     4.346245
      16A1     4.354265

    Final Occupation by Irrep:
             A1    A2    B1    B2
    DOCC [     6,    0,    2,    2 ]
    SOCC [     2,    0,    1,    2 ]
    NA   [     8,    0,    3,    4 ]
    NB   [     6,    0,    2,    2 ]

  @DF-UKS Final Energy:  -525.69872297539371

   => Energetics <=

    Nuclear Repulsion Energy =             36.5108704724194482
    One-Electron Energy =                -794.0971292042170262
    Two-Electron Energy =                 262.3924145795201071
    DFT Exchange-Correlation Energy =     -30.5048788231162931
    Empirical Dispersion Energy =           0.0000000000000000
    VV10 Nonlocal Energy =                  0.0000000000000000
    Total Energy =                       -525.6987229753937072

  UHF NO Occupations:
  HONO-2 :    3 B1 1.0000000
  HONO-1 :    3 B2 1.0000000
  HONO-0 :    4 B2 1.0000000
  LUNO+0 :    9 A1 0.0007163
  LUNO+1 :   10 A1 0.0000325
  LUNO+2 :    5 B2 0.0000157
  LUNO+3 :    4 B1 0.0000134

Computation Completed

Properties will be evaluated at   0.000000,   0.000000,   0.000000 [a0]

Properties computed using the SCF density matrix

 Multipole Moments:

 ------------------------------------------------------------------------------------
     Multipole            Electronic (a.u.)      Nuclear  (a.u.)        Total (a.u.)
 ------------------------------------------------------------------------------------

 L = 1.  Multiply by 2.5417464519 to convert [e a0] to [Debye]
 Dipole X            :          0.0000000            0.0000000            0.0000000
 Dipole Y            :          0.0000000            0.0000000            0.0000000
 Dipole Z            :         -0.3021536           -0.0133523           -0.3155059
 Magnitude           :                                                    0.3155059

 ------------------------------------------------------------------------------------

*** tstop() called on Joses-MacBook-Pro-2.local at Thu Jul 17 14:42:36 2025
Module time:
	user time   =       4.06 seconds =       0.07 minutes
	system time =       2.66 seconds =       0.04 minutes
	total time  =          1 seconds =       0.02 minutes
Total time:
	user time   =      68.99 seconds =       1.15 minutes
	system time =      78.32 seconds =       1.31 minutes
	total time  =         15 seconds =       0.25 minutes

*** tstart() called on Joses-MacBook-Pro-2.local
*** at Thu Jul 17 14:42:36 2025

         ------------------------------------------------------------
                                   SCF GRAD
                          Rob Parrish, Justin Turney,
                       Andy Simmonett, and Alex Sokolov
         ------------------------------------------------------------

  ==> Geometry <==

    Molecular point group: c2v
    Full point group: C_inf_v

    Geometry (in Angstrom), charge = 1, multiplicity = 6:

       Center              X                  Y                   Z               Mass
    ------------   -----------------  -----------------  -----------------  -----------------
         NE           0.000000000000     0.000000000000     1.426799181388    19.992440176200
         S            0.000000000000     0.000000000000    -0.892191097717    31.972071174400

  Nuclear repulsion =   36.510870472419448

  ==> Basis Set <==

  Basis Set: CC-PVDZ
    Blend: CC-PVDZ
    Number of shells: 14
    Number of basis functions: 32
    Number of Cartesian functions: 34
    Spherical Harmonics?: true
    Max angular momentum: 2

  ==> DFJKGrad: Density-Fitted SCF Gradients <==

    Gradient:                    1
    J tasked:                  Yes
    K tasked:                  Yes
    wK tasked:                  No
    OpenMP threads:              1
    Integrals threads:           1
    Memory [MiB]:              375
    Schwarz Cutoff:          1E-12
    Fitting Condition:       1E-10

   => Auxiliary Basis Set <=

  Basis Set: (CC-PVDZ AUX)
    Blend: CC-PVDZ-JKFIT
    Number of shells: 60
    Number of basis functions: 182
    Number of Cartesian functions: 211
    Spherical Harmonics?: true
    Max angular momentum: 3

  ==> DFT Potential <==

   => LibXC <=

    Version 6.2.2
    S. Lehtola, C. Steigemann, M. J.T. Oliveira, and M. A.L. Marques.,  SoftwareX 7, 1â€“5 (2018) (10.1016/j.softx.2017.11.002)

   => Composite Functional: B3LYP <=

    B3LYP Hyb-GGA Exchange-Correlation Functional

    P. J. Stephens, F. J. Devlin, C. F. Chabalowski, and M. J. Frisch.,  J. Phys. Chem. 98, 11623 (1994) (10.1021/j100096a001)

    Deriv               =              1
    GGA                 =           TRUE
    Meta                =          FALSE

    Exchange Hybrid     =           TRUE
    MP2 Hybrid          =          FALSE

   => Exchange Functionals <=

    0.0800   Slater exchange
    0.7200         Becke 88

   => Exact (HF) Exchange <=

    0.2000               HF

   => Correlation Functionals <=

    0.1900   Vosko, Wilk & Nusair (VWN5_RPA)
    0.8100   Lee, Yang & Parr

   => LibXC Density Thresholds  <==

    XC_HYB_GGA_XC_B3LYP:  1.00E-15

   => Molecular Quadrature <=

    Radial Scheme          =       TREUTLER
    Pruning Scheme         =           NONE
    Nuclear Scheme         =       TREUTLER

    Blocking Scheme        =         OCTREE
    BS radius alpha        =              1
    Pruning alpha          =              1
    Radial Points          =             75
    Spherical Points       =            302
    Total Points           =          42242
    Total Blocks           =            380
    Max Points             =            256
    Max Functions          =             32
    Weights Tolerance      =       1.00E-15

  -Total Gradient:
     Atom            X                  Y                   Z
    ------   -----------------  -----------------  -----------------
       1        0.000000000000     0.000000000000    -0.000027367342
       2        0.000000000000    -0.000000000000     0.000072710717

*** tstop() called on Joses-MacBook-Pro-2.local at Thu Jul 17 14:42:36 2025
Module time:
	user time   =       1.21 seconds =       0.02 minutes
	system time =       1.07 seconds =       0.02 minutes
	total time  =          0 seconds =       0.00 minutes
Total time:
	user time   =      70.20 seconds =       1.17 minutes
	system time =      79.40 seconds =       1.32 minutes
	total time  =         15 seconds =       0.25 minutes

    			-----------------------------------------

    			 OPTKING 3.0: for geometry optimizations

    			     By R.A. King, Bethel University

    			        with contributions from

    			    A.V. Copan, J. Cayton, A. Heide

    			-----------------------------------------

	                            ===> Fragment 1 <==

	 Z (Atomic Numbers)          Masses                          Geom
	      10.000000            19.992440          0.00000000  0.00000000  2.69625969
	      16.000000            31.972071          0.00000000  0.00000000 -1.68599683

	 - Coordinate -           - BOHR/RAD -       - ANG/DEG -
	 R(1,2)           =         4.382257           2.318990

	        --- Internal Coordinate Step in ANG or DEG, aJ/ANG or AJ/DEG ---
	-------------------------------------------------------------------------------
	           Coordinate      Previous         Force          Change          New
	           ----------      --------        ------          ------        ------
	               R(1,2)       2.31899        0.00041        0.00088       2.31987
	-------------------------------------------------------------------------------

	                                 ==> Convergence Check <==

	Measures of convergence in internal coordinates in au.

	Criteria marked as inactive (o), active & met (*), and active & unmet ( ).

	----------------------------------------------------------------------------------------------
	   Step    Total Energy     Delta E     Max Force     RMS Force      Max Disp      RMS Disp
	----------------------------------------------------------------------------------------------
	  Convergence Criteria     1.00e-06 *    3.00e-04 *             o    1.20e-03 *             o
	----------------------------------------------------------------------------------------------
	    14    -525.69872298   -6.98e-07 *    5.00e-05 *    5.00e-05 o    1.65e-03      1.65e-03 o  ~
	----------------------------------------------------------------------------------------------

Next Geometry in Ang
	Fragment 1 (Ang)

	   Ne   0.0000000000   0.0000000000   1.4272367819
	    S   0.0000000000   0.0000000000  -0.8926286982

    Final optimized geometry and variables:
    Molecular point group: c2v
    Full point group: C_inf_v

    Geometry (in Angstrom), charge = 1, multiplicity = 6:

    NE           0.000000000000     0.000000000000     1.426799181388
    S            0.000000000000     0.000000000000    -0.892191097717

    Psi4 stopped on: Thursday, 17 July 2025 02:42PM
    Psi4 wall time for execution: 0:00:15.53

*** Psi4 exiting successfully. Buy a developer a beer!
