                               Psi4 1.9.1 release

  ==> Input File <==

--------------------------------------------------------------------------
molecule {
1 6
C   0.00000        0.60000        0.00000
Ar   0.00000       -0.60000        0.00000
}

set {
basis              cc-pvdz
reference          uks
maxiter            500
geom_maxiter       500
DAMPING_PERCENTAGE 1
guess              SAP
}

optimize('b3lyp')
--------------------------------------------------------------------------

    Molecular point group: c2v
  Charge       = 1
  Multiplicity = 6
  Basis Set: CC-PVDZ
    Blend: CC-PVDZ
  Basis Set: (CC-PVDZ AUX)
    Blend: CC-PVDZ-JKFIT
  @DF-UKS Final Energy:  -563.85817330973748
    Total Energy =                       -563.8581733097374808
 Dipole X            :          0.0000000            0.0000000            0.0000000
 Dipole Y            :          0.0000000            0.0000000            0.0000000
 Dipole Z            :         -0.5655477            1.0375255            0.4719778
 Magnitude           :                                                    0.4719778
    Molecular point group: c2v
  Basis Set: CC-PVDZ
    Blend: CC-PVDZ
  Basis Set: (CC-PVDZ AUX)
    Blend: CC-PVDZ-JKFIT
  Basis Set: CC-PVDZ
    Blend: CC-PVDZ
  Basis Set: (CC-PVDZ AUX)
    Blend: CC-PVDZ-JKFIT
  @DF-UKS Final Energy:  -564.17813041600994
    Total Energy =                       -564.1781304160099353
  Basis Set: CC-PVDZ
    Blend: CC-PVDZ
  Basis Set: (CC-PVDZ AUX)
    Blend: CC-PVDZ-JKFIT
  Basis Set: CC-PVDZ
    Blend: CC-PVDZ
  @DF-UKS Final Energy:  -564.37725550528546
    Total Energy =                       -564.3772555052854614
  @DF-UKS Final Energy:  -564.49763119750662
    Total Energy =                       -564.4976311975067347
  @DF-UKS Final Energy:  -564.56244046052154
    Total Energy =                       -564.5624404605215432
  @DF-UKS Final Energy:  -564.59793752547762
    Total Energy =                       -564.5979375254776187
  @DF-UKS Final Energy:  -564.61869523441544
    Total Energy =                       -564.6186952344154406
  @DF-UKS Final Energy:  -564.63089380606391
    Total Energy =                       -564.6308938060639093
  @DF-UKS Final Energy:  -564.63732881644489
    Total Energy =                       -564.6373288164448923
  @DF-UKS Final Energy:  -564.64027832122554
    Total Energy =                       -564.6402783212255372
  @DF-UKS Final Energy:  -564.64154091471937
    Total Energy =                       -564.6415409147192577
  @DF-UKS Final Energy:  -564.64204912712808
    Total Energy =                       -564.6420491271280753
  @DF-UKS Final Energy:  -564.64222932776909
    Total Energy =                       -564.6422293277689732
  @DF-UKS Final Energy:  -564.64227115380606
    Total Energy =                       -564.6422711538060639
  @DF-UKS Final Energy:  -564.64228550272367
    Total Energy =                       -564.6422855027236665
  Basis Set: (CC-PVDZ AUX)
    Blend: CC-PVDZ-JKFIT
  Basis Set: CC-PVDZ
    Blend: CC-PVDZ
  Basis Set: (CC-PVDZ AUX)
    Blend: CC-PVDZ-JKFIT
  @DF-UKS Final Energy:  -564.64228801106219
    Total Energy =                       -564.6422880110621918
  Basis Set: CC-PVDZ
    Blend: CC-PVDZ
  Basis Set: (CC-PVDZ AUX)
    Blend: CC-PVDZ-JKFIT
  Charge       = 1
  Multiplicity = 6
  Basis Set: CC-PVDZ
    Blend: CC-PVDZ
  Basis Set: (CC-PVDZ AUX)
    Blend: CC-PVDZ-JKFIT

    Orbital Energies [Eh]
    ---------------------

    Alpha Occupied:

       1A1  -115.629736     2A1   -11.655945     3A1   -10.460883
       1B1    -9.228820     4A1    -9.198594     1B2    -9.198553
       5A1    -1.451624     2B1    -0.929635     6A1    -0.863782
       2B2    -0.863410     7A1    -0.782464     8A1    -0.439466
       3B1    -0.434353     3B2    -0.434182

    Alpha Virtual:

       9A1     0.158911     4B1     0.186135     4B2     0.217296
      10A1     0.285407     5B1     0.297364     5B2     0.300150
      11A1     0.328504     1A2     0.341027     6B1     0.342434
      12A1     0.364357    13A1     0.388506     6B2     0.392845
      14A1     0.461804     7B1     0.933926     7B2     0.934088
      15A1     0.936774    16A1     0.937779     2A2     0.937779

    Beta Occupied:

       1A1  -115.620761     2A1   -11.647378     3A1   -10.391867
       1B1    -9.200501     1B2    -9.193387     4A1    -9.193299
       5A1    -1.388538     6A1    -0.843673     2B2    -0.843634

    Beta Virtual:

       2B1    -0.737505     7A1    -0.414131     8A1    -0.136189
       3B1    -0.124416     3B2    -0.124300     9A1     0.209989
       4B2     0.227532     4B1     0.230854    10A1     0.323024
      11A1     0.396829     5B2     0.401152     5B1     0.406680
       1A2     0.408181    12A1     0.416621     6B2     0.438217
       6B1     0.438345    13A1     0.501865    14A1     0.565027
      15A1     1.173052     2A2     1.173076     7B1     1.173781
       7B2     1.173944    16A1     1.174347

    Final Occupation by Irrep:
             A1    A2    B1    B2
    DOCC [     6,    0,    1,    2 ]
    SOCC [     2,    0,    2,    1 ]
    NA   [     8,    0,    3,    3 ]
    NB   [     6,    0,    1,    2 ]

  @DF-UKS Final Energy:  -564.64228850787083

   => Energetics <=

    Nuclear Repulsion Energy =             16.2274312009365040
    One-Electron Energy =                -801.3178190131872043
    Two-Electron Energy =                 249.3057996533278242
    DFT Exchange-Correlation Energy =     -28.8577003489479793
    Empirical Dispersion Energy =           0.0000000000000000
    VV10 Nonlocal Energy =                  0.0000000000000000
    Total Energy =                       -564.6422885078708305

  UHF NO Occupations:
  HONO-2 :    8 A1 1.0000000
  HONO-1 :    3 B1 1.0000000
  HONO-0 :    3 B2 1.0000000
  LUNO+0 :    9 A1 0.0008193
  LUNO+1 :   10 A1 0.0000377
  LUNO+2 :    4 B2 0.0000254
  LUNO+3 :   11 A1 0.0000012

Computation Completed

Properties will be evaluated at   0.000000,   0.000000,   0.000000 [a0]

Properties computed using the SCF density matrix

 Multipole Moments:

 ------------------------------------------------------------------------------------
     Multipole            Electronic (a.u.)      Nuclear  (a.u.)        Total (a.u.)
 ------------------------------------------------------------------------------------

 L = 1.  Multiply by 2.5417464519 to convert [e a0] to [Debye]
 Dipole X            :          0.0000000            0.0000000            0.0000000
 Dipole Y            :          0.0000000            0.0000000            0.0000000
 Dipole Z            :         -4.4952967            3.0450374           -1.4502593
 Magnitude           :                                                    1.4502593

 ------------------------------------------------------------------------------------

*** tstop() called on Joses-MacBook-Pro-2.local at Thu Jul 17 13:47:43 2025
Module time:
	user time   =       2.25 seconds =       0.04 minutes
	system time =       2.49 seconds =       0.04 minutes
	total time  =          0 seconds =       0.00 minutes
Total time:
	user time   =      59.82 seconds =       1.00 minutes
	system time =      96.70 seconds =       1.61 minutes
	total time  =         15 seconds =       0.25 minutes

*** tstart() called on Joses-MacBook-Pro-2.local
*** at Thu Jul 17 13:47:43 2025

         ------------------------------------------------------------
                                   SCF GRAD
                          Rob Parrish, Justin Turney,
                       Andy Simmonett, and Alex Sokolov
         ------------------------------------------------------------

  ==> Geometry <==

    Molecular point group: c2v
    Full point group: C_inf_v

    Geometry (in Angstrom), charge = 1, multiplicity = 6:

       Center              X                  Y                   Z               Mass
    ------------   -----------------  -----------------  -----------------  -----------------
         C            0.000000000000     0.000000000000     2.708553573966    12.000000000000
         AR           0.000000000000     0.000000000000    -0.813330946430    39.962383123700

  Nuclear repulsion =   16.227431200936504

  ==> Basis Set <==

  Basis Set: CC-PVDZ
    Blend: CC-PVDZ
    Number of shells: 14
    Number of basis functions: 32
    Number of Cartesian functions: 34
    Spherical Harmonics?: true
    Max angular momentum: 2

  ==> DFJKGrad: Density-Fitted SCF Gradients <==

    Gradient:                    1
    J tasked:                  Yes
    K tasked:                  Yes
    wK tasked:                  No
    OpenMP threads:              1
    Integrals threads:           1
    Memory [MiB]:              375
    Schwarz Cutoff:          1E-12
    Fitting Condition:       1E-10

   => Auxiliary Basis Set <=

  Basis Set: (CC-PVDZ AUX)
    Blend: CC-PVDZ-JKFIT
    Number of shells: 60
    Number of basis functions: 182
    Number of Cartesian functions: 211
    Spherical Harmonics?: true
    Max angular momentum: 3

  ==> DFT Potential <==

   => LibXC <=

    Version 6.2.2
    S. Lehtola, C. Steigemann, M. J.T. Oliveira, and M. A.L. Marques.,  SoftwareX 7, 1â€“5 (2018) (10.1016/j.softx.2017.11.002)

   => Composite Functional: B3LYP <=

    B3LYP Hyb-GGA Exchange-Correlation Functional

    P. J. Stephens, F. J. Devlin, C. F. Chabalowski, and M. J. Frisch.,  J. Phys. Chem. 98, 11623 (1994) (10.1021/j100096a001)

    Deriv               =              1
    GGA                 =           TRUE
    Meta                =          FALSE

    Exchange Hybrid     =           TRUE
    MP2 Hybrid          =          FALSE

   => Exchange Functionals <=

    0.0800   Slater exchange
    0.7200         Becke 88

   => Exact (HF) Exchange <=

    0.2000               HF

   => Correlation Functionals <=

    0.1900   Vosko, Wilk & Nusair (VWN5_RPA)
    0.8100   Lee, Yang & Parr

   => LibXC Density Thresholds  <==

    XC_HYB_GGA_XC_B3LYP:  1.00E-15

   => Molecular Quadrature <=

    Radial Scheme          =       TREUTLER
    Pruning Scheme         =           NONE
    Nuclear Scheme         =       TREUTLER

    Blocking Scheme        =         OCTREE
    BS radius alpha        =              1
    Pruning alpha          =              1
    Radial Points          =             75
    Spherical Points       =            302
    Total Points           =          41293
    Total Blocks           =            380
    Max Points             =            256
    Max Functions          =             32
    Weights Tolerance      =       1.00E-15

  -Total Gradient:
     Atom            X                  Y                   Z
    ------   -----------------  -----------------  -----------------
       1        0.000000000000     0.000000000000    -0.000014537802
       2        0.000000000000    -0.000000000000     0.000021392197

*** tstop() called on Joses-MacBook-Pro-2.local at Thu Jul 17 13:47:43 2025
Module time:
	user time   =       0.65 seconds =       0.01 minutes
	system time =       1.61 seconds =       0.03 minutes
	total time  =          0 seconds =       0.00 minutes
Total time:
	user time   =      60.47 seconds =       1.01 minutes
	system time =      98.31 seconds =       1.64 minutes
	total time  =         15 seconds =       0.25 minutes

    			-----------------------------------------

    			 OPTKING 3.0: for geometry optimizations

    			     By R.A. King, Bethel University

    			        with contributions from

    			    A.V. Copan, J. Cayton, A. Heide

    			-----------------------------------------

	                            ===> Fragment 1 <==

	 Z (Atomic Numbers)          Masses                          Geom
	       6.000000            12.000000          0.00000000  0.00000000  5.11842445
	      18.000000            39.962383          0.00000000  0.00000000 -1.53697274

	 - Coordinate -           - BOHR/RAD -       - ANG/DEG -
	 R(1,2)           =         6.655397           3.521885

	        --- Internal Coordinate Step in ANG or DEG, aJ/ANG or AJ/DEG ---
	-------------------------------------------------------------------------------
	           Coordinate      Previous         Force          Change          New
	           ----------      --------        ------          ------        ------
	               R(1,2)       3.52188        0.00015        0.00502       3.52691
	-------------------------------------------------------------------------------

	                                 ==> Convergence Check <==

	Measures of convergence in internal coordinates in au.

	Criteria marked as inactive (o), active & met (*), and active & unmet ( ).

	----------------------------------------------------------------------------------------------
	   Step    Total Energy     Delta E     Max Force     RMS Force      Max Disp      RMS Disp
	----------------------------------------------------------------------------------------------
	  Convergence Criteria     1.00e-06 *    3.00e-04 *             o    1.20e-03 *             o
	----------------------------------------------------------------------------------------------
	    17    -564.64228851   -4.97e-07 *    1.80e-05 *    1.80e-05 o    9.49e-03      9.49e-03 o  ~
	----------------------------------------------------------------------------------------------

Next Geometry in Ang
	Fragment 1 (Ang)

	    C   0.0000000000   0.0000000000   2.7110643401
	   Ar   0.0000000000   0.0000000000  -0.8158417125

    Final optimized geometry and variables:
    Molecular point group: c2v
    Full point group: C_inf_v

    Geometry (in Angstrom), charge = 1, multiplicity = 6:

    C            0.000000000000     0.000000000000     2.708553573966
    AR           0.000000000000     0.000000000000    -0.813330946430

    Psi4 stopped on: Thursday, 17 July 2025 01:47PM
    Psi4 wall time for execution: 0:00:15.64

*** Psi4 exiting successfully. Buy a developer a beer!
