                               Psi4 1.9.1 release

  ==> Input File <==

--------------------------------------------------------------------------
molecule {
1 6
P   0.00000        0.60000        0.00000
Cl   0.00000       -0.60000        0.00000
}

set {
basis              cc-pvdz
reference          uks
maxiter            500
geom_maxiter       500
DAMPING_PERCENTAGE 1
guess              SAP
}

optimize('b3lyp')
--------------------------------------------------------------------------

    Molecular point group: c2v
  Charge       = 1
  Multiplicity = 6
  Basis Set: CC-PVDZ
    Blend: CC-PVDZ
  Basis Set: (CC-PVDZ AUX)
    Blend: CC-PVDZ-JKFIT
  @DF-UKS Final Energy:  -799.27003713303191
    Total Energy =                       -799.2700371330319058
 Dipole X            :          0.0000000            0.0000000            0.0000000
 Dipole Y            :          0.0000000            0.0000000            0.0000000
 Dipole Z            :         -0.9483751           -0.0695049           -1.0178800
 Magnitude           :                                                    1.0178800
    Molecular point group: c2v
  Basis Set: CC-PVDZ
    Blend: CC-PVDZ
  Basis Set: (CC-PVDZ AUX)
    Blend: CC-PVDZ-JKFIT
  Basis Set: CC-PVDZ
    Blend: CC-PVDZ
  Basis Set: (CC-PVDZ AUX)
    Blend: CC-PVDZ-JKFIT
  @DF-UKS Final Energy:  -799.31028112116599
    Total Energy =                       -799.3102811211659855
  Basis Set: CC-PVDZ
    Blend: CC-PVDZ
  Basis Set: (CC-PVDZ AUX)
    Blend: CC-PVDZ-JKFIT
  Basis Set: CC-PVDZ
    Blend: CC-PVDZ
  @DF-UKS Final Energy:  -799.38484212876642
    Total Energy =                       -799.3848421287664223
  @DF-UKS Final Energy:  -799.62674863906580
    Total Energy =                       -799.6267486390657950
  @DF-UKS Final Energy:  -800.23901956021541
    Total Energy =                       -800.2390195602152971
  @DF-UKS Final Energy:  -800.51673524898081
    Total Energy =                       -800.5167352489808081
  @DF-UKS Final Energy:  -800.70520198863824
    Total Energy =                       -800.7052019886381231
  @DF-UKS Final Energy:  -800.82651601648217
    Total Energy =                       -800.8265160164821737
  @DF-UKS Final Energy:  -800.89307201534348
    Total Energy =                       -800.8930720153434777
  @DF-UKS Final Energy:  -800.92926229439547
    Total Energy =                       -800.9292622943954711
  @DF-UKS Final Energy:  -800.94789008710268
    Total Energy =                       -800.9478900871029055
  @DF-UKS Final Energy:  -800.95713921632841
    Total Energy =                       -800.9571392163284145
  @DF-UKS Final Energy:  -800.96139978297902
    Total Energy =                       -800.9613997829790151
  @DF-UKS Final Energy:  -800.96313109965968
    Total Energy =                       -800.9631310996596767
  @DF-UKS Final Energy:  -800.96371138654251
    Total Energy =                       -800.9637113865425135
  @DF-UKS Final Energy:  -800.96385116198951
    Total Energy =                       -800.9638511619895098
  @DF-UKS Final Energy:  -800.96386814902439
    Total Energy =                       -800.9638681490243926
  Basis Set: (CC-PVDZ AUX)
    Blend: CC-PVDZ-JKFIT
  Basis Set: CC-PVDZ
    Blend: CC-PVDZ
  Basis Set: (CC-PVDZ AUX)
    Blend: CC-PVDZ-JKFIT
  @DF-UKS Final Energy:  -800.96387043532843
    Total Energy =                       -800.9638704353284311
  Basis Set: CC-PVDZ
    Blend: CC-PVDZ
  Basis Set: (CC-PVDZ AUX)
    Blend: CC-PVDZ-JKFIT
  Charge       = 1
  Multiplicity = 6
  Basis Set: CC-PVDZ
    Blend: CC-PVDZ
  Basis Set: (CC-PVDZ AUX)
    Blend: CC-PVDZ-JKFIT

    Orbital Energies [Eh]
    ---------------------

    Alpha Occupied:

       1A1  -102.021342     2A1   -77.315760     3A1    -9.928705
       1B2    -7.698680     4A1    -7.695407     1B1    -7.672660
       5A1    -6.783381     6A1    -4.946973     2B2    -4.946893
       2B1    -4.946877     7A1    -1.241570     8A1    -0.792415
       3B2    -0.769325     9A1    -0.758781     3B1    -0.710741
      10A1    -0.446700     4B2    -0.440496     4B1    -0.440031

    Alpha Virtual:

      11A1     0.096863     5B2     0.171279     5B1     0.189884
      12A1     0.196310    13A1     0.199417     6B2     0.233659
       6B1     0.239735     1A2     0.247140    14A1     0.247143
       7B2     0.251198    15A1     0.251326     7B1     0.266381
      16A1     0.269685     8B2     0.279293     2A2     0.303426
       8B1     0.316526    17A1     0.317480    18A1     0.490540

    Beta Occupied:

       1A1  -102.007177     2A1   -77.301487     3A1    -9.914820
       1B2    -7.670471     4A1    -7.669522     1B1    -7.664317
       5A1    -6.767638     6A1    -4.925670     2B2    -4.925296
       2B1    -4.925261     7A1    -1.137481     3B1    -0.678737
       8A1    -0.660797

    Beta Virtual:

       9A1    -0.588340     3B2    -0.581728    10A1    -0.291433
       4B2    -0.283322     4B1    -0.282811    11A1     0.149353
       5B1     0.220660     5B2     0.224491    12A1     0.248279
      13A1     0.259116     6B1     0.293677     6B2     0.294514
      14A1     0.322586     7B1     0.350482     7B2     0.350780
       1A2     0.352421    15A1     0.352427    16A1     0.368749
       2A2     0.370834     8B1     0.376135    17A1     0.378687
       8B2     0.387482    18A1     0.546303

    Final Occupation by Irrep:
             A1    A2    B1    B2
    DOCC [     8,    0,    3,    2 ]
    SOCC [     2,    0,    1,    2 ]
    NA   [    10,    0,    4,    4 ]
    NB   [     8,    0,    3,    2 ]

  @DF-UKS Final Energy:  -800.96387073847575

   => Energetics <=

    Nuclear Repulsion Energy =             39.8852739678223713
    One-Electron Energy =               -1176.6484562689211089
    Two-Electron Energy =                 376.9199892570772477
    DFT Exchange-Correlation Energy =     -41.1206776944541161
    Empirical Dispersion Energy =           0.0000000000000000
    VV10 Nonlocal Energy =                  0.0000000000000000
    Total Energy =                       -800.9638707384756344

  UHF NO Occupations:
  HONO-2 :    3 B2 1.0000000
  HONO-1 :    4 B2 1.0000000
  HONO-0 :   10 A1 1.0000000
  LUNO+0 :   11 A1 0.0008627
  LUNO+1 :   12 A1 0.0005370
  LUNO+2 :    5 B1 0.0001008
  LUNO+3 :   13 A1 0.0000000

Computation Completed

Properties will be evaluated at   0.000000,   0.000000,   0.000000 [a0]

Properties computed using the SCF density matrix

 Multipole Moments:

 ------------------------------------------------------------------------------------
     Multipole            Electronic (a.u.)      Nuclear  (a.u.)        Total (a.u.)
 ------------------------------------------------------------------------------------

 L = 1.  Multiply by 2.5417464519 to convert [e a0] to [Debye]
 Dipole X            :          0.0000000            0.0000000            0.0000000
 Dipole Y            :          0.0000000            0.0000000            0.0000000
 Dipole Z            :         -1.5758808           -0.1959580           -1.7718388
 Magnitude           :                                                    1.7718388

 ------------------------------------------------------------------------------------

*** tstop() called on Joses-MacBook-Pro-2.local at Thu Jul 17 15:48:02 2025
Module time:
	user time   =       7.25 seconds =       0.12 minutes
	system time =       1.75 seconds =       0.03 minutes
	total time  =          1 seconds =       0.02 minutes
Total time:
	user time   =     225.89 seconds =       3.76 minutes
	system time =      54.99 seconds =       0.92 minutes
	total time  =         27 seconds =       0.45 minutes

*** tstart() called on Joses-MacBook-Pro-2.local
*** at Thu Jul 17 15:48:02 2025

         ------------------------------------------------------------
                                   SCF GRAD
                          Rob Parrish, Justin Turney,
                       Andy Simmonett, and Alex Sokolov
         ------------------------------------------------------------

  ==> Geometry <==

    Molecular point group: c2v
    Full point group: C_inf_v

    Geometry (in Angstrom), charge = 1, multiplicity = 6:

       Center              X                  Y                   Z               Mass
    ------------   -----------------  -----------------  -----------------  -----------------
         P            0.000000000000     0.000000000000     1.794088877784    30.973761998420
         CL           0.000000000000     0.000000000000    -1.589119391758    34.968852682000

  Nuclear repulsion =   39.885273967822371

  ==> Basis Set <==

  Basis Set: CC-PVDZ
    Blend: CC-PVDZ
    Number of shells: 16
    Number of basis functions: 36
    Number of Cartesian functions: 38
    Spherical Harmonics?: true
    Max angular momentum: 2

  ==> DFJKGrad: Density-Fitted SCF Gradients <==

    Gradient:                    1
    J tasked:                  Yes
    K tasked:                  Yes
    wK tasked:                  No
    OpenMP threads:              1
    Integrals threads:           1
    Memory [MiB]:              375
    Schwarz Cutoff:          1E-12
    Fitting Condition:       1E-10

   => Auxiliary Basis Set <=

  Basis Set: (CC-PVDZ AUX)
    Blend: CC-PVDZ-JKFIT
    Number of shells: 72
    Number of basis functions: 224
    Number of Cartesian functions: 260
    Spherical Harmonics?: true
    Max angular momentum: 3

  ==> DFT Potential <==

   => LibXC <=

    Version 6.2.2
    S. Lehtola, C. Steigemann, M. J.T. Oliveira, and M. A.L. Marques.,  SoftwareX 7, 1â€“5 (2018) (10.1016/j.softx.2017.11.002)

   => Composite Functional: B3LYP <=

    B3LYP Hyb-GGA Exchange-Correlation Functional

    P. J. Stephens, F. J. Devlin, C. F. Chabalowski, and M. J. Frisch.,  J. Phys. Chem. 98, 11623 (1994) (10.1021/j100096a001)

    Deriv               =              1
    GGA                 =           TRUE
    Meta                =          FALSE

    Exchange Hybrid     =           TRUE
    MP2 Hybrid          =          FALSE

   => Exchange Functionals <=

    0.0800   Slater exchange
    0.7200         Becke 88

   => Exact (HF) Exchange <=

    0.2000               HF

   => Correlation Functionals <=

    0.1900   Vosko, Wilk & Nusair (VWN5_RPA)
    0.8100   Lee, Yang & Parr

   => LibXC Density Thresholds  <==

    XC_HYB_GGA_XC_B3LYP:  1.00E-15

   => Molecular Quadrature <=

    Radial Scheme          =       TREUTLER
    Pruning Scheme         =           NONE
    Nuclear Scheme         =       TREUTLER

    Blocking Scheme        =         OCTREE
    BS radius alpha        =              1
    Pruning alpha          =              1
    Radial Points          =             75
    Spherical Points       =            302
    Total Points           =          40960
    Total Blocks           =            378
    Max Points             =            250
    Max Functions          =             36
    Weights Tolerance      =       1.00E-15

  -Total Gradient:
     Atom            X                  Y                   Z
    ------   -----------------  -----------------  -----------------
       1        0.000000000000     0.000000000000    -0.000027344163
       2        0.000000000000     0.000000000000     0.000024679960

*** tstop() called on Joses-MacBook-Pro-2.local at Thu Jul 17 15:48:02 2025
Module time:
	user time   =       2.46 seconds =       0.04 minutes
	system time =       1.23 seconds =       0.02 minutes
	total time  =          0 seconds =       0.00 minutes
Total time:
	user time   =     228.35 seconds =       3.81 minutes
	system time =      56.22 seconds =       0.94 minutes
	total time  =         27 seconds =       0.45 minutes

    			-----------------------------------------

    			 OPTKING 3.0: for geometry optimizations

    			     By R.A. King, Bethel University

    			        with contributions from

    			    A.V. Copan, J. Cayton, A. Heide

    			-----------------------------------------

	                            ===> Fragment 1 <==

	 Z (Atomic Numbers)          Masses                          Geom
	      15.000000            30.973762          0.00000000  0.00000000  3.39033662
	      17.000000            34.968853          0.00000000  0.00000000 -3.00300043

	 - Coordinate -           - BOHR/RAD -       - ANG/DEG -
	 R(1,2)           =         6.393337           3.383208

	        --- Internal Coordinate Step in ANG or DEG, aJ/ANG or AJ/DEG ---
	-------------------------------------------------------------------------------
	           Coordinate      Previous         Force          Change          New
	           ----------      --------        ------          ------        ------
	               R(1,2)       3.38321        0.00021        0.00210       3.38531
	-------------------------------------------------------------------------------

	                                 ==> Convergence Check <==

	Measures of convergence in internal coordinates in au.

	Criteria marked as inactive (o), active & met (*), and active & unmet ( ).

	----------------------------------------------------------------------------------------------
	   Step    Total Energy     Delta E     Max Force     RMS Force      Max Disp      RMS Disp
	----------------------------------------------------------------------------------------------
	  Convergence Criteria     1.00e-06 *    3.00e-04 *             o    1.20e-03 *             o
	----------------------------------------------------------------------------------------------
	    19    -800.96387074   -3.03e-07 *    2.60e-05 *    2.60e-05 o    3.98e-03      3.98e-03 o  ~
	----------------------------------------------------------------------------------------------

Next Geometry in Ang
	Fragment 1 (Ang)

	    P   0.0000000000   0.0000000000   1.7951413214
	   Cl   0.0000000000   0.0000000000  -1.5901718354

    Final optimized geometry and variables:
    Molecular point group: c2v
    Full point group: C_inf_v

    Geometry (in Angstrom), charge = 1, multiplicity = 6:

    P            0.000000000000     0.000000000000     1.794088877784
    CL           0.000000000000     0.000000000000    -1.589119391758

    Psi4 stopped on: Thursday, 17 July 2025 03:48PM
    Psi4 wall time for execution: 0:00:27.45

*** Psi4 exiting successfully. Buy a developer a beer!
