                               Psi4 1.9.1 release

  ==> Input File <==

--------------------------------------------------------------------------
molecule {
1 6
He   0.00000        0.60000        0.00000
Be   0.00000       -0.60000        0.00000
}

set {
basis              cc-pvdz
reference          uks
maxiter            500
geom_maxiter       500
DAMPING_PERCENTAGE 1
guess              SAP
}

optimize('b3lyp')
--------------------------------------------------------------------------

    Molecular point group: c2v
  Charge       = 1
  Multiplicity = 6
  Basis Set: CC-PVDZ
    Blend: CC-PVDZ
  Basis Set: (CC-PVDZ AUX)
    Blend: DEF2-UNIVERSAL-JKFIT
  @DF-UKS Final Energy:   -12.03564289850965
    Total Energy =                        -12.0356428985096500
 Dipole X            :          0.0000000            0.0000000            0.0000000
 Dipole Y            :          0.0000000            0.0000000            0.0000000
 Dipole Z            :          0.8040727            0.3509073            1.1549801
 Magnitude           :                                                    1.1549801
    Molecular point group: c2v
  Basis Set: CC-PVDZ
    Blend: CC-PVDZ
  Basis Set: (CC-PVDZ AUX)
    Blend: DEF2-UNIVERSAL-JKFIT
  Basis Set: CC-PVDZ
    Blend: CC-PVDZ
  Basis Set: (CC-PVDZ AUX)
    Blend: DEF2-UNIVERSAL-JKFIT
  @DF-UKS Final Energy:   -12.17199737196634
    Total Energy =                        -12.1719973719663415
  Basis Set: CC-PVDZ
    Blend: CC-PVDZ
  Basis Set: (CC-PVDZ AUX)
    Blend: DEF2-UNIVERSAL-JKFIT
  Basis Set: CC-PVDZ
    Blend: CC-PVDZ
  @DF-UKS Final Energy:   -12.23759511515043
    Total Energy =                        -12.2375951151504268
  @DF-UKS Final Energy:   -12.26489666310364
    Total Energy =                        -12.2648966631036380
  @DF-UKS Final Energy:   -12.27910051669593
    Total Energy =                        -12.2791005166959266
  @DF-UKS Final Energy:   -12.28638252604482
    Total Energy =                        -12.2863825260448181
  @DF-UKS Final Energy:   -12.29022376344575
    Total Energy =                        -12.2902237634457485
  @DF-UKS Final Energy:   -12.29233770110194
    Total Energy =                        -12.2923377011019426
  @DF-UKS Final Energy:   -12.29360513753813
    Total Energy =                        -12.2936051375381279
  @DF-UKS Final Energy:   -12.29446957193716
    Total Energy =                        -12.2944695719371566
  @DF-UKS Final Energy:   -12.29515726692958
    Total Energy =                        -12.2951572669295803
  @DF-UKS Final Energy:   -12.29517087919743
    Total Energy =                        -12.2951708791974248
  @DF-UKS Final Energy:   -12.29518433411828
    Total Energy =                        -12.2951843341182858
  @DF-UKS Final Energy:   -12.29586176891367
    Total Energy =                        -12.2958617689136691
  @DF-UKS Final Energy:   -12.29586991444033
    Total Energy =                        -12.2958699144403312
  @DF-UKS Final Energy:   -12.29587801674020
    Total Energy =                        -12.2958780167402022
  @DF-UKS Final Energy:   -12.29643159935745
    Total Energy =                        -12.2964315993574473
  @DF-UKS Final Energy:   -12.29643706940849
    Total Energy =                        -12.2964370694084888
  @DF-UKS Final Energy:   -12.29644251639064
    Total Energy =                        -12.2964425163906448
  @DF-UKS Final Energy:   -12.29644794070914
    Total Energy =                        -12.2964479407091432
  @DF-UKS Final Energy:   -12.29724633630023
    Total Energy =                        -12.2972463363002262
  @DF-UKS Final Energy:   -12.29724884452128
    Total Energy =                        -12.2972488445212829
  @DF-UKS Final Energy:   -12.29751062809667
    Total Energy =                        -12.2975106280966706
  @DF-UKS Final Energy:   -12.29751232560933
    Total Energy =                        -12.2975123256093308
  @DF-UKS Final Energy:   -12.29751401816358
    Total Energy =                        -12.2975140181635751
  @DF-UKS Final Energy:   -12.29751570579673
    Total Energy =                        -12.2975157057967337
  @DF-UKS Final Energy:   -12.29751738852562
    Total Energy =                        -12.2975173885256215
  @DF-UKS Final Energy:   -12.29751906636917
    Total Energy =                        -12.2975190663691674
  @DF-UKS Final Energy:   -12.29752073934437
    Total Energy =                        -12.2975207393443675
  @DF-UKS Final Energy:   -12.29772294942735
    Total Energy =                        -12.2977229494273459
  @DF-UKS Final Energy:   -12.29772408554394
    Total Energy =                        -12.2977240855439405
  @DF-UKS Final Energy:   -12.29772521873802
    Total Energy =                        -12.2977252187380159
  @DF-UKS Final Energy:   -12.29772634925788
    Total Energy =                        -12.2977263492578803
  @DF-UKS Final Energy:   -12.29772747711413
    Total Energy =                        -12.2977274771141261
  @DF-UKS Final Energy:   -12.29772860231700
    Total Energy =                        -12.2977286023170045
  @DF-UKS Final Energy:   -12.29772972487673
    Total Energy =                        -12.2977297248767261
  @DF-UKS Final Energy:   -12.29773084480390
    Total Energy =                        -12.2977308448038976
  @DF-UKS Final Energy:   -12.29773196210813
    Total Energy =                        -12.2977319621081342
  Basis Set: (CC-PVDZ AUX)
    Blend: DEF2-UNIVERSAL-JKFIT
  Basis Set: CC-PVDZ
    Blend: CC-PVDZ
  Basis Set: (CC-PVDZ AUX)
    Blend: DEF2-UNIVERSAL-JKFIT
  @DF-UKS Final Energy:   -12.29789088386218
    Total Energy =                        -12.2978908838621734
  Basis Set: CC-PVDZ
    Blend: CC-PVDZ
  Basis Set: (CC-PVDZ AUX)
    Blend: DEF2-UNIVERSAL-JKFIT
  Charge       = 1
  Multiplicity = 6
  Basis Set: CC-PVDZ
    Blend: CC-PVDZ
  Basis Set: (CC-PVDZ AUX)
    Blend: DEF2-UNIVERSAL-JKFIT

    Orbital Energies [Eh]
    ---------------------

    Alpha Occupied:

       1A1    -5.711421     2A1    -1.632612     3A1    -0.463053
       1B1    -0.311469     1B2    -0.311469

    Alpha Virtual:

       4A1    -0.225890     5A1     0.033387     2B1     0.040844
       2B2     0.040844     6A1     0.071863     7A1     0.337735
       1A2     0.337735     3B1     0.339994     3B2     0.339994
       8A1     0.350626     9A1     0.388016    10A1     1.324212
       4B1     1.324229     4B2     1.324229

    Beta Occupied:

    Beta Virtual:

       1A1    -4.344052     2A1    -0.957587     3A1    -0.175242
       4A1    -0.080131     1B2    -0.038871     1B1    -0.038871
       5A1     0.108174     2B2     0.148071     2B1     0.148071
       6A1     0.167424     7A1     0.484392     3B2     0.496179
       3B1     0.496179     8A1     0.525799     1A2     0.525799
       9A1     0.735481    10A1     1.677587     4B2     1.677609
       4B1     1.677609

    Final Occupation by Irrep:
             A1    A2    B1    B2
    DOCC [     0,    0,    0,    0 ]
    SOCC [     3,    0,    1,    1 ]
    NA   [     3,    0,    1,    1 ]
    NB   [     0,    0,    0,    0 ]

  @DF-UKS Final Energy:   -12.29789165183202

   => Energetics <=

    Nuclear Repulsion Energy =              0.6344902997819862
    One-Electron Energy =                 -15.8808388982497579
    Two-Electron Energy =                   5.1033292491641644
    DFT Exchange-Correlation Energy =      -2.1548723025284180
    Empirical Dispersion Energy =           0.0000000000000000
    VV10 Nonlocal Energy =                  0.0000000000000000
    Total Energy =                        -12.2978916518320247

  UHF NO Occupations:
  HONO-2 :    2 A1 1.0000000
  HONO-1 :    1 B1 1.0000000
  HONO-0 :    3 A1 1.0000000
  LUNO+0 :    4 A1 0.0000000
  LUNO+1 :    5 A1 0.0000000
  LUNO+2 :    6 A1 0.0000000
  LUNO+3 :    2 B1 0.0000000

Computation Completed

Properties will be evaluated at   0.000000,   0.000000,   0.000000 [a0]

Properties computed using the SCF density matrix

 Multipole Moments:

 ------------------------------------------------------------------------------------
     Multipole            Electronic (a.u.)      Nuclear  (a.u.)        Total (a.u.)
 ------------------------------------------------------------------------------------

 L = 1.  Multiply by 2.5417464519 to convert [e a0] to [Debye]
 Dipole X            :          0.0000000            0.0000000            0.0000000
 Dipole Y            :          0.0000000            0.0000000            0.0000000
 Dipole Z            :          6.6686476            1.9510900            8.6197376
 Magnitude           :                                                    8.6197376

 ------------------------------------------------------------------------------------

*** tstop() called on Joses-MacBook-Pro-2.local at Thu Jul 17 12:26:07 2025
Module time:
	user time   =       0.48 seconds =       0.01 minutes
	system time =       2.54 seconds =       0.04 minutes
	total time  =          0 seconds =       0.00 minutes
Total time:
	user time   =      45.05 seconds =       0.75 minutes
	system time =     198.14 seconds =       3.30 minutes
	total time  =         24 seconds =       0.40 minutes

*** tstart() called on Joses-MacBook-Pro-2.local
*** at Thu Jul 17 12:26:07 2025

         ------------------------------------------------------------
                                   SCF GRAD
                          Rob Parrish, Justin Turney,
                       Andy Simmonett, and Alex Sokolov
         ------------------------------------------------------------

  ==> Geometry <==

    Molecular point group: c2v
    Full point group: C_inf_v

    Geometry (in Angstrom), charge = 1, multiplicity = 6:

       Center              X                  Y                   Z               Mass
    ------------   -----------------  -----------------  -----------------  -----------------
         HE           0.000000000000     0.000000000000     4.620182127062     4.002603254130
         BE           0.000000000000     0.000000000000    -2.051972966270     9.012183065000

  Nuclear repulsion =    0.634490299781986

  ==> Basis Set <==

  Basis Set: CC-PVDZ
    Blend: CC-PVDZ
    Number of shells: 9
    Number of basis functions: 19
    Number of Cartesian functions: 20
    Spherical Harmonics?: true
    Max angular momentum: 2

  ==> DFJKGrad: Density-Fitted SCF Gradients <==

    Gradient:                    1
    J tasked:                  Yes
    K tasked:                  Yes
    wK tasked:                  No
    OpenMP threads:              1
    Integrals threads:           1
    Memory [MiB]:              375
    Schwarz Cutoff:          1E-12
    Fitting Condition:       1E-10

   => Auxiliary Basis Set <=

  Basis Set: (CC-PVDZ AUX)
    Blend: DEF2-UNIVERSAL-JKFIT
    Number of shells: 26
    Number of basis functions: 74
    Number of Cartesian functions: 85
    Spherical Harmonics?: true
    Max angular momentum: 3

  ==> DFT Potential <==

   => LibXC <=

    Version 6.2.2
    S. Lehtola, C. Steigemann, M. J.T. Oliveira, and M. A.L. Marques.,  SoftwareX 7, 1â€“5 (2018) (10.1016/j.softx.2017.11.002)

   => Composite Functional: B3LYP <=

    B3LYP Hyb-GGA Exchange-Correlation Functional

    P. J. Stephens, F. J. Devlin, C. F. Chabalowski, and M. J. Frisch.,  J. Phys. Chem. 98, 11623 (1994) (10.1021/j100096a001)

    Deriv               =              1
    GGA                 =           TRUE
    Meta                =          FALSE

    Exchange Hybrid     =           TRUE
    MP2 Hybrid          =          FALSE

   => Exchange Functionals <=

    0.0800   Slater exchange
    0.7200         Becke 88

   => Exact (HF) Exchange <=

    0.2000               HF

   => Correlation Functionals <=

    0.1900   Vosko, Wilk & Nusair (VWN5_RPA)
    0.8100   Lee, Yang & Parr

   => LibXC Density Thresholds  <==

    XC_HYB_GGA_XC_B3LYP:  1.00E-15

   => Molecular Quadrature <=

    Radial Scheme          =       TREUTLER
    Pruning Scheme         =           NONE
    Nuclear Scheme         =       TREUTLER

    Blocking Scheme        =         OCTREE
    BS radius alpha        =              1
    Pruning alpha          =              1
    Radial Points          =             75
    Spherical Points       =            302
    Total Points           =          43714
    Total Blocks           =            439
    Max Points             =            254
    Max Functions          =             19
    Weights Tolerance      =       1.00E-15

  -Total Gradient:
     Atom            X                  Y                   Z
    ------   -----------------  -----------------  -----------------
       1        0.000000000000    -0.000000000000    -0.000164257597
       2        0.000000000000     0.000000000000     0.000161685706

*** tstop() called on Joses-MacBook-Pro-2.local at Thu Jul 17 12:26:07 2025
Module time:
	user time   =       0.32 seconds =       0.01 minutes
	system time =       0.75 seconds =       0.01 minutes
	total time  =          0 seconds =       0.00 minutes
Total time:
	user time   =      45.37 seconds =       0.76 minutes
	system time =     198.90 seconds =       3.31 minutes
	total time  =         24 seconds =       0.40 minutes

    			-----------------------------------------

    			 OPTKING 3.0: for geometry optimizations

    			     By R.A. King, Bethel University

    			        with contributions from

    			    A.V. Copan, J. Cayton, A. Heide

    			-----------------------------------------

	                            ===> Fragment 1 <==

	 Z (Atomic Numbers)          Masses                          Geom
	       2.000000             4.002603          0.00000000  0.00000000  8.73087887
	       4.000000             9.012183          0.00000000  0.00000000 -3.87766692

	 - Coordinate -           - BOHR/RAD -       - ANG/DEG -
	 R(1,2)           =        12.608546           6.672155

	        --- Internal Coordinate Step in ANG or DEG, aJ/ANG or AJ/DEG ---
	-------------------------------------------------------------------------------
	           Coordinate      Previous         Force          Change          New
	           ----------      --------        ------          ------        ------
	               R(1,2)       6.67216        0.00134        0.00250       6.67466
	-------------------------------------------------------------------------------

	                                 ==> Convergence Check <==

	Measures of convergence in internal coordinates in au.

	Criteria marked as inactive (o), active & met (*), and active & unmet ( ).

	----------------------------------------------------------------------------------------------
	   Step    Total Energy     Delta E     Max Force     RMS Force      Max Disp      RMS Disp
	----------------------------------------------------------------------------------------------
	  Convergence Criteria     1.00e-06 *    3.00e-04 *             o    1.20e-03 *             o
	----------------------------------------------------------------------------------------------
	    49     -12.29789165   -7.68e-07 *    1.63e-04 *    1.63e-04 o    4.73e-03      4.73e-03 o  ~
	----------------------------------------------------------------------------------------------

Next Geometry in Ang
	Fragment 1 (Ang)

	   He   0.0000000000   0.0000000000   4.6214325419
	   Be   0.0000000000   0.0000000000  -2.0532233811

    Final optimized geometry and variables:
    Molecular point group: c2v
    Full point group: C_inf_v

    Geometry (in Angstrom), charge = 1, multiplicity = 6:

    HE           0.000000000000     0.000000000000     4.620182127062
    BE           0.000000000000     0.000000000000    -2.051972966270

    Psi4 stopped on: Thursday, 17 July 2025 12:26PM
    Psi4 wall time for execution: 0:00:24.07

*** Psi4 exiting successfully. Buy a developer a beer!
