                               Psi4 1.9.1 release

  ==> Input File <==

--------------------------------------------------------------------------
molecule {
1 6
Be   0.00000        0.60000        0.00000
Mg   0.00000       -0.60000        0.00000
}

set {
basis              cc-pvdz
reference          uks
maxiter            500
geom_maxiter       500
DAMPING_PERCENTAGE 1
guess              SAP
}

optimize('b3lyp')
--------------------------------------------------------------------------

    Molecular point group: c2v
  Charge       = 1
  Multiplicity = 6
  Basis Set: CC-PVDZ
    Blend: CC-PVDZ
  Basis Set: (CC-PVDZ AUX)
    Blend: DEF2-UNIVERSAL-JKFIT
  @DF-UKS Final Energy:  -211.88690549371526
    Total Energy =                       -211.8869054937152612
 Dipole X            :          0.0000000            0.0000000            0.0000000
 Dipole Y            :          0.0000000            0.0000000            0.0000000
 Dipole Z            :          0.8613021           -0.8388361            0.0224660
 Magnitude           :                                                    0.0224660
    Molecular point group: c2v
  Basis Set: CC-PVDZ
    Blend: CC-PVDZ
  Basis Set: (CC-PVDZ AUX)
    Blend: DEF2-UNIVERSAL-JKFIT
  Basis Set: CC-PVDZ
    Blend: CC-PVDZ
  Basis Set: (CC-PVDZ AUX)
    Blend: DEF2-UNIVERSAL-JKFIT
  @DF-UKS Final Energy:  -212.00728165832578
    Total Energy =                       -212.0072816583257236
  Basis Set: CC-PVDZ
    Blend: CC-PVDZ
  Basis Set: (CC-PVDZ AUX)
    Blend: DEF2-UNIVERSAL-JKFIT
  Basis Set: CC-PVDZ
    Blend: CC-PVDZ
  @DF-UKS Final Energy:  -212.13882769511187
    Total Energy =                       -212.1388276951118428
  @DF-UKS Final Energy:  -212.26418021994573
    Total Energy =                       -212.2641802199457288
  @DF-UKS Final Energy:  -212.32012542913660
    Total Energy =                       -212.3201254291365956
  @DF-UKS Final Energy:  -212.34338883544768
    Total Energy =                       -212.3433888354476551
  @DF-UKS Final Energy:  -212.35281117666415
    Total Energy =                       -212.3528111766641189
  @DF-UKS Final Energy:  -212.35563272810518
    Total Energy =                       -212.3556327281051495
  @DF-UKS Final Energy:  -212.35607297398565
    Total Energy =                       -212.3560729739856470
  @DF-UKS Final Energy:  -212.35615838550308
    Total Energy =                       -212.3561583855030790
  Basis Set: (CC-PVDZ AUX)
    Blend: DEF2-UNIVERSAL-JKFIT
  Basis Set: CC-PVDZ
    Blend: CC-PVDZ
  Basis Set: (CC-PVDZ AUX)
    Blend: DEF2-UNIVERSAL-JKFIT
  @DF-UKS Final Energy:  -212.35616453630578
    Total Energy =                       -212.3561645363058119
  Basis Set: CC-PVDZ
    Blend: CC-PVDZ
  Basis Set: (CC-PVDZ AUX)
    Blend: DEF2-UNIVERSAL-JKFIT
  Charge       = 1
  Multiplicity = 6
  Basis Set: CC-PVDZ
    Blend: CC-PVDZ
  Basis Set: (CC-PVDZ AUX)
    Blend: DEF2-UNIVERSAL-JKFIT

    Orbital Energies [Eh]
    ---------------------

    Alpha Occupied:

       1A1   -48.435119     2A1    -4.390233     3A1    -4.213414
       1B2    -3.074354     4A1    -2.935311     1B1    -2.932188
       5A1    -0.637181     6A1    -0.472513     2B2    -0.405655
       2B1    -0.400114

    Alpha Virtual:

       7A1    -0.336836     3B2    -0.267410     3B1    -0.263945
       8A1    -0.158162     9A1    -0.089005     4B2    -0.063670
       4B1    -0.060880    10A1    -0.043521    11A1    -0.020410
       1A2    -0.012546    12A1    -0.012071     5B2     0.006793
       5B1     0.007114     6B2     0.017505     6B1     0.020874
      13A1     0.129152    14A1     0.237291     2A2     0.237677
      15A1     0.240849     7B2     0.365648     7B1     0.366272
      16A1     0.534869

    Beta Occupied:

       1A1   -48.378055     2A1    -4.373326     3A1    -4.071587
       4A1    -2.876866     1B1    -2.872980

    Beta Virtual:

       1B2    -2.596772     5A1    -0.446150     6A1    -0.332289
       7A1    -0.260542     2B1    -0.251196     2B2    -0.249462
       3B1    -0.172625     3B2    -0.171237     8A1    -0.094739
       9A1    -0.059880     4B1    -0.032535     4B2    -0.029158
      10A1    -0.008983    11A1     0.007150     5B2     0.042767
       5B1     0.043607     1A2     0.090761    12A1     0.093272
       6B2     0.107780     6B1     0.108454    13A1     0.171720
      14A1     0.311957    15A1     0.336625     2A2     0.336633
       7B2     0.449758     7B1     0.451353    16A1     0.589248

    Final Occupation by Irrep:
             A1    A2    B1    B2
    DOCC [     4,    0,    1,    0 ]
    SOCC [     2,    0,    1,    2 ]
    NA   [     6,    0,    2,    2 ]
    NB   [     4,    0,    1,    0 ]

  @DF-UKS Final Energy:  -212.35616498447880

   => Energetics <=

    Nuclear Repulsion Energy =             10.8028883595651042
    One-Electron Energy =                -305.3287118400623967
    Two-Electron Energy =                  96.8617167916885080
    DFT Exchange-Correlation Energy =     -14.6920582956699928
    Empirical Dispersion Energy =           0.0000000000000000
    VV10 Nonlocal Energy =                  0.0000000000000000
    Total Energy =                       -212.3561649844787951

  UHF NO Occupations:
  HONO-2 :    1 B2 1.0000000
  HONO-1 :    6 A1 1.0000000
  HONO-0 :    2 B2 1.0000000
  LUNO+0 :    7 A1 0.0000054
  LUNO+1 :    8 A1 0.0000017
  LUNO+2 :    3 B1 0.0000013
  LUNO+3 :    9 A1 0.0000002

Computation Completed

Properties will be evaluated at   0.000000,   0.000000,   0.000000 [a0]

Properties computed using the SCF density matrix

 Multipole Moments:

 ------------------------------------------------------------------------------------
     Multipole            Electronic (a.u.)      Nuclear  (a.u.)        Total (a.u.)
 ------------------------------------------------------------------------------------

 L = 1.  Multiply by 2.5417464519 to convert [e a0] to [Debye]
 Dipole X            :          0.0000000            0.0000000            0.0000000
 Dipole Y            :          0.0000000            0.0000000            0.0000000
 Dipole Z            :          2.6849308           -1.6436085            1.0413224
 Magnitude           :                                                    1.0413224

 ------------------------------------------------------------------------------------

*** tstop() called on Joses-MacBook-Pro-2.local at Thu Jul 17 13:21:59 2025
Module time:
	user time   =       2.38 seconds =       0.04 minutes
	system time =       4.83 seconds =       0.08 minutes
	total time  =          1 seconds =       0.02 minutes
Total time:
	user time   =      45.02 seconds =       0.75 minutes
	system time =      78.30 seconds =       1.31 minutes
	total time  =         13 seconds =       0.22 minutes

*** tstart() called on Joses-MacBook-Pro-2.local
*** at Thu Jul 17 13:21:59 2025

         ------------------------------------------------------------
                                   SCF GRAD
                          Rob Parrish, Justin Turney,
                       Andy Simmonett, and Alex Sokolov
         ------------------------------------------------------------

  ==> Geometry <==

    Molecular point group: c2v
    Full point group: C_inf_v

    Geometry (in Angstrom), charge = 1, multiplicity = 6:

       Center              X                  Y                   Z               Mass
    ------------   -----------------  -----------------  -----------------  -----------------
         BE           0.000000000000     0.000000000000     1.709092407955     9.012183065000
         MG           0.000000000000     0.000000000000    -0.642177480868    23.985041697000

  Nuclear repulsion =   10.802888359565104

  ==> Basis Set <==

  Basis Set: CC-PVDZ
    Blend: CC-PVDZ
    Number of shells: 14
    Number of basis functions: 32
    Number of Cartesian functions: 34
    Spherical Harmonics?: true
    Max angular momentum: 2

  ==> DFJKGrad: Density-Fitted SCF Gradients <==

    Gradient:                    1
    J tasked:                  Yes
    K tasked:                  Yes
    wK tasked:                  No
    OpenMP threads:              1
    Integrals threads:           1
    Memory [MiB]:              375
    Schwarz Cutoff:          1E-12
    Fitting Condition:       1E-10

   => Auxiliary Basis Set <=

  Basis Set: (CC-PVDZ AUX)
    Blend: DEF2-UNIVERSAL-JKFIT
    Number of shells: 51
    Number of basis functions: 163
    Number of Cartesian functions: 197
    Spherical Harmonics?: true
    Max angular momentum: 4

  ==> DFT Potential <==

   => LibXC <=

    Version 6.2.2
    S. Lehtola, C. Steigemann, M. J.T. Oliveira, and M. A.L. Marques.,  SoftwareX 7, 1â€“5 (2018) (10.1016/j.softx.2017.11.002)

   => Composite Functional: B3LYP <=

    B3LYP Hyb-GGA Exchange-Correlation Functional

    P. J. Stephens, F. J. Devlin, C. F. Chabalowski, and M. J. Frisch.,  J. Phys. Chem. 98, 11623 (1994) (10.1021/j100096a001)

    Deriv               =              1
    GGA                 =           TRUE
    Meta                =          FALSE

    Exchange Hybrid     =           TRUE
    MP2 Hybrid          =          FALSE

   => Exchange Functionals <=

    0.0800   Slater exchange
    0.7200         Becke 88

   => Exact (HF) Exchange <=

    0.2000               HF

   => Correlation Functionals <=

    0.1900   Vosko, Wilk & Nusair (VWN5_RPA)
    0.8100   Lee, Yang & Parr

   => LibXC Density Thresholds  <==

    XC_HYB_GGA_XC_B3LYP:  1.00E-15

   => Molecular Quadrature <=

    Radial Scheme          =       TREUTLER
    Pruning Scheme         =           NONE
    Nuclear Scheme         =       TREUTLER

    Blocking Scheme        =         OCTREE
    BS radius alpha        =              1
    Pruning alpha          =              1
    Radial Points          =             75
    Spherical Points       =            302
    Total Points           =          42962
    Total Blocks           =            420
    Max Points             =            256
    Max Functions          =             32
    Weights Tolerance      =       1.00E-15

  -Total Gradient:
     Atom            X                  Y                   Z
    ------   -----------------  -----------------  -----------------
       1        0.000000000000     0.000000000000    -0.000058326448
       2        0.000000000000     0.000000000000     0.000061004271

*** tstop() called on Joses-MacBook-Pro-2.local at Thu Jul 17 13:21:59 2025
Module time:
	user time   =       0.69 seconds =       0.01 minutes
	system time =       2.02 seconds =       0.03 minutes
	total time  =          0 seconds =       0.00 minutes
Total time:
	user time   =      45.71 seconds =       0.76 minutes
	system time =      80.32 seconds =       1.34 minutes
	total time  =         13 seconds =       0.22 minutes

    			-----------------------------------------

    			 OPTKING 3.0: for geometry optimizations

    			     By R.A. King, Bethel University

    			        with contributions from

    			    A.V. Copan, J. Cayton, A. Heide

    			-----------------------------------------

	                            ===> Fragment 1 <==

	 Z (Atomic Numbers)          Masses                          Geom
	       4.000000             9.012183          0.00000000  0.00000000  3.22971657
	      12.000000            23.985042          0.00000000  0.00000000 -1.21353956

	 - Coordinate -           - BOHR/RAD -       - ANG/DEG -
	 R(1,2)           =         4.443256           2.351270

	        --- Internal Coordinate Step in ANG or DEG, aJ/ANG or AJ/DEG ---
	-------------------------------------------------------------------------------
	           Coordinate      Previous         Force          Change          New
	           ----------      --------        ------          ------        ------
	               R(1,2)       2.35127        0.00049        0.00063       2.35190
	-------------------------------------------------------------------------------

	                                 ==> Convergence Check <==

	Measures of convergence in internal coordinates in au.

	Criteria marked as inactive (o), active & met (*), and active & unmet ( ).

	----------------------------------------------------------------------------------------------
	   Step    Total Energy     Delta E     Max Force     RMS Force      Max Disp      RMS Disp
	----------------------------------------------------------------------------------------------
	  Convergence Criteria     1.00e-06 *    3.00e-04 *             o    1.20e-03 *             o
	----------------------------------------------------------------------------------------------
	    12    -212.35616498   -4.48e-07 *    5.97e-05 *    5.97e-05 o    1.19e-03 *    1.19e-03 o  ~
	----------------------------------------------------------------------------------------------

Next Geometry in Ang
	Fragment 1 (Ang)

	   Be   0.0000000000   0.0000000000   1.7094061639
	   Mg   0.0000000000   0.0000000000  -0.6424912368

    Final optimized geometry and variables:
    Molecular point group: c2v
    Full point group: C_inf_v

    Geometry (in Angstrom), charge = 1, multiplicity = 6:

    BE           0.000000000000     0.000000000000     1.709092407955
    MG           0.000000000000     0.000000000000    -0.642177480868

    Psi4 stopped on: Thursday, 17 July 2025 01:21PM
    Psi4 wall time for execution: 0:00:13.32

*** Psi4 exiting successfully. Buy a developer a beer!
