                               Psi4 1.9.1 release

  ==> Input File <==

--------------------------------------------------------------------------
molecule {
1 6
B   0.00000        0.60000        0.00000
Na   0.00000       -0.60000        0.00000
}

set {
basis              cc-pvdz
reference          uks
maxiter            500
geom_maxiter       500
DAMPING_PERCENTAGE 1
guess              SAP
}

optimize('b3lyp')
--------------------------------------------------------------------------

    Molecular point group: c2v
  Charge       = 1
  Multiplicity = 6
  Basis Set: CC-PVDZ
    Blend: CC-PVDZ
  Basis Set: (CC-PVDZ AUX)
    Blend: CC-PVDZ-JKFIT + DEF2-UNIVERSAL-JKFIT
  @DF-UKS Final Energy:  -184.84265044778672
    Total Energy =                       -184.8426504477867240
 Dipole X            :          0.0000000            0.0000000            0.0000000
 Dipole Y            :          0.0000000            0.0000000            0.0000000
 Dipole Z            :         -0.6479097           -0.4104272           -1.0583369
 Magnitude           :                                                    1.0583369
    Molecular point group: c2v
  Basis Set: CC-PVDZ
    Blend: CC-PVDZ
  Basis Set: (CC-PVDZ AUX)
    Blend: CC-PVDZ-JKFIT + DEF2-UNIVERSAL-JKFIT
  Basis Set: CC-PVDZ
    Blend: CC-PVDZ
  Basis Set: (CC-PVDZ AUX)
    Blend: CC-PVDZ-JKFIT + DEF2-UNIVERSAL-JKFIT
  @DF-UKS Final Energy:  -184.98562715941512
    Total Energy =                       -184.9856271594151167
  Basis Set: CC-PVDZ
    Blend: CC-PVDZ
  Basis Set: (CC-PVDZ AUX)
    Blend: CC-PVDZ-JKFIT + DEF2-UNIVERSAL-JKFIT
  Basis Set: CC-PVDZ
    Blend: CC-PVDZ
  @DF-UKS Final Energy:  -185.12499920416502
    Total Energy =                       -185.1249992041650501
  @DF-UKS Final Energy:  -185.23004591584575
    Total Energy =                       -185.2300459158457500
  @DF-UKS Final Energy:  -185.27805151237811
    Total Energy =                       -185.2780515123781129
  @DF-UKS Final Energy:  -185.29505191070314
    Total Energy =                       -185.2950519107031369
  @DF-UKS Final Energy:  -185.29965303329294
    Total Energy =                       -185.2996530332929410
  @DF-UKS Final Energy:  -185.30053345713412
    Total Energy =                       -185.3005334571341223
  @DF-UKS Final Energy:  -185.30084636627853
    Total Energy =                       -185.3008463662785061
  @DF-UKS Final Energy:  -185.30091681851448
    Total Energy =                       -185.3009168185144802
  @DF-UKS Final Energy:  -185.30093662901791
    Total Energy =                       -185.3009366290179116
  @DF-UKS Final Energy:  -185.30094439021323
    Total Energy =                       -185.3009443902132318
  Basis Set: (CC-PVDZ AUX)
    Blend: CC-PVDZ-JKFIT + DEF2-UNIVERSAL-JKFIT
  Basis Set: CC-PVDZ
    Blend: CC-PVDZ
  Basis Set: (CC-PVDZ AUX)
    Blend: CC-PVDZ-JKFIT + DEF2-UNIVERSAL-JKFIT
  @DF-UKS Final Energy:  -185.30094585823704
    Total Energy =                       -185.3009458582370428
  Basis Set: CC-PVDZ
    Blend: CC-PVDZ
  Basis Set: (CC-PVDZ AUX)
    Blend: CC-PVDZ-JKFIT + DEF2-UNIVERSAL-JKFIT
  Charge       = 1
  Multiplicity = 6
  Basis Set: CC-PVDZ
    Blend: CC-PVDZ
  Basis Set: (CC-PVDZ AUX)
    Blend: CC-PVDZ-JKFIT + DEF2-UNIVERSAL-JKFIT

    Orbital Energies [Eh]
    ---------------------

    Alpha Occupied:

       1A1   -40.005838     2A1    -7.046318     3A1    -3.304488
       1B1    -2.315636     4A1    -2.199895     1B2    -2.195767
       5A1    -0.686437     6A1    -0.435505     2B1    -0.412307
       2B2    -0.411153

    Alpha Virtual:

       7A1    -0.327742     3B1    -0.231715     3B2    -0.226327
       8A1    -0.166469     9A1    -0.097514     1A2    -0.090613
      10A1    -0.090481     4B1    -0.079057     4B2    -0.077725
      11A1    -0.062456     5B1    -0.041455     5B2    -0.038240
      12A1     0.107159     6B1     0.144949     6B2     0.145070
      13A1     0.186823    14A1     0.433214     2A2     0.485383
      15A1     0.485388     7B1     0.550972     7B2     0.552151
      16A1     0.626920

    Beta Occupied:

       1A1   -39.961965     2A1    -7.004741     3A1    -3.184683
       4A1    -2.153778     1B2    -2.150246

    Beta Virtual:

       1B1    -1.914542     5A1    -0.439422     6A1    -0.318017
       2B2    -0.237717     2B1    -0.234792     7A1    -0.210152
       3B2    -0.149721     3B1    -0.149720     8A1    -0.124960
       9A1    -0.089944     4B2    -0.071560     4B1    -0.069094
       1A2    -0.057626    10A1    -0.054955    11A1    -0.035838
       5B2     0.015732     5B1     0.017185    12A1     0.158333
       6B1     0.229353     6B2     0.230121    13A1     0.252225
      14A1     0.574678     2A2     0.659768    15A1     0.659860
      16A1     0.700810     7B2     0.704758     7B1     0.704904

    Final Occupation by Irrep:
             A1    A2    B1    B2
    DOCC [     4,    0,    0,    1 ]
    SOCC [     2,    0,    2,    1 ]
    NA   [     6,    0,    2,    2 ]
    NB   [     4,    0,    0,    1 ]

  @DF-UKS Final Energy:  -185.30094597444392

   => Energetics <=

    Nuclear Repulsion Energy =             13.4547231621365846
    One-Electron Energy =                -273.9479633210541465
    Two-Electron Energy =                  89.2703509247920550
    DFT Exchange-Correlation Energy =     -14.0780567403184289
    Empirical Dispersion Energy =           0.0000000000000000
    VV10 Nonlocal Energy =                  0.0000000000000000
    Total Energy =                       -185.3009459744439198

  UHF NO Occupations:
  HONO-2 :    1 B1 1.0000000
  HONO-1 :    2 B2 1.0000000
  HONO-0 :    2 B1 1.0000000
  LUNO+0 :    7 A1 0.0000086
  LUNO+1 :    3 B2 0.0000021
  LUNO+2 :    8 A1 0.0000020
  LUNO+3 :    9 A1 0.0000003

Computation Completed

Properties will be evaluated at   0.000000,   0.000000,   0.000000 [a0]

Properties computed using the SCF density matrix

 Multipole Moments:

 ------------------------------------------------------------------------------------
     Multipole            Electronic (a.u.)      Nuclear  (a.u.)        Total (a.u.)
 ------------------------------------------------------------------------------------

 L = 1.  Multiply by 2.5417464519 to convert [e a0] to [Debye]
 Dipole X            :          0.0000000            0.0000000            0.0000000
 Dipole Y            :          0.0000000            0.0000000            0.0000000
 Dipole Z            :         -1.4623876           -0.7398504           -2.2022380
 Magnitude           :                                                    2.2022380

 ------------------------------------------------------------------------------------

*** tstop() called on Joses-MacBook-Pro-2.local at Thu Jul 17 13:33:59 2025
Module time:
	user time   =       2.52 seconds =       0.04 minutes
	system time =       3.06 seconds =       0.05 minutes
	total time  =          0 seconds =       0.00 minutes
Total time:
	user time   =      61.50 seconds =       1.02 minutes
	system time =      88.34 seconds =       1.47 minutes
	total time  =         15 seconds =       0.25 minutes

*** tstart() called on Joses-MacBook-Pro-2.local
*** at Thu Jul 17 13:33:59 2025

         ------------------------------------------------------------
                                   SCF GRAD
                          Rob Parrish, Justin Turney,
                       Andy Simmonett, and Alex Sokolov
         ------------------------------------------------------------

  ==> Geometry <==

    Molecular point group: c2v
    Full point group: C_inf_v

    Geometry (in Angstrom), charge = 1, multiplicity = 6:

       Center              X                  Y                   Z               Mass
    ------------   -----------------  -----------------  -----------------  -----------------
         B            0.000000000000     0.000000000000     1.462704413485    11.009305360000
         NA           0.000000000000     0.000000000000    -0.700457640177    22.989769282000

  Nuclear repulsion =   13.454723162136585

  ==> Basis Set <==

  Basis Set: CC-PVDZ
    Blend: CC-PVDZ
    Number of shells: 14
    Number of basis functions: 32
    Number of Cartesian functions: 34
    Spherical Harmonics?: true
    Max angular momentum: 2

  ==> DFJKGrad: Density-Fitted SCF Gradients <==

    Gradient:                    1
    J tasked:                  Yes
    K tasked:                  Yes
    wK tasked:                  No
    OpenMP threads:              1
    Integrals threads:           1
    Memory [MiB]:              375
    Schwarz Cutoff:          1E-12
    Fitting Condition:       1E-10

   => Auxiliary Basis Set <=

  Basis Set: (CC-PVDZ AUX)
    Blend: CC-PVDZ-JKFIT + DEF2-UNIVERSAL-JKFIT
    Number of shells: 58
    Number of basis functions: 182
    Number of Cartesian functions: 218
    Spherical Harmonics?: true
    Max angular momentum: 4

  ==> DFT Potential <==

   => LibXC <=

    Version 6.2.2
    S. Lehtola, C. Steigemann, M. J.T. Oliveira, and M. A.L. Marques.,  SoftwareX 7, 1â€“5 (2018) (10.1016/j.softx.2017.11.002)

   => Composite Functional: B3LYP <=

    B3LYP Hyb-GGA Exchange-Correlation Functional

    P. J. Stephens, F. J. Devlin, C. F. Chabalowski, and M. J. Frisch.,  J. Phys. Chem. 98, 11623 (1994) (10.1021/j100096a001)

    Deriv               =              1
    GGA                 =           TRUE
    Meta                =          FALSE

    Exchange Hybrid     =           TRUE
    MP2 Hybrid          =          FALSE

   => Exchange Functionals <=

    0.0800   Slater exchange
    0.7200         Becke 88

   => Exact (HF) Exchange <=

    0.2000               HF

   => Correlation Functionals <=

    0.1900   Vosko, Wilk & Nusair (VWN5_RPA)
    0.8100   Lee, Yang & Parr

   => LibXC Density Thresholds  <==

    XC_HYB_GGA_XC_B3LYP:  1.00E-15

   => Molecular Quadrature <=

    Radial Scheme          =       TREUTLER
    Pruning Scheme         =           NONE
    Nuclear Scheme         =       TREUTLER

    Blocking Scheme        =         OCTREE
    BS radius alpha        =              1
    Pruning alpha          =              1
    Radial Points          =             75
    Spherical Points       =            302
    Total Points           =          43808
    Total Blocks           =            433
    Max Points             =            255
    Max Functions          =             32
    Weights Tolerance      =       1.00E-15

  -Total Gradient:
     Atom            X                  Y                   Z
    ------   -----------------  -----------------  -----------------
       1        0.000000000000    -0.000000000000    -0.000027827218
       2        0.000000000000    -0.000000000000     0.000013609052

*** tstop() called on Joses-MacBook-Pro-2.local at Thu Jul 17 13:34:00 2025
Module time:
	user time   =       1.57 seconds =       0.03 minutes
	system time =       1.62 seconds =       0.03 minutes
	total time  =          1 seconds =       0.02 minutes
Total time:
	user time   =      63.08 seconds =       1.05 minutes
	system time =      89.96 seconds =       1.50 minutes
	total time  =         16 seconds =       0.27 minutes

    			-----------------------------------------

    			 OPTKING 3.0: for geometry optimizations

    			     By R.A. King, Bethel University

    			        with contributions from

    			    A.V. Copan, J. Cayton, A. Heide

    			-----------------------------------------

	                            ===> Fragment 1 <==

	 Z (Atomic Numbers)          Masses                          Geom
	       5.000000            11.009305          0.00000000  0.00000000  2.76411074
	      11.000000            22.989769          0.00000000  0.00000000 -1.32367310

	 - Coordinate -           - BOHR/RAD -       - ANG/DEG -
	 R(1,2)           =         4.087784           2.163162

	        --- Internal Coordinate Step in ANG or DEG, aJ/ANG or AJ/DEG ---
	-------------------------------------------------------------------------------
	           Coordinate      Previous         Force          Change          New
	           ----------      --------        ------          ------        ------
	               R(1,2)       2.16316        0.00017        0.00025       2.16341
	-------------------------------------------------------------------------------

	                                 ==> Convergence Check <==

	Measures of convergence in internal coordinates in au.

	Criteria marked as inactive (o), active & met (*), and active & unmet ( ).

	----------------------------------------------------------------------------------------------
	   Step    Total Energy     Delta E     Max Force     RMS Force      Max Disp      RMS Disp
	----------------------------------------------------------------------------------------------
	  Convergence Criteria     1.00e-06 *    3.00e-04 *             o    1.20e-03 *             o
	----------------------------------------------------------------------------------------------
	    14    -185.30094597   -1.16e-07 *    2.07e-05 *    2.07e-05 o    4.68e-04 *    4.68e-04 o  ~
	----------------------------------------------------------------------------------------------

Next Geometry in Ang
	Fragment 1 (Ang)

	    B   0.0000000000   0.0000000000   1.4628283672
	   Na   0.0000000000   0.0000000000  -0.7005815939

    Final optimized geometry and variables:
    Molecular point group: c2v
    Full point group: C_inf_v

    Geometry (in Angstrom), charge = 1, multiplicity = 6:

    B            0.000000000000     0.000000000000     1.462704413485
    NA           0.000000000000     0.000000000000    -0.700457640177

    Psi4 stopped on: Thursday, 17 July 2025 01:34PM
    Psi4 wall time for execution: 0:00:16.70

*** Psi4 exiting successfully. Buy a developer a beer!
