                               Psi4 1.9.1 release

  ==> Input File <==

--------------------------------------------------------------------------
molecule {
1 6
Be   0.00000        0.60000        0.00000
S   0.00000       -0.60000        0.00000
}

set {
basis              cc-pvdz
reference          uks
maxiter            500
geom_maxiter       500
DAMPING_PERCENTAGE 1
guess              SAP
}

optimize('b3lyp')
--------------------------------------------------------------------------

    Molecular point group: c2v
  Charge       = 1
  Multiplicity = 6
  Basis Set: CC-PVDZ
    Blend: CC-PVDZ
  Basis Set: (CC-PVDZ AUX)
    Blend: CC-PVDZ-JKFIT + DEF2-UNIVERSAL-JKFIT
  @DF-UKS Final Energy:  -411.61646599246751
    Total Energy =                       -411.6164659924675107
 Dipole X            :          0.0000000            0.0000000            0.0000000
 Dipole Y            :          0.0000000            0.0000000            0.0000000
 Dipole Z            :         -0.3530723           -0.9022516           -1.2553239
 Magnitude           :                                                    1.2553239
    Molecular point group: c2v
  Basis Set: CC-PVDZ
    Blend: CC-PVDZ
  Basis Set: (CC-PVDZ AUX)
    Blend: CC-PVDZ-JKFIT + DEF2-UNIVERSAL-JKFIT
  Basis Set: CC-PVDZ
    Blend: CC-PVDZ
  Basis Set: (CC-PVDZ AUX)
    Blend: CC-PVDZ-JKFIT + DEF2-UNIVERSAL-JKFIT
  @DF-UKS Final Energy:  -411.86744486552158
    Total Energy =                       -411.8674448655215770
  Basis Set: CC-PVDZ
    Blend: CC-PVDZ
  Basis Set: (CC-PVDZ AUX)
    Blend: CC-PVDZ-JKFIT + DEF2-UNIVERSAL-JKFIT
  Basis Set: CC-PVDZ
    Blend: CC-PVDZ
  @DF-UKS Final Energy:  -412.03197366779568
    Total Energy =                       -412.0319736677956826
  @DF-UKS Final Energy:  -412.12912349606682
    Total Energy =                       -412.1291234960668248
  @DF-UKS Final Energy:  -412.18884552635217
    Total Energy =                       -412.1888455263521678
  @DF-UKS Final Energy:  -412.23370677643487
    Total Energy =                       -412.2337067764348717
  @DF-UKS Final Energy:  -412.27036417070462
    Total Energy =                       -412.2703641707046245
  @DF-UKS Final Energy:  -412.27544767132906
    Total Energy =                       -412.2754476713291183
  @DF-UKS Final Energy:  -412.29837812531906
    Total Energy =                       -412.2983781253190045
  @DF-UKS Final Energy:  -412.29995904331253
    Total Energy =                       -412.2999590433125263
  @DF-UKS Final Energy:  -412.31008628848650
    Total Energy =                       -412.3100862884865023
  @DF-UKS Final Energy:  -412.31051704192373
    Total Energy =                       -412.3105170419237879
  @DF-UKS Final Energy:  -412.31507259434045
    Total Energy =                       -412.3150725943404495
  @DF-UKS Final Energy:  -412.31518283165968
    Total Energy =                       -412.3151828316596834
  @DF-UKS Final Energy:  -412.31723582102029
    Total Energy =                       -412.3172358210202901
  @DF-UKS Final Energy:  -412.31726282210332
    Total Energy =                       -412.3172628221032596
  @DF-UKS Final Energy:  -412.31818492442096
    Total Energy =                       -412.3181849244209047
  @DF-UKS Final Energy:  -412.31819134732802
    Total Energy =                       -412.3181913473280247
  @DF-UKS Final Energy:  -412.31819767386099
    Total Energy =                       -412.3181976738609933
  @DF-UKS Final Energy:  -412.31860938909915
    Total Energy =                       -412.3186093890992083
  @DF-UKS Final Energy:  -412.31876870938709
    Total Energy =                       -412.3187687093870295
  @DF-UKS Final Energy:  -412.31886889323437
    Total Energy =                       -412.3188688932343098
  Basis Set: (CC-PVDZ AUX)
    Blend: CC-PVDZ-JKFIT + DEF2-UNIVERSAL-JKFIT
  Basis Set: CC-PVDZ
    Blend: CC-PVDZ
  Basis Set: (CC-PVDZ AUX)
    Blend: CC-PVDZ-JKFIT + DEF2-UNIVERSAL-JKFIT
  @DF-UKS Final Energy:  -412.31893461694114
    Total Energy =                       -412.3189346169411351
  Basis Set: CC-PVDZ
    Blend: CC-PVDZ
  Basis Set: (CC-PVDZ AUX)
    Blend: CC-PVDZ-JKFIT + DEF2-UNIVERSAL-JKFIT
  Charge       = 1
  Multiplicity = 6
  Basis Set: CC-PVDZ
    Blend: CC-PVDZ
  Basis Set: (CC-PVDZ AUX)
    Blend: CC-PVDZ-JKFIT + DEF2-UNIVERSAL-JKFIT

    Orbital Energies [Eh]
    ---------------------

    Alpha Occupied:

       1A1   -89.373133     2A1    -8.424813     1B1    -6.389673
       3A1    -6.389673     1B2    -6.389669     4A1    -4.216369
       5A1    -1.128265     6A1    -0.699417     2B1    -0.699392
       2B2    -0.699293     7A1    -0.371202     3B2    -0.237871

    Alpha Virtual:

       8A1    -0.172044     3B1    -0.164904     9A1     0.035450
       4B2     0.067777     4B1     0.086983    10A1     0.094004
      11A1     0.122560     5B2     0.145255     5B1     0.145260
      12A1     0.151057     1A2     0.151818    13A1     0.151822
       6B1     0.151964     6B2     0.151992    14A1     0.185430
       7B2     0.339670     2A2     0.342789    15A1     0.347697
       7B1     0.358385    16A1     0.358767

    Beta Occupied:

       1A1   -89.354346     2A1    -8.405854     1B1    -6.361377
       3A1    -6.361372     1B2    -6.361368     4A1    -4.197846
       5A1    -0.981173

    Beta Virtual:

       6A1    -0.515420     2B1    -0.515255     2B2    -0.515132
       7A1    -0.219004     8A1    -0.109864     3B1    -0.101744
       3B2    -0.072359     9A1     0.077222     4B1     0.113340
      10A1     0.133933     4B2     0.138692    11A1     0.170681
       5B1     0.194297     5B2     0.194840    12A1     0.228069
       1A2     0.270418     6B1     0.270419    13A1     0.270422
       6B2     0.270512    14A1     0.273466    15A1     0.424767
       7B1     0.424823     7B2     0.453513     2A2     0.455772
      16A1     0.462318

    Final Occupation by Irrep:
             A1    A2    B1    B2
    DOCC [     5,    0,    1,    1 ]
    SOCC [     2,    0,    1,    2 ]
    NA   [     7,    0,    2,    3 ]
    NB   [     5,    0,    1,    1 ]

  @DF-UKS Final Energy:  -412.31899237342810

   => Energetics <=

    Nuclear Repulsion Energy =              6.4893885798463327
    One-Electron Energy =                -574.4353200183746821
    Two-Electron Energy =                 178.2809386284708353
    DFT Exchange-Correlation Energy =     -22.6539995633706432
    Empirical Dispersion Energy =           0.0000000000000000
    VV10 Nonlocal Energy =                  0.0000000000000000
    Total Energy =                       -412.3189923734281024

  UHF NO Occupations:
  HONO-2 :    7 A1 1.0000000
  HONO-1 :    3 B2 1.0000000
  HONO-0 :    2 B1 1.0000000
  LUNO+0 :    8 A1 0.0001936
  LUNO+1 :    9 A1 0.0000007
  LUNO+2 :   10 A1 0.0000000
  LUNO+3 :    3 B1 0.0000000

Computation Completed

Properties will be evaluated at   0.000000,   0.000000,   0.000000 [a0]

Properties computed using the SCF density matrix

 Multipole Moments:

 ------------------------------------------------------------------------------------
     Multipole            Electronic (a.u.)      Nuclear  (a.u.)        Total (a.u.)
 ------------------------------------------------------------------------------------

 L = 1.  Multiply by 2.5417464519 to convert [e a0] to [Debye]
 Dipole X            :          0.0000000            0.0000000            0.0000000
 Dipole Y            :          0.0000000            0.0000000            0.0000000
 Dipole Z            :          2.0585500           -3.9239526           -1.8654026
 Magnitude           :                                                    1.8654026

 ------------------------------------------------------------------------------------

*** tstop() called on Joses-MacBook-Pro-2.local at Thu Jul 17 13:25:02 2025
Module time:
	user time   =       2.06 seconds =       0.03 minutes
	system time =       3.82 seconds =       0.06 minutes
	total time  =          1 seconds =       0.02 minutes
Total time:
	user time   =      83.95 seconds =       1.40 minutes
	system time =     139.31 seconds =       2.32 minutes
	total time  =         22 seconds =       0.37 minutes

*** tstart() called on Joses-MacBook-Pro-2.local
*** at Thu Jul 17 13:25:02 2025

         ------------------------------------------------------------
                                   SCF GRAD
                          Rob Parrish, Justin Turney,
                       Andy Simmonett, and Alex Sokolov
         ------------------------------------------------------------

  ==> Geometry <==

    Molecular point group: c2v
    Full point group: C_inf_v

    Geometry (in Angstrom), charge = 1, multiplicity = 6:

       Center              X                  Y                   Z               Mass
    ------------   -----------------  -----------------  -----------------  -----------------
         BE           0.000000000000     0.000000000000     4.071280833947     9.012183065000
         S            0.000000000000     0.000000000000    -1.147599352710    31.972071174400

  Nuclear repulsion =    6.489388579846333

  ==> Basis Set <==

  Basis Set: CC-PVDZ
    Blend: CC-PVDZ
    Number of shells: 14
    Number of basis functions: 32
    Number of Cartesian functions: 34
    Spherical Harmonics?: true
    Max angular momentum: 2

  ==> DFJKGrad: Density-Fitted SCF Gradients <==

    Gradient:                    1
    J tasked:                  Yes
    K tasked:                  Yes
    wK tasked:                  No
    OpenMP threads:              1
    Integrals threads:           1
    Memory [MiB]:              375
    Schwarz Cutoff:          1E-12
    Fitting Condition:       1E-10

   => Auxiliary Basis Set <=

  Basis Set: (CC-PVDZ AUX)
    Blend: CC-PVDZ-JKFIT + DEF2-UNIVERSAL-JKFIT
    Number of shells: 53
    Number of basis functions: 163
    Number of Cartesian functions: 190
    Spherical Harmonics?: true
    Max angular momentum: 3

  ==> DFT Potential <==

   => LibXC <=

    Version 6.2.2
    S. Lehtola, C. Steigemann, M. J.T. Oliveira, and M. A.L. Marques.,  SoftwareX 7, 1â€“5 (2018) (10.1016/j.softx.2017.11.002)

   => Composite Functional: B3LYP <=

    B3LYP Hyb-GGA Exchange-Correlation Functional

    P. J. Stephens, F. J. Devlin, C. F. Chabalowski, and M. J. Frisch.,  J. Phys. Chem. 98, 11623 (1994) (10.1021/j100096a001)

    Deriv               =              1
    GGA                 =           TRUE
    Meta                =          FALSE

    Exchange Hybrid     =           TRUE
    MP2 Hybrid          =          FALSE

   => Exchange Functionals <=

    0.0800   Slater exchange
    0.7200         Becke 88

   => Exact (HF) Exchange <=

    0.2000               HF

   => Correlation Functionals <=

    0.1900   Vosko, Wilk & Nusair (VWN5_RPA)
    0.8100   Lee, Yang & Parr

   => LibXC Density Thresholds  <==

    XC_HYB_GGA_XC_B3LYP:  1.00E-15

   => Molecular Quadrature <=

    Radial Scheme          =       TREUTLER
    Pruning Scheme         =           NONE
    Nuclear Scheme         =       TREUTLER

    Blocking Scheme        =         OCTREE
    BS radius alpha        =              1
    Pruning alpha          =              1
    Radial Points          =             75
    Spherical Points       =            302
    Total Points           =          42942
    Total Blocks           =            449
    Max Points             =            256
    Max Functions          =             32
    Weights Tolerance      =       1.00E-15

  -Total Gradient:
     Atom            X                  Y                   Z
    ------   -----------------  -----------------  -----------------
       1        0.000000000000     0.000000000000    -0.000091048044
       2        0.000000000000    -0.000000000000     0.000089618949

*** tstop() called on Joses-MacBook-Pro-2.local at Thu Jul 17 13:25:02 2025
Module time:
	user time   =       1.03 seconds =       0.02 minutes
	system time =       1.19 seconds =       0.02 minutes
	total time  =          0 seconds =       0.00 minutes
Total time:
	user time   =      84.98 seconds =       1.42 minutes
	system time =     140.51 seconds =       2.34 minutes
	total time  =         22 seconds =       0.37 minutes

    			-----------------------------------------

    			 OPTKING 3.0: for geometry optimizations

    			     By R.A. King, Bethel University

    			        with contributions from

    			    A.V. Copan, J. Cayton, A. Heide

    			-----------------------------------------

	                            ===> Fragment 1 <==

	 Z (Atomic Numbers)          Masses                          Geom
	       4.000000             9.012183          0.00000000  0.00000000  7.69360576
	      16.000000            31.972071          0.00000000  0.00000000 -2.16864848

	 - Coordinate -           - BOHR/RAD -       - ANG/DEG -
	 R(1,2)           =         9.862254           5.218880

	        --- Internal Coordinate Step in ANG or DEG, aJ/ANG or AJ/DEG ---
	-------------------------------------------------------------------------------
	           Coordinate      Previous         Force          Change          New
	           ----------      --------        ------          ------        ------
	               R(1,2)       5.21888        0.00074        0.00030       5.21918
	-------------------------------------------------------------------------------

	                                 ==> Convergence Check <==

	Measures of convergence in internal coordinates in au.

	Criteria marked as inactive (o), active & met (*), and active & unmet ( ).

	----------------------------------------------------------------------------------------------
	   Step    Total Energy     Delta E     Max Force     RMS Force      Max Disp      RMS Disp
	----------------------------------------------------------------------------------------------
	  Convergence Criteria     1.00e-06 *    3.00e-04 *             o    1.20e-03 *             o
	----------------------------------------------------------------------------------------------
	    24    -412.31899237   -5.78e-05      9.03e-05 *    9.03e-05 o    5.69e-04 *    5.69e-04 o  ~
	----------------------------------------------------------------------------------------------

Next Geometry in Ang
	Fragment 1 (Ang)

	   Be   0.0000000000   0.0000000000   4.0714314241
	    S   0.0000000000   0.0000000000  -1.1477499429

    Final optimized geometry and variables:
    Molecular point group: c2v
    Full point group: C_inf_v

    Geometry (in Angstrom), charge = 1, multiplicity = 6:

    BE           0.000000000000     0.000000000000     4.071280833947
    S            0.000000000000     0.000000000000    -1.147599352710

    Psi4 stopped on: Thursday, 17 July 2025 01:25PM
    Psi4 wall time for execution: 0:00:22.54

*** Psi4 exiting successfully. Buy a developer a beer!
