                               Psi4 1.9.1 release

  ==> Input File <==

--------------------------------------------------------------------------
molecule {
1 6
Li   0.00000        0.60000        0.00000
P   0.00000       -0.60000        0.00000
}

set {
basis              cc-pvdz
reference          uks
maxiter            500
geom_maxiter       500
DAMPING_PERCENTAGE 1
guess              SAP
}

optimize('b3lyp')
--------------------------------------------------------------------------

    Molecular point group: c2v
  Charge       = 1
  Multiplicity = 6
  Basis Set: CC-PVDZ
    Blend: CC-PVDZ
  Basis Set: (CC-PVDZ AUX)
    Blend: CC-PVDZ-JKFIT + DEF2-UNIVERSAL-JKFIT
  @DF-UKS Final Energy:  -347.57434330004799
    Total Energy =                       -347.5743433000480422
 Dipole X            :          0.0000000            0.0000000            0.0000000
 Dipole Y            :          0.0000000            0.0000000            0.0000000
 Dipole Z            :         -0.7189122           -0.7353273           -1.4542395
 Magnitude           :                                                    1.4542395
    Molecular point group: c2v
  Basis Set: CC-PVDZ
    Blend: CC-PVDZ
  Basis Set: (CC-PVDZ AUX)
    Blend: CC-PVDZ-JKFIT + DEF2-UNIVERSAL-JKFIT
  Basis Set: CC-PVDZ
    Blend: CC-PVDZ
  Basis Set: (CC-PVDZ AUX)
    Blend: CC-PVDZ-JKFIT + DEF2-UNIVERSAL-JKFIT
  @DF-UKS Final Energy:  -347.70307001588014
    Total Energy =                       -347.7030700158801437
  Basis Set: CC-PVDZ
    Blend: CC-PVDZ
  Basis Set: (CC-PVDZ AUX)
    Blend: CC-PVDZ-JKFIT + DEF2-UNIVERSAL-JKFIT
  Basis Set: CC-PVDZ
    Blend: CC-PVDZ
  @DF-UKS Final Energy:  -347.83343980286134
    Total Energy =                       -347.8334398028613350
  @DF-UKS Final Energy:  -347.94623224473168
    Total Energy =                       -347.9462322447316751
  @DF-UKS Final Energy:  -348.01531113391269
    Total Energy =                       -348.0153111339126895
  @DF-UKS Final Energy:  -348.05981424275870
    Total Energy =                       -348.0598142427587049
  @DF-UKS Final Energy:  -348.09465996019975
    Total Energy =                       -348.0946599601997491
  @DF-UKS Final Energy:  -348.10351785549665
    Total Energy =                       -348.1035178554967047
  @DF-UKS Final Energy:  -348.13779400075663
    Total Energy =                       -348.1377940007566281
  @DF-UKS Final Energy:  -348.14237006846173
    Total Energy =                       -348.1423700684617302
  @DF-UKS Final Energy:  -348.15943882903781
    Total Energy =                       -348.1594388290378106
  @DF-UKS Final Energy:  -348.16095827975732
    Total Energy =                       -348.1609582797574376
  @DF-UKS Final Energy:  -348.16845423840994
    Total Energy =                       -348.1684542384099359
  @DF-UKS Final Energy:  -348.16885408412827
    Total Energy =                       -348.1688540841282702
  @DF-UKS Final Energy:  -348.17188518011665
    Total Energy =                       -348.1718851801166466
  @DF-UKS Final Energy:  -348.17196456828952
    Total Energy =                       -348.1719645682895248
  @DF-UKS Final Energy:  -348.17291297571472
    Total Energy =                       -348.1729129757147234
  @DF-UKS Final Energy:  -348.17307235102191
    Total Energy =                       -348.1730723510219150
  Basis Set: (CC-PVDZ AUX)
    Blend: CC-PVDZ-JKFIT + DEF2-UNIVERSAL-JKFIT
  Basis Set: CC-PVDZ
    Blend: CC-PVDZ
  Basis Set: (CC-PVDZ AUX)
    Blend: CC-PVDZ-JKFIT + DEF2-UNIVERSAL-JKFIT
  @DF-UKS Final Energy:  -348.17309305014106
    Total Energy =                       -348.1730930501411194
  Basis Set: CC-PVDZ
    Blend: CC-PVDZ
  Basis Set: (CC-PVDZ AUX)
    Blend: CC-PVDZ-JKFIT + DEF2-UNIVERSAL-JKFIT
  Charge       = 1
  Multiplicity = 6
  Basis Set: CC-PVDZ
    Blend: CC-PVDZ
  Basis Set: (CC-PVDZ AUX)
    Blend: CC-PVDZ-JKFIT + DEF2-UNIVERSAL-JKFIT

    Orbital Energies [Eh]
    ---------------------

    Alpha Occupied:

       1A1   -77.542749     2A1    -7.004773     1B2    -5.169106
       1B1    -5.169106     3A1    -5.169033     4A1    -2.157916
       5A1    -0.969250     2B2    -0.601488     2B1    -0.601488
       6A1    -0.600462     7A1    -0.258162

    Alpha Virtual:

       8A1    -0.144982     3B2    -0.139958     3B1    -0.139958
       9A1    -0.064671     4B1    -0.030326     4B2    -0.030326
      10A1    -0.006158    11A1     0.051799     5B2     0.077111
       5B1     0.077111    12A1     0.082666     1A2     0.082687
       6B1     0.095442     6B2     0.095442    13A1     0.095781
      14A1     0.100379     2A2     0.109919    15A1     0.109920
       7B1     0.141500     7B2     0.141500    16A1     0.248696

    Beta Occupied:

       1A1   -77.518528     2A1    -6.975078     1B2    -5.135960
       1B1    -5.135960     3A1    -5.135698     4A1    -2.151437

    Beta Virtual:

       5A1    -0.685374     2B2    -0.362268     2B1    -0.362268
       6A1    -0.361605     7A1    -0.172178     8A1    -0.113905
       3B1    -0.106070     3B2    -0.106070     9A1    -0.029098
       4B1    -0.016872     4B2    -0.016872    10A1     0.003581
      11A1     0.111441     5B1     0.135634     5B2     0.135634
       1A2     0.147700    12A1     0.147704    13A1     0.179967
       6B1     0.212892     6B2     0.212892    14A1     0.255598
      15A1     0.259261     2A2     0.259274     7B1     0.263033
       7B2     0.263033    16A1     0.327702

    Final Occupation by Irrep:
             A1    A2    B1    B2
    DOCC [     4,    0,    1,    1 ]
    SOCC [     3,    0,    1,    1 ]
    NA   [     7,    0,    2,    2 ]
    NB   [     4,    0,    1,    1 ]

  @DF-UKS Final Energy:  -348.17309355170050

   => Energetics <=

    Nuclear Repulsion Energy =              5.3723263252434581
    One-Electron Energy =                -485.5783787157287179
    Two-Electron Energy =                 151.9911306544571232
    DFT Exchange-Correlation Energy =     -19.9581718156724222
    Empirical Dispersion Energy =           0.0000000000000000
    VV10 Nonlocal Energy =                  0.0000000000000000
    Total Energy =                       -348.1730935517005605

  UHF NO Occupations:
  HONO-2 :    2 B1 1.0000000
  HONO-1 :    7 A1 1.0000000
  HONO-0 :    2 B2 1.0000000
  LUNO+0 :    8 A1 0.0000006
  LUNO+1 :    3 B2 0.0000001
  LUNO+2 :    3 B1 0.0000001
  LUNO+3 :    9 A1 0.0000001

Computation Completed

Properties will be evaluated at   0.000000,   0.000000,   0.000000 [a0]

Properties computed using the SCF density matrix

 Multipole Moments:

 ------------------------------------------------------------------------------------
     Multipole            Electronic (a.u.)      Nuclear  (a.u.)        Total (a.u.)
 ------------------------------------------------------------------------------------

 L = 1.  Multiply by 2.5417464519 to convert [e a0] to [Debye]
 Dipole X            :          0.0000000            0.0000000            0.0000000
 Dipole Y            :          0.0000000            0.0000000            0.0000000
 Dipole Z            :          2.8258770           -2.7161310            0.1097460
 Magnitude           :                                                    0.1097460

 ------------------------------------------------------------------------------------

*** tstop() called on Joses-MacBook-Pro-2.local at Thu Jul 17 12:55:55 2025
Module time:
	user time   =       2.13 seconds =       0.04 minutes
	system time =       3.00 seconds =       0.05 minutes
	total time  =          0 seconds =       0.00 minutes
Total time:
	user time   =      88.20 seconds =       1.47 minutes
	system time =     100.89 seconds =       1.68 minutes
	total time  =         19 seconds =       0.32 minutes

*** tstart() called on Joses-MacBook-Pro-2.local
*** at Thu Jul 17 12:55:55 2025

         ------------------------------------------------------------
                                   SCF GRAD
                          Rob Parrish, Justin Turney,
                       Andy Simmonett, and Alex Sokolov
         ------------------------------------------------------------

  ==> Geometry <==

    Molecular point group: c2v
    Full point group: C_inf_v

    Geometry (in Angstrom), charge = 1, multiplicity = 6:

       Center              X                  Y                   Z               Mass
    ------------   -----------------  -----------------  -----------------  -----------------
         LI           0.000000000000     0.000000000000     3.613920601136     7.016003436600
         P            0.000000000000     0.000000000000    -0.818605094159    30.973761998420

  Nuclear repulsion =    5.372326325243458

  ==> Basis Set <==

  Basis Set: CC-PVDZ
    Blend: CC-PVDZ
    Number of shells: 14
    Number of basis functions: 32
    Number of Cartesian functions: 34
    Spherical Harmonics?: true
    Max angular momentum: 2

  ==> DFJKGrad: Density-Fitted SCF Gradients <==

    Gradient:                    1
    J tasked:                  Yes
    K tasked:                  Yes
    wK tasked:                  No
    OpenMP threads:              1
    Integrals threads:           1
    Memory [MiB]:              375
    Schwarz Cutoff:          1E-12
    Fitting Condition:       1E-10

   => Auxiliary Basis Set <=

  Basis Set: (CC-PVDZ AUX)
    Blend: CC-PVDZ-JKFIT + DEF2-UNIVERSAL-JKFIT
    Number of shells: 53
    Number of basis functions: 163
    Number of Cartesian functions: 190
    Spherical Harmonics?: true
    Max angular momentum: 3

  ==> DFT Potential <==

   => LibXC <=

    Version 6.2.2
    S. Lehtola, C. Steigemann, M. J.T. Oliveira, and M. A.L. Marques.,  SoftwareX 7, 1â€“5 (2018) (10.1016/j.softx.2017.11.002)

   => Composite Functional: B3LYP <=

    B3LYP Hyb-GGA Exchange-Correlation Functional

    P. J. Stephens, F. J. Devlin, C. F. Chabalowski, and M. J. Frisch.,  J. Phys. Chem. 98, 11623 (1994) (10.1021/j100096a001)

    Deriv               =              1
    GGA                 =           TRUE
    Meta                =          FALSE

    Exchange Hybrid     =           TRUE
    MP2 Hybrid          =          FALSE

   => Exchange Functionals <=

    0.0800   Slater exchange
    0.7200         Becke 88

   => Exact (HF) Exchange <=

    0.2000               HF

   => Correlation Functionals <=

    0.1900   Vosko, Wilk & Nusair (VWN5_RPA)
    0.8100   Lee, Yang & Parr

   => LibXC Density Thresholds  <==

    XC_HYB_GGA_XC_B3LYP:  1.00E-15

   => Molecular Quadrature <=

    Radial Scheme          =       TREUTLER
    Pruning Scheme         =           NONE
    Nuclear Scheme         =       TREUTLER

    Blocking Scheme        =         OCTREE
    BS radius alpha        =              1
    Pruning alpha          =              1
    Radial Points          =             75
    Spherical Points       =            302
    Total Points           =          44408
    Total Blocks           =            460
    Max Points             =            252
    Max Functions          =             32
    Weights Tolerance      =       1.00E-15

  -Total Gradient:
     Atom            X                  Y                   Z
    ------   -----------------  -----------------  -----------------
       1       -0.000000000000     0.000000000000    -0.000006611498
       2        0.000000000000     0.000000000000     0.000015448332

*** tstop() called on Joses-MacBook-Pro-2.local at Thu Jul 17 12:55:55 2025
Module time:
	user time   =       0.94 seconds =       0.02 minutes
	system time =       1.34 seconds =       0.02 minutes
	total time  =          0 seconds =       0.00 minutes
Total time:
	user time   =      89.14 seconds =       1.49 minutes
	system time =     102.23 seconds =       1.70 minutes
	total time  =         19 seconds =       0.32 minutes

    			-----------------------------------------

    			 OPTKING 3.0: for geometry optimizations

    			     By R.A. King, Bethel University

    			        with contributions from

    			    A.V. Copan, J. Cayton, A. Heide

    			-----------------------------------------

	                            ===> Fragment 1 <==

	 Z (Atomic Numbers)          Masses                          Geom
	       3.000000             7.016003          0.00000000  0.00000000  6.82932018
	      15.000000            30.973762          0.00000000  0.00000000 -1.54693943

	 - Coordinate -           - BOHR/RAD -       - ANG/DEG -
	 R(1,2)           =         8.376260           4.432526

	        --- Internal Coordinate Step in ANG or DEG, aJ/ANG or AJ/DEG ---
	-------------------------------------------------------------------------------
	           Coordinate      Previous         Force          Change          New
	           ----------      --------        ------          ------        ------
	               R(1,2)       4.43253        0.00009        0.00171       4.43424
	-------------------------------------------------------------------------------

	                                 ==> Convergence Check <==

	Measures of convergence in internal coordinates in au.

	Criteria marked as inactive (o), active & met (*), and active & unmet ( ).

	----------------------------------------------------------------------------------------------
	   Step    Total Energy     Delta E     Max Force     RMS Force      Max Disp      RMS Disp
	----------------------------------------------------------------------------------------------
	  Convergence Criteria     1.00e-06 *    3.00e-04 *             o    1.20e-03 *             o
	----------------------------------------------------------------------------------------------
	    20    -348.17309355   -5.02e-07 *    1.10e-05 *    1.10e-05 o    3.24e-03      3.24e-03 o  ~
	----------------------------------------------------------------------------------------------

Next Geometry in Ang
	Fragment 1 (Ang)

	   Li   0.0000000000   0.0000000000   3.6147780500
	    P   0.0000000000   0.0000000000  -0.8194625431

    Final optimized geometry and variables:
    Molecular point group: c2v
    Full point group: C_inf_v

    Geometry (in Angstrom), charge = 1, multiplicity = 6:

    LI           0.000000000000     0.000000000000     3.613920601136
    P            0.000000000000     0.000000000000    -0.818605094159

    Psi4 stopped on: Thursday, 17 July 2025 12:55PM
    Psi4 wall time for execution: 0:00:19.70

*** Psi4 exiting successfully. Buy a developer a beer!
