                               Psi4 1.9.1 release

  ==> Input File <==

--------------------------------------------------------------------------
molecule {
1 6
O   0.00000        0.60000        0.00000
O   0.00000       -0.60000        0.00000
}

set {
basis              cc-pvdz
reference          uks
maxiter            500
geom_maxiter       500
DAMPING_PERCENTAGE 1
guess              SAP
}

optimize('b3lyp')
--------------------------------------------------------------------------

    Molecular point group: d2h
  Charge       = 1
  Multiplicity = 6
  Basis Set: CC-PVDZ
    Blend: CC-PVDZ
  Basis Set: (CC-PVDZ AUX)
    Blend: CC-PVDZ-JKFIT
  @DF-UKS Final Energy:  -149.17963466892800
    Total Energy =                       -149.1796346689279744
 Dipole X            :          0.0000000            0.0000000            0.0000000
 Dipole Y            :          0.0000000            0.0000000            0.0000000
 Dipole Z            :          0.0000000            0.0000000            0.0000000
 Magnitude           :                                                    0.0000000
    Molecular point group: d2h
  Basis Set: CC-PVDZ
    Blend: CC-PVDZ
  Basis Set: (CC-PVDZ AUX)
    Blend: CC-PVDZ-JKFIT
  Basis Set: CC-PVDZ
    Blend: CC-PVDZ
  Basis Set: (CC-PVDZ AUX)
    Blend: CC-PVDZ-JKFIT
  @DF-UKS Final Energy:  -149.50978452075333
    Total Energy =                       -149.5097845207533283
  Basis Set: CC-PVDZ
    Blend: CC-PVDZ
  Basis Set: (CC-PVDZ AUX)
    Blend: CC-PVDZ-JKFIT
  Basis Set: CC-PVDZ
    Blend: CC-PVDZ
  @DF-UKS Final Energy:  -149.58200385635740
    Total Energy =                       -149.5820038563574315
  @DF-UKS Final Energy:  -149.63378987082703
    Total Energy =                       -149.6337898708270018
  @DF-UKS Final Energy:  -149.65904569651781
    Total Energy =                       -149.6590456965178078
  @DF-UKS Final Energy:  -149.67242602249374
    Total Energy =                       -149.6724260224937382
  @DF-UKS Final Energy:  -149.67941934974067
    Total Energy =                       -149.6794193497406980
  @DF-UKS Final Energy:  -149.68351973835811
    Total Energy =                       -149.6835197383581146
  @DF-UKS Final Energy:  -149.68641987825339
    Total Energy =                       -149.6864198782533890
  @DF-UKS Final Energy:  -149.68917137176084
    Total Energy =                       -149.6891713717608354
  @DF-UKS Final Energy:  -149.68924116382775
    Total Energy =                       -149.6892411638277451
  @DF-UKS Final Energy:  -149.69315090293520
    Total Energy =                       -149.6931509029352014
  @DF-UKS Final Energy:  -149.69321936710719
    Total Energy =                       -149.6932193671071900
  @DF-UKS Final Energy:  -149.69693292174705
    Total Energy =                       -149.6969329217470488
  @DF-UKS Final Energy:  -149.69699577233368
    Total Energy =                       -149.6969957723336790
  @DF-UKS Final Energy:  -149.70000225592247
    Total Energy =                       -149.7000022559224988
  @DF-UKS Final Energy:  -149.70005240614250
    Total Energy =                       -149.7000524061424755
  @DF-UKS Final Energy:  -149.70247129586699
    Total Energy =                       -149.7024712958670136
  @DF-UKS Final Energy:  -149.70250987561138
    Total Energy =                       -149.7025098756113550
  @DF-UKS Final Energy:  -149.70450139382584
    Total Energy =                       -149.7045013938258080
  @DF-UKS Final Energy:  -149.71829176541223
    Total Energy =                       -149.7182917654122321
  @DF-UKS Final Energy:  -149.71829283154710
    Total Energy =                       -149.7182928315471031
  @DF-UKS Final Energy:  -149.71829389572810
    Total Energy =                       -149.7182938957281237
  @DF-UKS Final Energy:  -149.71829495937791
    Total Energy =                       -149.7182949593779142
  @DF-UKS Final Energy:  -149.71829602249545
    Total Energy =                       -149.7182960224954513
  @DF-UKS Final Energy:  -149.71829708508213
    Total Energy =                       -149.7182970850821278
  @DF-UKS Final Energy:  -149.71829814713860
    Total Energy =                       -149.7182981471385972
  @DF-UKS Final Energy:  -149.71829920866668
    Total Energy =                       -149.7182992086666786
  @DF-UKS Final Energy:  -149.71830026966231
    Total Energy =                       -149.7183002696622793
  @DF-UKS Final Energy:  -149.71830133013262
    Total Energy =                       -149.7183013301326184
  @DF-UKS Final Energy:  -149.71830239007147
    Total Energy =                       -149.7183023900714716
  @DF-UKS Final Energy:  -149.71830344948441
    Total Energy =                       -149.7183034494844378
  @DF-UKS Final Energy:  -149.71830450836902
    Total Energy =                       -149.7183045083689876
  @DF-UKS Final Energy:  -149.71830556672506
    Total Energy =                       -149.7183055667250642
  @DF-UKS Final Energy:  -149.71830662455577
    Total Energy =                       -149.7183066245557654
  @DF-UKS Final Energy:  -149.71830768186024
    Total Energy =                       -149.7183076818602672
  @DF-UKS Final Energy:  -149.71830873863655
    Total Energy =                       -149.7183087386365230
  @DF-UKS Final Energy:  -149.71830979488965
    Total Energy =                       -149.7183097948896773
  Basis Set: (CC-PVDZ AUX)
    Blend: CC-PVDZ-JKFIT
  Basis Set: CC-PVDZ
    Blend: CC-PVDZ
  Basis Set: (CC-PVDZ AUX)
    Blend: CC-PVDZ-JKFIT
  @DF-UKS Final Energy:  -149.71849252268905
    Total Energy =                       -149.7184925226890471
  Basis Set: CC-PVDZ
    Blend: CC-PVDZ
  Basis Set: (CC-PVDZ AUX)
    Blend: CC-PVDZ-JKFIT
  Charge       = 1
  Multiplicity = 6
  Basis Set: CC-PVDZ
    Blend: CC-PVDZ
  Basis Set: (CC-PVDZ AUX)
    Blend: CC-PVDZ-JKFIT

    Orbital Energies [Eh]
    ---------------------

    Alpha Occupied:

       1Ag   -19.636499     1B2u  -19.636499     2Ag    -1.330439
       2B2u   -1.330439     3Ag    -0.752249     3B2u   -0.752249
       1B1u   -0.752237     1B3g   -0.752237     1B3u   -0.712846
       1B1g   -0.712846

    Alpha Virtual:

       4Ag     0.564052     4B2u    0.564052     2B1u    0.564088
       2B3g    0.564088     2B1g    0.585834     2B3u    0.585834
       5Ag     0.799226     5B2u    0.799226     6Ag     2.140555
       6B2u    2.140555     3B1u    2.140555     3B3g    2.140555
       3B1g    2.169535     3B3u    2.169535     1Au     2.169543
       1B2g    2.169543     7Ag     2.179460     7B2u    2.179460

    Beta Occupied:

       1Ag   -19.569967     1B2u  -19.569967     2Ag    -1.127593
       2B2u   -1.127590     1B3u   -0.529851

    Beta Virtual:

       1B1g   -0.523815     3Ag    -0.441808     3B2u   -0.441808
       1B1u   -0.441790     1B3g   -0.441790     2B1g    0.657645
       2B3u    0.657645     4Ag     0.678837     4B2u    0.678837
       2B1u    0.678871     2B3g    0.678871     5Ag     0.897744
       5B2u    0.897745     3B3u    2.306873     3B1g    2.306876
       1B2g    2.306883     1Au     2.306884     6Ag     2.307868
       6B2u    2.307870     7Ag     2.322968     7B2u    2.322968
       3B1u    2.322968     3B3g    2.322968

    Final Occupation by Irrep:
             Ag   B1g   B2g   B3g    Au   B1u   B2u   B3u
    DOCC [     2,    0,    0,    0,    0,    0,    2,    1 ]
    SOCC [     1,    1,    0,    1,    0,    1,    1,    0 ]
    NA   [     3,    1,    0,    1,    0,    1,    3,    1 ]
    NB   [     2,    0,    0,    0,    0,    0,    2,    1 ]

  @DF-UKS Final Energy:  -149.71849349135897

   => Energetics <=

    Nuclear Repulsion Energy =              1.9327984815144199
    One-Electron Energy =                -205.4150460095934250
    Two-Electron Energy =                  67.1128495650677905
    DFT Exchange-Correlation Energy =     -13.3490955283478012
    Empirical Dispersion Energy =           0.0000000000000000
    VV10 Nonlocal Energy =                  0.0000000000000000
    Total Energy =                       -149.7184934913589984

  UHF NO Occupations:
  HONO-2 :    3B2u 1.0000000
  HONO-1 :    1B1g 1.0000000
  HONO-0 :    3 Ag 1.0000000
  LUNO+0 :    2B3u 0.0018142
  LUNO+1 :    4 Ag 0.0007353
  LUNO+2 :    4B2u 0.0007353
  LUNO+3 :    5 Ag 0.0000000

Computation Completed

Properties will be evaluated at   0.000000,   0.000000,   0.000000 [a0]

Properties computed using the SCF density matrix

 Multipole Moments:

 ------------------------------------------------------------------------------------
     Multipole            Electronic (a.u.)      Nuclear  (a.u.)        Total (a.u.)
 ------------------------------------------------------------------------------------

 L = 1.  Multiply by 2.5417464519 to convert [e a0] to [Debye]
 Dipole X            :          0.0000000            0.0000000            0.0000000
 Dipole Y            :          0.0000000            0.0000000            0.0000000
 Dipole Z            :          0.0000000            0.0000000            0.0000000
 Magnitude           :                                                    0.0000000

 ------------------------------------------------------------------------------------

*** tstop() called on Joses-MacBook-Pro-2.local at Thu Jul 17 14:01:12 2025
Module time:
	user time   =       0.54 seconds =       0.01 minutes
	system time =       1.60 seconds =       0.03 minutes
	total time  =          0 seconds =       0.00 minutes
Total time:
	user time   =     303.84 seconds =       5.06 minutes
	system time =     764.30 seconds =      12.74 minutes
	total time  =        106 seconds =       1.77 minutes

*** tstart() called on Joses-MacBook-Pro-2.local
*** at Thu Jul 17 14:01:12 2025

         ------------------------------------------------------------
                                   SCF GRAD
                          Rob Parrish, Justin Turney,
                       Andy Simmonett, and Alex Sokolov
         ------------------------------------------------------------

  ==> Geometry <==

    Molecular point group: d2h
    Full point group: D_inf_h

    Geometry (in Angstrom), charge = 1, multiplicity = 6:

       Center              X                  Y                   Z               Mass
    ------------   -----------------  -----------------  -----------------  -----------------
         O           -0.000000000000     8.761218980352     0.000000000000    15.994914619570
         O            0.000000000000    -8.761218980352     0.000000000000    15.994914619570

  Nuclear repulsion =    1.932798481514420

  ==> Basis Set <==

  Basis Set: CC-PVDZ
    Blend: CC-PVDZ
    Number of shells: 12
    Number of basis functions: 28
    Number of Cartesian functions: 30
    Spherical Harmonics?: true
    Max angular momentum: 2

  ==> DFJKGrad: Density-Fitted SCF Gradients <==

    Gradient:                    1
    J tasked:                  Yes
    K tasked:                  Yes
    wK tasked:                  No
    OpenMP threads:              1
    Integrals threads:           1
    Memory [MiB]:              375
    Schwarz Cutoff:          1E-12
    Fitting Condition:       1E-10

   => Auxiliary Basis Set <=

  Basis Set: (CC-PVDZ AUX)
    Blend: CC-PVDZ-JKFIT
    Number of shells: 48
    Number of basis functions: 140
    Number of Cartesian functions: 162
    Spherical Harmonics?: true
    Max angular momentum: 3

  ==> DFT Potential <==

   => LibXC <=

    Version 6.2.2
    S. Lehtola, C. Steigemann, M. J.T. Oliveira, and M. A.L. Marques.,  SoftwareX 7, 1â€“5 (2018) (10.1016/j.softx.2017.11.002)

   => Composite Functional: B3LYP <=

    B3LYP Hyb-GGA Exchange-Correlation Functional

    P. J. Stephens, F. J. Devlin, C. F. Chabalowski, and M. J. Frisch.,  J. Phys. Chem. 98, 11623 (1994) (10.1021/j100096a001)

    Deriv               =              1
    GGA                 =           TRUE
    Meta                =          FALSE

    Exchange Hybrid     =           TRUE
    MP2 Hybrid          =          FALSE

   => Exchange Functionals <=

    0.0800   Slater exchange
    0.7200         Becke 88

   => Exact (HF) Exchange <=

    0.2000               HF

   => Correlation Functionals <=

    0.1900   Vosko, Wilk & Nusair (VWN5_RPA)
    0.8100   Lee, Yang & Parr

   => LibXC Density Thresholds  <==

    XC_HYB_GGA_XC_B3LYP:  1.00E-15

   => Molecular Quadrature <=

    Radial Scheme          =       TREUTLER
    Pruning Scheme         =           NONE
    Nuclear Scheme         =       TREUTLER

    Blocking Scheme        =         OCTREE
    BS radius alpha        =              1
    Pruning alpha          =              1
    Radial Points          =             75
    Spherical Points       =            302
    Total Points           =          41072
    Total Blocks           =            414
    Max Points             =            243
    Max Functions          =             14
    Weights Tolerance      =       1.00E-15

  -Total Gradient:
     Atom            X                  Y                   Z
    ------   -----------------  -----------------  -----------------
       1        0.000000000000    -0.000183020022     0.000000000000
       2       -0.000000000000     0.000183020022     0.000000000000

*** tstop() called on Joses-MacBook-Pro-2.local at Thu Jul 17 14:01:12 2025
Module time:
	user time   =       0.38 seconds =       0.01 minutes
	system time =       0.77 seconds =       0.01 minutes
	total time  =          0 seconds =       0.00 minutes
Total time:
	user time   =     304.22 seconds =       5.07 minutes
	system time =     765.08 seconds =      12.75 minutes
	total time  =        106 seconds =       1.77 minutes

    			-----------------------------------------

    			 OPTKING 3.0: for geometry optimizations

    			     By R.A. King, Bethel University

    			        with contributions from

    			    A.V. Copan, J. Cayton, A. Heide

    			-----------------------------------------

	                            ===> Fragment 1 <==

	 Z (Atomic Numbers)          Masses                          Geom
	       8.000000            15.994915         -0.00000000 16.55630440  0.00000000
	       8.000000            15.994915          0.00000000 -16.55630440   0.00000000

	 - Coordinate -           - BOHR/RAD -       - ANG/DEG -
	 R(1,2)           =        33.112609          17.522438

	        --- Internal Coordinate Step in ANG or DEG, aJ/ANG or AJ/DEG ---
	-------------------------------------------------------------------------------
	           Coordinate      Previous         Force          Change          New
	           ----------      --------        ------          ------        ------
	               R(1,2)      17.52244        0.00151        0.00280      17.52524
	-------------------------------------------------------------------------------

	                                 ==> Convergence Check <==

	Measures of convergence in internal coordinates in au.

	Criteria marked as inactive (o), active & met (*), and active & unmet ( ).

	----------------------------------------------------------------------------------------------
	   Step    Total Energy     Delta E     Max Force     RMS Force      Max Disp      RMS Disp
	----------------------------------------------------------------------------------------------
	  Convergence Criteria     1.00e-06 *    3.00e-04 *             o    1.20e-03 *             o
	----------------------------------------------------------------------------------------------
	   215    -149.71849349   -9.69e-07 *    1.83e-04 *    1.83e-04 o    5.29e-03      5.29e-03 o  ~
	----------------------------------------------------------------------------------------------

Next Geometry in Ang
	Fragment 1 (Ang)

	    O  -0.0000000000   8.7626176118   0.0000000000
	    O   0.0000000000  -8.7626176118   0.0000000000

    Final optimized geometry and variables:
    Molecular point group: d2h
    Full point group: D_inf_h

    Geometry (in Angstrom), charge = 1, multiplicity = 6:

    O           -0.000000000000     8.761218980352     0.000000000000
    O            0.000000000000    -8.761218980352     0.000000000000

    Psi4 stopped on: Thursday, 17 July 2025 02:01PM
    Psi4 wall time for execution: 0:01:46.38

*** Psi4 exiting successfully. Buy a developer a beer!
