                               Psi4 1.9.1 release

  ==> Input File <==

--------------------------------------------------------------------------
molecule {
1 6
Be   0.00000        0.60000        0.00000
Si   0.00000       -0.60000        0.00000
}

set {
basis              cc-pvdz
reference          uks
maxiter            500
geom_maxiter       500
DAMPING_PERCENTAGE 1
guess              SAP
}

optimize('b3lyp')
--------------------------------------------------------------------------

    Molecular point group: c2v
  Charge       = 1
  Multiplicity = 6
  Basis Set: CC-PVDZ
    Blend: CC-PVDZ
  Basis Set: (CC-PVDZ AUX)
    Blend: CC-PVDZ-JKFIT + DEF2-UNIVERSAL-JKFIT
  @DF-UKS Final Energy:  -302.97471917615428
    Total Energy =                       -302.9747191761542808
 Dipole X            :          0.0000000            0.0000000            0.0000000
 Dipole Y            :          0.0000000            0.0000000            0.0000000
 Dipole Z            :         -0.1136413           -0.8744053           -0.9880465
 Magnitude           :                                                    0.9880465
    Molecular point group: c2v
  Basis Set: CC-PVDZ
    Blend: CC-PVDZ
  Basis Set: (CC-PVDZ AUX)
    Blend: CC-PVDZ-JKFIT + DEF2-UNIVERSAL-JKFIT
  Basis Set: CC-PVDZ
    Blend: CC-PVDZ
  Basis Set: (CC-PVDZ AUX)
    Blend: CC-PVDZ-JKFIT + DEF2-UNIVERSAL-JKFIT
  @DF-UKS Final Energy:  -303.18040143881279
    Total Energy =                       -303.1804014388127939
  Basis Set: CC-PVDZ
    Blend: CC-PVDZ
  Basis Set: (CC-PVDZ AUX)
    Blend: CC-PVDZ-JKFIT + DEF2-UNIVERSAL-JKFIT
  Basis Set: CC-PVDZ
    Blend: CC-PVDZ
  @DF-UKS Final Energy:  -303.35212228471158
    Total Energy =                       -303.3521222847115837
  @DF-UKS Final Energy:  -303.46507886629979
    Total Energy =                       -303.4650788662997911
  @DF-UKS Final Energy:  -303.52639249612088
    Total Energy =                       -303.5263924961209341
  @DF-UKS Final Energy:  -303.55728500795271
    Total Energy =                       -303.5572850079527143
  @DF-UKS Final Energy:  -303.57279363759045
    Total Energy =                       -303.5727936375904505
  @DF-UKS Final Energy:  -303.58005903868127
    Total Energy =                       -303.5800590386812701
  @DF-UKS Final Energy:  -303.58309325797393
    Total Energy =                       -303.5830932579739283
  @DF-UKS Final Energy:  -303.58410038854674
    Total Energy =                       -303.5841003885467444
  @DF-UKS Final Energy:  -303.58428631383975
    Total Energy =                       -303.5842863138397547
  @DF-UKS Final Energy:  -303.58432877646186
    Total Energy =                       -303.5843287764619163
  Basis Set: (CC-PVDZ AUX)
    Blend: CC-PVDZ-JKFIT + DEF2-UNIVERSAL-JKFIT
  Basis Set: CC-PVDZ
    Blend: CC-PVDZ
  Basis Set: (CC-PVDZ AUX)
    Blend: CC-PVDZ-JKFIT + DEF2-UNIVERSAL-JKFIT
  @DF-UKS Final Energy:  -303.58433242693508
    Total Energy =                       -303.5843324269350774
  Basis Set: CC-PVDZ
    Blend: CC-PVDZ
  Basis Set: (CC-PVDZ AUX)
    Blend: CC-PVDZ-JKFIT + DEF2-UNIVERSAL-JKFIT
  Charge       = 1
  Multiplicity = 6
  Basis Set: CC-PVDZ
    Blend: CC-PVDZ
  Basis Set: (CC-PVDZ AUX)
    Blend: CC-PVDZ-JKFIT + DEF2-UNIVERSAL-JKFIT

    Orbital Energies [Eh]
    ---------------------

    Alpha Occupied:

       1A1   -66.458085     2A1    -5.600228     3A1    -4.410685
       4A1    -3.961032     1B2    -3.959466     1B1    -3.959466
       5A1    -0.750784     6A1    -0.541031     2B1    -0.448673
       2B2    -0.448673     7A1    -0.430777

    Alpha Virtual:

       3B2    -0.291809     3B1    -0.291809     8A1    -0.242342
       9A1    -0.054457     4B2    -0.011644     4B1    -0.011644
      10A1    -0.003339     5B1     0.048530     5B2     0.048530
      11A1     0.052942     1A2     0.080298    12A1     0.080298
       6B2     0.097121     6B1     0.097121    13A1     0.121755
       2A2     0.229658    14A1     0.229658    15A1     0.240172
       7B2     0.313622     7B1     0.313622    16A1     0.494772

    Beta Occupied:

       1A1   -66.442094     2A1    -5.579174     3A1    -4.393050
       4A1    -3.940274     1B2    -3.936418     1B1    -3.936418

    Beta Virtual:

       5A1    -0.525844     6A1    -0.371326     2B2    -0.271316
       2B1    -0.271316     7A1    -0.263113     3B2    -0.207227
       3B1    -0.207227     8A1    -0.138686     9A1    -0.003007
       4B2     0.015669     4B1     0.015669    10A1     0.042161
      11A1     0.127939     5B2     0.163993     5B1     0.163993
       6B1     0.175879     6B2     0.175879    12A1     0.205691
       1A2     0.217772    13A1     0.217834     2A2     0.306671
      14A1     0.306707    15A1     0.330150     7B2     0.409826
       7B1     0.409826    16A1     0.581204

    Final Occupation by Irrep:
             A1    A2    B1    B2
    DOCC [     4,    0,    1,    1 ]
    SOCC [     3,    0,    1,    1 ]
    NA   [     7,    0,    2,    2 ]
    NB   [     4,    0,    1,    1 ]

  @DF-UKS Final Energy:  -303.58433273741298

   => Energetics <=

    Nuclear Repulsion Energy =             10.7507620003478905
    One-Electron Energy =                -436.0157417786589349
    Two-Electron Energy =                 140.5470306495584225
    DFT Exchange-Correlation Energy =     -18.8663836086603247
    Empirical Dispersion Energy =           0.0000000000000000
    VV10 Nonlocal Energy =                  0.0000000000000000
    Total Energy =                       -303.5843327374129217

  UHF NO Occupations:
  HONO-2 :    5 A1 1.0000000
  HONO-1 :    6 A1 1.0000000
  HONO-0 :    7 A1 1.0000000
  LUNO+0 :    8 A1 0.0000005
  LUNO+1 :    3 B1 0.0000002
  LUNO+2 :    3 B2 0.0000002
  LUNO+3 :    9 A1 0.0000001

Computation Completed

Properties will be evaluated at   0.000000,   0.000000,   0.000000 [a0]

Properties computed using the SCF density matrix

 Multipole Moments:

 ------------------------------------------------------------------------------------
     Multipole            Electronic (a.u.)      Nuclear  (a.u.)        Total (a.u.)
 ------------------------------------------------------------------------------------

 L = 1.  Multiply by 2.5417464519 to convert [e a0] to [Debye]
 Dipole X            :          0.0000000            0.0000000            0.0000000
 Dipole Y            :          0.0000000            0.0000000            0.0000000
 Dipole Z            :          3.3967350           -2.0085443            1.3881907
 Magnitude           :                                                    1.3881907

 ------------------------------------------------------------------------------------

*** tstop() called on Joses-MacBook-Pro-2.local at Thu Jul 17 13:23:25 2025
Module time:
	user time   =       2.10 seconds =       0.03 minutes
	system time =       4.05 seconds =       0.07 minutes
	total time  =          1 seconds =       0.02 minutes
Total time:
	user time   =      46.53 seconds =       0.78 minutes
	system time =      86.07 seconds =       1.43 minutes
	total time  =         13 seconds =       0.22 minutes

*** tstart() called on Joses-MacBook-Pro-2.local
*** at Thu Jul 17 13:23:25 2025

         ------------------------------------------------------------
                                   SCF GRAD
                          Rob Parrish, Justin Turney,
                       Andy Simmonett, and Alex Sokolov
         ------------------------------------------------------------

  ==> Geometry <==

    Molecular point group: c2v
    Full point group: C_inf_v

    Geometry (in Angstrom), charge = 1, multiplicity = 6:

       Center              X                  Y                   Z               Mass
    ------------   -----------------  -----------------  -----------------  -----------------
         BE           0.000000000000     0.000000000000     2.084855873544     9.012183065000
         SI           0.000000000000     0.000000000000    -0.671592813215    27.976926534650

  Nuclear repulsion =   10.750762000347891

  ==> Basis Set <==

  Basis Set: CC-PVDZ
    Blend: CC-PVDZ
    Number of shells: 14
    Number of basis functions: 32
    Number of Cartesian functions: 34
    Spherical Harmonics?: true
    Max angular momentum: 2

  ==> DFJKGrad: Density-Fitted SCF Gradients <==

    Gradient:                    1
    J tasked:                  Yes
    K tasked:                  Yes
    wK tasked:                  No
    OpenMP threads:              1
    Integrals threads:           1
    Memory [MiB]:              375
    Schwarz Cutoff:          1E-12
    Fitting Condition:       1E-10

   => Auxiliary Basis Set <=

  Basis Set: (CC-PVDZ AUX)
    Blend: CC-PVDZ-JKFIT + DEF2-UNIVERSAL-JKFIT
    Number of shells: 53
    Number of basis functions: 163
    Number of Cartesian functions: 190
    Spherical Harmonics?: true
    Max angular momentum: 3

  ==> DFT Potential <==

   => LibXC <=

    Version 6.2.2
    S. Lehtola, C. Steigemann, M. J.T. Oliveira, and M. A.L. Marques.,  SoftwareX 7, 1â€“5 (2018) (10.1016/j.softx.2017.11.002)

   => Composite Functional: B3LYP <=

    B3LYP Hyb-GGA Exchange-Correlation Functional

    P. J. Stephens, F. J. Devlin, C. F. Chabalowski, and M. J. Frisch.,  J. Phys. Chem. 98, 11623 (1994) (10.1021/j100096a001)

    Deriv               =              1
    GGA                 =           TRUE
    Meta                =          FALSE

    Exchange Hybrid     =           TRUE
    MP2 Hybrid          =          FALSE

   => Exchange Functionals <=

    0.0800   Slater exchange
    0.7200         Becke 88

   => Exact (HF) Exchange <=

    0.2000               HF

   => Correlation Functionals <=

    0.1900   Vosko, Wilk & Nusair (VWN5_RPA)
    0.8100   Lee, Yang & Parr

   => LibXC Density Thresholds  <==

    XC_HYB_GGA_XC_B3LYP:  1.00E-15

   => Molecular Quadrature <=

    Radial Scheme          =       TREUTLER
    Pruning Scheme         =           NONE
    Nuclear Scheme         =       TREUTLER

    Blocking Scheme        =         OCTREE
    BS radius alpha        =              1
    Pruning alpha          =              1
    Radial Points          =             75
    Spherical Points       =            302
    Total Points           =          42552
    Total Blocks           =            404
    Max Points             =            256
    Max Functions          =             32
    Weights Tolerance      =       1.00E-15

  -Total Gradient:
     Atom            X                  Y                   Z
    ------   -----------------  -----------------  -----------------
       1       -0.000000000000     0.000000000000    -0.000027886300
       2        0.000000000000     0.000000000000     0.000030983848

*** tstop() called on Joses-MacBook-Pro-2.local at Thu Jul 17 13:23:25 2025
Module time:
	user time   =       0.56 seconds =       0.01 minutes
	system time =       2.01 seconds =       0.03 minutes
	total time  =          0 seconds =       0.00 minutes
Total time:
	user time   =      47.09 seconds =       0.78 minutes
	system time =      88.08 seconds =       1.47 minutes
	total time  =         13 seconds =       0.22 minutes

    			-----------------------------------------

    			 OPTKING 3.0: for geometry optimizations

    			     By R.A. King, Bethel University

    			        with contributions from

    			    A.V. Copan, J. Cayton, A. Heide

    			-----------------------------------------

	                            ===> Fragment 1 <==

	 Z (Atomic Numbers)          Masses                          Geom
	       4.000000             9.012183          0.00000000  0.00000000  3.93980661
	      14.000000            27.976927          0.00000000  0.00000000 -1.26912648

	 - Coordinate -           - BOHR/RAD -       - ANG/DEG -
	 R(1,2)           =         5.208933           2.756449

	        --- Internal Coordinate Step in ANG or DEG, aJ/ANG or AJ/DEG ---
	-------------------------------------------------------------------------------
	           Coordinate      Previous         Force          Change          New
	           ----------      --------        ------          ------        ------
	               R(1,2)       2.75645        0.00024        0.00109       2.75754
	-------------------------------------------------------------------------------

	                                 ==> Convergence Check <==

	Measures of convergence in internal coordinates in au.

	Criteria marked as inactive (o), active & met (*), and active & unmet ( ).

	----------------------------------------------------------------------------------------------
	   Step    Total Energy     Delta E     Max Force     RMS Force      Max Disp      RMS Disp
	----------------------------------------------------------------------------------------------
	  Convergence Criteria     1.00e-06 *    3.00e-04 *             o    1.20e-03 *             o
	----------------------------------------------------------------------------------------------
	    14    -303.58433274   -3.10e-07 *    2.94e-05 *    2.94e-05 o    2.06e-03      2.06e-03 o  ~
	----------------------------------------------------------------------------------------------

Next Geometry in Ang
	Fragment 1 (Ang)

	   Be   0.0000000000   0.0000000000   2.0854015071
	   Si   0.0000000000   0.0000000000  -0.6721384468

    Final optimized geometry and variables:
    Molecular point group: c2v
    Full point group: C_inf_v

    Geometry (in Angstrom), charge = 1, multiplicity = 6:

    BE           0.000000000000     0.000000000000     2.084855873544
    SI           0.000000000000     0.000000000000    -0.671592813215

    Psi4 stopped on: Thursday, 17 July 2025 01:23PM
    Psi4 wall time for execution: 0:00:13.62

*** Psi4 exiting successfully. Buy a developer a beer!
