                               Psi4 1.9.1 release

  ==> Input File <==

--------------------------------------------------------------------------
molecule {
1 6
N   0.00000        0.60000        0.00000
N   0.00000       -0.60000        0.00000
}

set {
basis              cc-pvdz
reference          uks
maxiter            500
geom_maxiter       500
DAMPING_PERCENTAGE 1
guess              SAP
}

optimize('b3lyp')
--------------------------------------------------------------------------

    Molecular point group: d2h
  Charge       = 1
  Multiplicity = 6
  Basis Set: CC-PVDZ
    Blend: CC-PVDZ
  Basis Set: (CC-PVDZ AUX)
    Blend: CC-PVDZ-JKFIT
  @DF-UKS Final Energy:  -108.57224983898949
    Total Energy =                       -108.5722498389894923
 Dipole X            :          0.0000000            0.0000000            0.0000000
 Dipole Y            :          0.0000000            0.0000000            0.0000000
 Dipole Z            :          0.0000000            0.0000000            0.0000000
 Magnitude           :                                                    0.0000000
    Molecular point group: d2h
  Basis Set: CC-PVDZ
    Blend: CC-PVDZ
  Basis Set: (CC-PVDZ AUX)
    Blend: CC-PVDZ-JKFIT
  Basis Set: CC-PVDZ
    Blend: CC-PVDZ
  Basis Set: (CC-PVDZ AUX)
    Blend: CC-PVDZ-JKFIT
  @DF-UKS Final Energy:  -108.70330380299831
    Total Energy =                       -108.7033038029983061
  Basis Set: CC-PVDZ
    Blend: CC-PVDZ
  Basis Set: (CC-PVDZ AUX)
    Blend: CC-PVDZ-JKFIT
  Basis Set: CC-PVDZ
    Blend: CC-PVDZ
  @DF-UKS Final Energy:  -108.72320635365980
    Total Energy =                       -108.7232063536598048
  @DF-UKS Final Energy:  -108.73754938675384
    Total Energy =                       -108.7375493867538552
  @DF-UKS Final Energy:  -108.74160451172101
    Total Energy =                       -108.7416045117210075
  @DF-UKS Final Energy:  -108.74329751514171
    Total Energy =                       -108.7432975151417054
  @DF-UKS Final Energy:  -108.74377229192831
    Total Energy =                       -108.7437722919283090
  @DF-UKS Final Energy:  -108.74396063123856
    Total Energy =                       -108.7439606312385649
  @DF-UKS Final Energy:  -108.74399233367480
    Total Energy =                       -108.7439923336747967
  Basis Set: (CC-PVDZ AUX)
    Blend: CC-PVDZ-JKFIT
  Basis Set: CC-PVDZ
    Blend: CC-PVDZ
  Basis Set: (CC-PVDZ AUX)
    Blend: CC-PVDZ-JKFIT
  @DF-UKS Final Energy:  -108.74399868159900
    Total Energy =                       -108.7439986815989954
  Basis Set: CC-PVDZ
    Blend: CC-PVDZ
  Basis Set: (CC-PVDZ AUX)
    Blend: CC-PVDZ-JKFIT
  Charge       = 1
  Multiplicity = 6
  Basis Set: CC-PVDZ
    Blend: CC-PVDZ
  Basis Set: (CC-PVDZ AUX)
    Blend: CC-PVDZ-JKFIT

    Orbital Energies [Eh]
    ---------------------

    Alpha Occupied:

       1Ag   -14.891539     1B2u  -14.891531     2Ag    -1.270145
       2B2u   -1.139359     3Ag    -0.791783     1B3u   -0.773712
       1B1u   -0.773712     1B1g   -0.705728     1B3g   -0.705728

    Alpha Virtual:

       3B2u   -0.493782     2B3u    0.272754     2B1u    0.272754
       4B2u    0.328297     4Ag     0.397692     2B1g    0.400843
       2B3g    0.400843     5Ag     0.494390     5B2u    0.757166
       6Ag     1.096151     3B1u    1.140714     3B3u    1.140714
       7Ag     1.267813     1B2g    1.267815     6B2u    1.318628
       1Au     1.318630     3B3g    1.514350     3B1g    1.514350
       7B2u    2.104100

    Beta Occupied:

       1B2u  -14.838439     1Ag   -14.838416     2Ag    -1.108301
       2B2u   -0.944589

    Beta Virtual:

       3Ag    -0.585745     1B3u   -0.514018     1B1u   -0.514018
       1B1g   -0.427126     1B3g   -0.427126     3B2u   -0.353927
       2B3u    0.378356     2B1u    0.378356     4B2u    0.398488
       4Ag     0.482252     2B1g    0.492056     2B3g    0.492056
       5Ag     0.557474     5B2u    0.830837     6Ag     1.214085
       3B1u    1.260716     3B3u    1.260716     7Ag     1.418522
       1B2g    1.418523     6B2u    1.470196     1Au     1.470197
       3B3g    1.637205     3B1g    1.637205     7B2u    2.211904

    Final Occupation by Irrep:
             Ag   B1g   B2g   B3g    Au   B1u   B2u   B3u
    DOCC [     2,    0,    0,    0,    0,    0,    2,    0 ]
    SOCC [     1,    1,    0,    1,    0,    1,    0,    1 ]
    NA   [     3,    1,    0,    1,    0,    1,    2,    1 ]
    NB   [     2,    0,    0,    0,    0,    0,    2,    0 ]

  @DF-UKS Final Energy:  -108.74399929903602

   => Energetics <=

    Nuclear Repulsion Energy =             14.1221794199267148
    One-Electron Energy =                -170.4005241867729978
    Two-Electron Energy =                  58.1751865923727252
    DFT Exchange-Correlation Energy =     -10.6408411245624510
    Empirical Dispersion Energy =           0.0000000000000000
    VV10 Nonlocal Energy =                  0.0000000000000000
    Total Energy =                       -108.7439992990360196

  UHF NO Occupations:
  HONO-2 :    1B3u 1.0000000
  HONO-1 :    3 Ag 1.0000000
  HONO-0 :    1B1u 1.0000000
  LUNO+0 :    3B2u 0.0013406
  LUNO+1 :    4 Ag 0.0007056
  LUNO+2 :    4B2u 0.0000006
  LUNO+3 :    5 Ag 0.0000000

Computation Completed

Properties will be evaluated at   0.000000,   0.000000,   0.000000 [a0]

Properties computed using the SCF density matrix

 Multipole Moments:

 ------------------------------------------------------------------------------------
     Multipole            Electronic (a.u.)      Nuclear  (a.u.)        Total (a.u.)
 ------------------------------------------------------------------------------------

 L = 1.  Multiply by 2.5417464519 to convert [e a0] to [Debye]
 Dipole X            :          0.0000000            0.0000000            0.0000000
 Dipole Y            :          0.0000000            0.0000000            0.0000000
 Dipole Z            :          0.0000000            0.0000000            0.0000000
 Magnitude           :                                                    0.0000000

 ------------------------------------------------------------------------------------

*** tstop() called on Joses-MacBook-Pro-2.local at Thu Jul 17 13:51:10 2025
Module time:
	user time   =       2.48 seconds =       0.04 minutes
	system time =       3.75 seconds =       0.06 minutes
	total time  =          0 seconds =       0.00 minutes
Total time:
	user time   =      34.65 seconds =       0.58 minutes
	system time =      59.44 seconds =       0.99 minutes
	total time  =        195 seconds =       3.25 minutes

*** tstart() called on Joses-MacBook-Pro-2.local
*** at Thu Jul 17 13:51:10 2025

         ------------------------------------------------------------
                                   SCF GRAD
                          Rob Parrish, Justin Turney,
                       Andy Simmonett, and Alex Sokolov
         ------------------------------------------------------------

  ==> Geometry <==

    Molecular point group: d2h
    Full point group: D_inf_h

    Geometry (in Angstrom), charge = 1, multiplicity = 6:

       Center              X                  Y                   Z               Mass
    ------------   -----------------  -----------------  -----------------  -----------------
         N           -0.000000000000     0.918048218756     0.000000000000    14.003074004430
         N            0.000000000000    -0.918048218756     0.000000000000    14.003074004430

  Nuclear repulsion =   14.122179419926715

  ==> Basis Set <==

  Basis Set: CC-PVDZ
    Blend: CC-PVDZ
    Number of shells: 12
    Number of basis functions: 28
    Number of Cartesian functions: 30
    Spherical Harmonics?: true
    Max angular momentum: 2

  ==> DFJKGrad: Density-Fitted SCF Gradients <==

    Gradient:                    1
    J tasked:                  Yes
    K tasked:                  Yes
    wK tasked:                  No
    OpenMP threads:              1
    Integrals threads:           1
    Memory [MiB]:              375
    Schwarz Cutoff:          1E-12
    Fitting Condition:       1E-10

   => Auxiliary Basis Set <=

  Basis Set: (CC-PVDZ AUX)
    Blend: CC-PVDZ-JKFIT
    Number of shells: 48
    Number of basis functions: 140
    Number of Cartesian functions: 162
    Spherical Harmonics?: true
    Max angular momentum: 3

  ==> DFT Potential <==

   => LibXC <=

    Version 6.2.2
    S. Lehtola, C. Steigemann, M. J.T. Oliveira, and M. A.L. Marques.,  SoftwareX 7, 1â€“5 (2018) (10.1016/j.softx.2017.11.002)

   => Composite Functional: B3LYP <=

    B3LYP Hyb-GGA Exchange-Correlation Functional

    P. J. Stephens, F. J. Devlin, C. F. Chabalowski, and M. J. Frisch.,  J. Phys. Chem. 98, 11623 (1994) (10.1021/j100096a001)

    Deriv               =              1
    GGA                 =           TRUE
    Meta                =          FALSE

    Exchange Hybrid     =           TRUE
    MP2 Hybrid          =          FALSE

   => Exchange Functionals <=

    0.0800   Slater exchange
    0.7200         Becke 88

   => Exact (HF) Exchange <=

    0.2000               HF

   => Correlation Functionals <=

    0.1900   Vosko, Wilk & Nusair (VWN5_RPA)
    0.8100   Lee, Yang & Parr

   => LibXC Density Thresholds  <==

    XC_HYB_GGA_XC_B3LYP:  1.00E-15

   => Molecular Quadrature <=

    Radial Scheme          =       TREUTLER
    Pruning Scheme         =           NONE
    Nuclear Scheme         =       TREUTLER

    Blocking Scheme        =         OCTREE
    BS radius alpha        =              1
    Pruning alpha          =              1
    Radial Points          =             75
    Spherical Points       =            302
    Total Points           =          41952
    Total Blocks           =            384
    Max Points             =            256
    Max Functions          =             28
    Weights Tolerance      =       1.00E-15

  -Total Gradient:
     Atom            X                  Y                   Z
    ------   -----------------  -----------------  -----------------
       1        0.000000000000    -0.000051282035     0.000000000000
       2       -0.000000000000     0.000051282035     0.000000000000

*** tstop() called on Joses-MacBook-Pro-2.local at Thu Jul 17 13:51:11 2025
Module time:
	user time   =       0.87 seconds =       0.01 minutes
	system time =       0.98 seconds =       0.02 minutes
	total time  =          1 seconds =       0.02 minutes
Total time:
	user time   =      35.52 seconds =       0.59 minutes
	system time =      60.44 seconds =       1.01 minutes
	total time  =        196 seconds =       3.27 minutes

    			-----------------------------------------

    			 OPTKING 3.0: for geometry optimizations

    			     By R.A. King, Bethel University

    			        with contributions from

    			    A.V. Copan, J. Cayton, A. Heide

    			-----------------------------------------

	                            ===> Fragment 1 <==

	 Z (Atomic Numbers)          Masses                          Geom
	       7.000000            14.003074         -0.00000000  1.73485970  0.00000000
	       7.000000            14.003074          0.00000000 -1.73485970  0.00000000

	 - Coordinate -           - BOHR/RAD -       - ANG/DEG -
	 R(1,2)           =         3.469719           1.836096

	        --- Internal Coordinate Step in ANG or DEG, aJ/ANG or AJ/DEG ---
	-------------------------------------------------------------------------------
	           Coordinate      Previous         Force          Change          New
	           ----------      --------        ------          ------        ------
	               R(1,2)       1.83610        0.00042        0.00041       1.83651
	-------------------------------------------------------------------------------

	                                 ==> Convergence Check <==

	Measures of convergence in internal coordinates in au.

	Criteria marked as inactive (o), active & met (*), and active & unmet ( ).

	----------------------------------------------------------------------------------------------
	   Step    Total Energy     Delta E     Max Force     RMS Force      Max Disp      RMS Disp
	----------------------------------------------------------------------------------------------
	  Convergence Criteria     1.00e-06 *    3.00e-04 *             o    1.20e-03 *             o
	----------------------------------------------------------------------------------------------
	    11    -108.74399930   -6.17e-07 *    5.13e-05 *    5.13e-05 o    7.79e-04 *    7.79e-04 o  ~
	----------------------------------------------------------------------------------------------

Next Geometry in Ang
	Fragment 1 (Ang)

	    N  -0.0000000000   0.9182542908   0.0000000000
	    N   0.0000000000  -0.9182542908   0.0000000000

    Final optimized geometry and variables:
    Molecular point group: d2h
    Full point group: D_inf_h

    Geometry (in Angstrom), charge = 1, multiplicity = 6:

    N           -0.000000000000     0.918048218756     0.000000000000
    N            0.000000000000    -0.918048218756     0.000000000000

    Psi4 stopped on: Thursday, 17 July 2025 01:51PM
    Psi4 wall time for execution: 0:03:16.21

*** Psi4 exiting successfully. Buy a developer a beer!
