                               Psi4 1.9.1 release

  ==> Input File <==

--------------------------------------------------------------------------
molecule {
1 6
C   0.00000        0.60000        0.00000
Si   0.00000       -0.60000        0.00000
}

set {
basis              cc-pvdz
reference          uks
maxiter            500
geom_maxiter       500
DAMPING_PERCENTAGE 1
guess              SAP
}

optimize('b3lyp')
--------------------------------------------------------------------------

    Molecular point group: c2v
  Charge       = 1
  Multiplicity = 6
  Basis Set: CC-PVDZ
    Blend: CC-PVDZ
  Basis Set: (CC-PVDZ AUX)
    Blend: CC-PVDZ-JKFIT
  @DF-UKS Final Energy:  -326.38434854656737
    Total Energy =                       -326.3843485465673666
 Dipole X            :          0.0000000            0.0000000            0.0000000
 Dipole Y            :          0.0000000            0.0000000            0.0000000
 Dipole Z            :          0.1739087           -0.0078530            0.1660557
 Magnitude           :                                                    0.1660557
    Molecular point group: c2v
  Basis Set: CC-PVDZ
    Blend: CC-PVDZ
  Basis Set: (CC-PVDZ AUX)
    Blend: CC-PVDZ-JKFIT
  Basis Set: CC-PVDZ
    Blend: CC-PVDZ
  Basis Set: (CC-PVDZ AUX)
    Blend: CC-PVDZ-JKFIT
  @DF-UKS Final Energy:  -326.67644972950546
    Total Energy =                       -326.6764497295055207
  Basis Set: CC-PVDZ
    Blend: CC-PVDZ
  Basis Set: (CC-PVDZ AUX)
    Blend: CC-PVDZ-JKFIT
  Basis Set: CC-PVDZ
    Blend: CC-PVDZ
  @DF-UKS Final Energy:  -326.80592111539460
    Total Energy =                       -326.8059211153945967
  @DF-UKS Final Energy:  -326.86228681016172
    Total Energy =                       -326.8622868101617200
  @DF-UKS Final Energy:  -326.88230980435821
    Total Energy =                       -326.8823098043582149
  @DF-UKS Final Energy:  -326.88662174435314
    Total Energy =                       -326.8866217443531355
  @DF-UKS Final Energy:  -326.88792390597979
    Total Energy =                       -326.8879239059797897
  @DF-UKS Final Energy:  -326.88810091381964
    Total Energy =                       -326.8881009138196418
  @DF-UKS Final Energy:  -326.88812694680325
    Total Energy =                       -326.8881269468032542
  Basis Set: (CC-PVDZ AUX)
    Blend: CC-PVDZ-JKFIT
  Basis Set: CC-PVDZ
    Blend: CC-PVDZ
  Basis Set: (CC-PVDZ AUX)
    Blend: CC-PVDZ-JKFIT
  @DF-UKS Final Energy:  -326.88813138003331
    Total Energy =                       -326.8881313800333146
  Basis Set: CC-PVDZ
    Blend: CC-PVDZ
  Basis Set: (CC-PVDZ AUX)
    Blend: CC-PVDZ-JKFIT
  Charge       = 1
  Multiplicity = 6
  Basis Set: CC-PVDZ
    Blend: CC-PVDZ
  Basis Set: (CC-PVDZ AUX)
    Blend: CC-PVDZ-JKFIT

    Orbital Energies [Eh]
    ---------------------

    Alpha Occupied:

       1A1   -66.531124     2A1   -10.572015     3A1    -5.668411
       1B2    -4.030388     4A1    -4.026764     1B1    -4.026342
       5A1    -0.962480     6A1    -0.737173     7A1    -0.587160
       2B1    -0.580538     2B2    -0.567456     3B1    -0.439530

    Alpha Virtual:

       3B2    -0.374790     8A1    -0.215717     9A1    -0.007857
       1A2     0.039827    10A1     0.043032     4B1     0.043809
       4B2     0.045350    11A1     0.061244     5B1     0.090331
       5B2     0.094834    12A1     0.174337     6B1     0.262454
       6B2     0.265351    13A1     0.425340    14A1     0.578130
       2A2     0.845197    15A1     0.845834     7B2     1.000343
       7B1     1.001179    16A1     1.356230

    Beta Occupied:

       1A1   -66.520106     2A1   -10.525417     3A1    -5.653974
       1B2    -4.018527     4A1    -4.012723     1B1    -4.005525
       5A1    -0.834041

    Beta Virtual:

       6A1    -0.527897     2B2    -0.407397     2B1    -0.384785
       7A1    -0.375102     3B2    -0.263962     3B1    -0.239040
       8A1    -0.146432     9A1     0.034297     4B2     0.074596
       4B1     0.092860    10A1     0.119114     1A2     0.130220
      11A1     0.131152     5B2     0.174867     5B1     0.200059
      12A1     0.239088     6B2     0.329327     6B1     0.342703
      13A1     0.511464    14A1     0.653343     2A2     0.973880
      15A1     0.973922     7B2     1.115938     7B1     1.132774
      16A1     1.464691

    Final Occupation by Irrep:
             A1    A2    B1    B2
    DOCC [     5,    0,    1,    1 ]
    SOCC [     2,    0,    2,    1 ]
    NA   [     7,    0,    3,    2 ]
    NB   [     5,    0,    1,    1 ]

  @DF-UKS Final Energy:  -326.88813160785821

   => Energetics <=

    Nuclear Repulsion Energy =             24.1415068704831484
    One-Electron Energy =                -492.8396923972055674
    Two-Electron Energy =                 162.7088702812444012
    DFT Exchange-Correlation Energy =     -20.8988163623802166
    Empirical Dispersion Energy =           0.0000000000000000
    VV10 Nonlocal Energy =                  0.0000000000000000
    Total Energy =                       -326.8881316078582131

  UHF NO Occupations:
  HONO-2 :    3 B1 1.0000000
  HONO-1 :    6 A1 1.0000000
  HONO-0 :    7 A1 1.0000000
  LUNO+0 :    8 A1 0.0008954
  LUNO+1 :    3 B2 0.0000007
  LUNO+2 :    9 A1 0.0000004
  LUNO+3 :   10 A1 0.0000003

Computation Completed

Properties will be evaluated at   0.000000,   0.000000,   0.000000 [a0]

Properties computed using the SCF density matrix

 Multipole Moments:

 ------------------------------------------------------------------------------------
     Multipole            Electronic (a.u.)      Nuclear  (a.u.)        Total (a.u.)
 ------------------------------------------------------------------------------------

 L = 1.  Multiply by 2.5417464519 to convert [e a0] to [Debye]
 Dipole X            :          0.0000000            0.0000000            0.0000000
 Dipole Y            :          0.0000000            0.0000000            0.0000000
 Dipole Z            :         -0.4680924           -0.0120495           -0.4801419
 Magnitude           :                                                    0.4801419

 ------------------------------------------------------------------------------------

*** tstop() called on Joses-MacBook-Pro-2.local at Thu Jul 17 13:45:04 2025
Module time:
	user time   =       2.21 seconds =       0.04 minutes
	system time =       4.23 seconds =       0.07 minutes
	total time  =          1 seconds =       0.02 minutes
Total time:
	user time   =      39.29 seconds =       0.65 minutes
	system time =      68.48 seconds =       1.14 minutes
	total time  =         10 seconds =       0.17 minutes

*** tstart() called on Joses-MacBook-Pro-2.local
*** at Thu Jul 17 13:45:04 2025

         ------------------------------------------------------------
                                   SCF GRAD
                          Rob Parrish, Justin Turney,
                       Andy Simmonett, and Alex Sokolov
         ------------------------------------------------------------

  ==> Geometry <==

    Molecular point group: c2v
    Full point group: C_inf_v

    Geometry (in Angstrom), charge = 1, multiplicity = 6:

       Center              X                  Y                   Z               Mass
    ------------   -----------------  -----------------  -----------------  -----------------
         C            0.000000000000     0.000000000000     1.288565931065    12.000000000000
         SI           0.000000000000     0.000000000000    -0.552697993957    27.976926534650

  Nuclear repulsion =   24.141506870483148

  ==> Basis Set <==

  Basis Set: CC-PVDZ
    Blend: CC-PVDZ
    Number of shells: 14
    Number of basis functions: 32
    Number of Cartesian functions: 34
    Spherical Harmonics?: true
    Max angular momentum: 2

  ==> DFJKGrad: Density-Fitted SCF Gradients <==

    Gradient:                    1
    J tasked:                  Yes
    K tasked:                  Yes
    wK tasked:                  No
    OpenMP threads:              1
    Integrals threads:           1
    Memory [MiB]:              375
    Schwarz Cutoff:          1E-12
    Fitting Condition:       1E-10

   => Auxiliary Basis Set <=

  Basis Set: (CC-PVDZ AUX)
    Blend: CC-PVDZ-JKFIT
    Number of shells: 60
    Number of basis functions: 182
    Number of Cartesian functions: 211
    Spherical Harmonics?: true
    Max angular momentum: 3

  ==> DFT Potential <==

   => LibXC <=

    Version 6.2.2
    S. Lehtola, C. Steigemann, M. J.T. Oliveira, and M. A.L. Marques.,  SoftwareX 7, 1â€“5 (2018) (10.1016/j.softx.2017.11.002)

   => Composite Functional: B3LYP <=

    B3LYP Hyb-GGA Exchange-Correlation Functional

    P. J. Stephens, F. J. Devlin, C. F. Chabalowski, and M. J. Frisch.,  J. Phys. Chem. 98, 11623 (1994) (10.1021/j100096a001)

    Deriv               =              1
    GGA                 =           TRUE
    Meta                =          FALSE

    Exchange Hybrid     =           TRUE
    MP2 Hybrid          =          FALSE

   => Exchange Functionals <=

    0.0800   Slater exchange
    0.7200         Becke 88

   => Exact (HF) Exchange <=

    0.2000               HF

   => Correlation Functionals <=

    0.1900   Vosko, Wilk & Nusair (VWN5_RPA)
    0.8100   Lee, Yang & Parr

   => LibXC Density Thresholds  <==

    XC_HYB_GGA_XC_B3LYP:  1.00E-15

   => Molecular Quadrature <=

    Radial Scheme          =       TREUTLER
    Pruning Scheme         =           NONE
    Nuclear Scheme         =       TREUTLER

    Blocking Scheme        =         OCTREE
    BS radius alpha        =              1
    Pruning alpha          =              1
    Radial Points          =             75
    Spherical Points       =            302
    Total Points           =          42448
    Total Blocks           =            388
    Max Points             =            255
    Max Functions          =             32
    Weights Tolerance      =       1.00E-15

  -Total Gradient:
     Atom            X                  Y                   Z
    ------   -----------------  -----------------  -----------------
       1        0.000000000000     0.000000000000    -0.000049301249
       2        0.000000000000    -0.000000000000     0.000033484564

*** tstop() called on Joses-MacBook-Pro-2.local at Thu Jul 17 13:45:04 2025
Module time:
	user time   =       0.79 seconds =       0.01 minutes
	system time =       1.60 seconds =       0.03 minutes
	total time  =          0 seconds =       0.00 minutes
Total time:
	user time   =      40.08 seconds =       0.67 minutes
	system time =      70.08 seconds =       1.17 minutes
	total time  =         10 seconds =       0.17 minutes

    			-----------------------------------------

    			 OPTKING 3.0: for geometry optimizations

    			     By R.A. King, Bethel University

    			        with contributions from

    			    A.V. Copan, J. Cayton, A. Heide

    			-----------------------------------------

	                            ===> Fragment 1 <==

	 Z (Atomic Numbers)          Masses                          Geom
	       6.000000            12.000000          0.00000000  0.00000000  2.43503670
	      14.000000            27.976927          0.00000000  0.00000000 -1.04444784

	 - Coordinate -           - BOHR/RAD -       - ANG/DEG -
	 R(1,2)           =         3.479485           1.841264

	        --- Internal Coordinate Step in ANG or DEG, aJ/ANG or AJ/DEG ---
	-------------------------------------------------------------------------------
	           Coordinate      Previous         Force          Change          New
	           ----------      --------        ------          ------        ------
	               R(1,2)       1.84126        0.00034        0.00009       1.84136
	-------------------------------------------------------------------------------

	                                 ==> Convergence Check <==

	Measures of convergence in internal coordinates in au.

	Criteria marked as inactive (o), active & met (*), and active & unmet ( ).

	----------------------------------------------------------------------------------------------
	   Step    Total Energy     Delta E     Max Force     RMS Force      Max Disp      RMS Disp
	----------------------------------------------------------------------------------------------
	  Convergence Criteria     1.00e-06 *    3.00e-04 *             o    1.20e-03 *             o
	----------------------------------------------------------------------------------------------
	    11    -326.88813161   -2.28e-07 *    4.14e-05 *    4.14e-05 o    1.75e-04 *    1.75e-04 o  ~
	----------------------------------------------------------------------------------------------

Next Geometry in Ang
	Fragment 1 (Ang)

	    C   0.0000000000   0.0000000000   1.2886121593
	   Si   0.0000000000   0.0000000000  -0.5527442222

    Final optimized geometry and variables:
    Molecular point group: c2v
    Full point group: C_inf_v

    Geometry (in Angstrom), charge = 1, multiplicity = 6:

    C            0.000000000000     0.000000000000     1.288565931065
    SI           0.000000000000     0.000000000000    -0.552697993957

    Psi4 stopped on: Thursday, 17 July 2025 01:45PM
    Psi4 wall time for execution: 0:00:11.06

*** Psi4 exiting successfully. Buy a developer a beer!
