                               Psi4 1.9.1 release

  ==> Input File <==

--------------------------------------------------------------------------
molecule {
1 6
Ne   0.00000        0.60000        0.00000
Ne   0.00000       -0.60000        0.00000
}

set {
basis              cc-pvdz
reference          uks
maxiter            500
geom_maxiter       500
DAMPING_PERCENTAGE 1
guess              SAP
}

optimize('b3lyp')
--------------------------------------------------------------------------

    Molecular point group: d2h
  Charge       = 1
  Multiplicity = 6
  Basis Set: CC-PVDZ
    Blend: CC-PVDZ
  Basis Set: (CC-PVDZ AUX)
    Blend: CC-PVDZ-JKFIT
  @DF-UKS Final Energy:  -253.60545448187125
    Total Energy =                       -253.6054544818712486
 Dipole X            :          0.0000000            0.0000000            0.0000000
 Dipole Y            :          0.0000000            0.0000000            0.0000000
 Dipole Z            :          0.0000000            0.0000000            0.0000000
 Magnitude           :                                                    0.0000000
    Molecular point group: d2h
  Basis Set: CC-PVDZ
    Blend: CC-PVDZ
  Basis Set: (CC-PVDZ AUX)
    Blend: CC-PVDZ-JKFIT
  Basis Set: CC-PVDZ
    Blend: CC-PVDZ
  Basis Set: (CC-PVDZ AUX)
    Blend: CC-PVDZ-JKFIT
  @DF-UKS Final Energy:  -253.78386696399636
    Total Energy =                       -253.7838669639963598
  Basis Set: CC-PVDZ
    Blend: CC-PVDZ
  Basis Set: (CC-PVDZ AUX)
    Blend: CC-PVDZ-JKFIT
  Basis Set: CC-PVDZ
    Blend: CC-PVDZ
  @DF-UKS Final Energy:  -253.78772063806650
    Total Energy =                       -253.7877206380665029
  @DF-UKS Final Energy:  -253.78884875695186
    Total Energy =                       -253.7888487569518645
  Basis Set: (CC-PVDZ AUX)
    Blend: CC-PVDZ-JKFIT
  Basis Set: CC-PVDZ
    Blend: CC-PVDZ
  Basis Set: (CC-PVDZ AUX)
    Blend: CC-PVDZ-JKFIT
  @DF-UKS Final Energy:  -253.78886641245208
    Total Energy =                       -253.7888664124520801
  Basis Set: CC-PVDZ
    Blend: CC-PVDZ
  Basis Set: (CC-PVDZ AUX)
    Blend: CC-PVDZ-JKFIT
  Charge       = 1
  Multiplicity = 6
  Basis Set: CC-PVDZ
    Blend: CC-PVDZ
  Basis Set: (CC-PVDZ AUX)
    Blend: CC-PVDZ-JKFIT

    Orbital Energies [Eh]
    ---------------------

    Alpha Occupied:

       1B2u  -31.787437     1Ag   -31.787407     2Ag    -2.275342
       2B2u   -2.170389     3Ag    -1.418631     1B1u   -1.349393
       1B3u   -1.349393     1B3g   -1.298226     1B1g   -1.298226
       3B2u   -1.212933     2B1u    0.538617     2B3u    0.538617

    Alpha Virtual:

       4Ag     0.819215     4B2u    0.829862     2B3g    0.869236
       2B1g    0.869236     5Ag     1.067496     5B2u    1.797822
       6Ag     3.844038     3B1u    3.918152     3B3u    3.918152
       1B2g    3.955198     7Ag     3.955214     1Au     3.958825
       6B2u    3.958841     3B3g    3.978473     3B1g    3.978473
       7B2u    4.339469

    Beta Occupied:

       1Ag   -31.692728     1B2u  -31.692674     2Ag    -2.095514
       2B2u   -1.975210     3Ag    -1.225268     1B1u   -1.113813
       1B3u   -1.113813

    Beta Virtual:

       1B3g   -0.985692     1B1g   -0.985692     3B2u   -0.919210
       2B1u    0.769226     2B3u    0.769226     4B2u    0.928900
       4Ag     0.951542     2B3g    1.029210     2B1g    1.029210
       5Ag     1.194868     5B2u    1.926236     6Ag     3.977199
       3B1u    4.055552     3B3u    4.055552     1B2g    4.101048
       7Ag     4.101065     1Au     4.106465     6B2u    4.106482
       3B3g    4.119071     3B1g    4.119071     7B2u    4.477595

    Final Occupation by Irrep:
             Ag   B1g   B2g   B3g    Au   B1u   B2u   B3u
    DOCC [     3,    0,    0,    0,    0,    1,    2,    1 ]
    SOCC [     0,    1,    0,    1,    0,    1,    1,    1 ]
    NA   [     3,    1,    0,    1,    0,    2,    3,    2 ]
    NB   [     3,    0,    0,    0,    0,    1,    2,    1 ]

  @DF-UKS Final Energy:  -253.78886668706653

   => Energetics <=

    Nuclear Repulsion Energy =             34.5686093090252058
    One-Electron Energy =                -416.9105922318066177
    Two-Electron Energy =                 148.1430294872574223
    DFT Exchange-Correlation Energy =     -19.5899132515425194
    Empirical Dispersion Energy =           0.0000000000000000
    VV10 Nonlocal Energy =                  0.0000000000000000
    Total Energy =                       -253.7888666870665304

  UHF NO Occupations:
  HONO-2 :    2B3u 1.0000000
  HONO-1 :    1B1g 1.0000000
  HONO-0 :    3B2u 1.0000000
  LUNO+0 :    4 Ag 0.0009795
  LUNO+1 :    5 Ag 0.0002521
  LUNO+2 :    4B2u 0.0001864
  LUNO+3 :    3B3u 0.0000001

Computation Completed

Properties will be evaluated at   0.000000,   0.000000,   0.000000 [a0]

Properties computed using the SCF density matrix

 Multipole Moments:

 ------------------------------------------------------------------------------------
     Multipole            Electronic (a.u.)      Nuclear  (a.u.)        Total (a.u.)
 ------------------------------------------------------------------------------------

 L = 1.  Multiply by 2.5417464519 to convert [e a0] to [Debye]
 Dipole X            :          0.0000000            0.0000000            0.0000000
 Dipole Y            :          0.0000000            0.0000000            0.0000000
 Dipole Z            :          0.0000000            0.0000000            0.0000000
 Magnitude           :                                                    0.0000000

 ------------------------------------------------------------------------------------

*** tstop() called on Joses-MacBook-Pro-2.local at Thu Jul 17 14:37:16 2025
Module time:
	user time   =       2.60 seconds =       0.04 minutes
	system time =       2.55 seconds =       0.04 minutes
	total time  =          0 seconds =       0.00 minutes
Total time:
	user time   =      23.90 seconds =       0.40 minutes
	system time =      24.75 seconds =       0.41 minutes
	total time  =          5 seconds =       0.08 minutes

*** tstart() called on Joses-MacBook-Pro-2.local
*** at Thu Jul 17 14:37:17 2025

         ------------------------------------------------------------
                                   SCF GRAD
                          Rob Parrish, Justin Turney,
                       Andy Simmonett, and Alex Sokolov
         ------------------------------------------------------------

  ==> Geometry <==

    Molecular point group: d2h
    Full point group: D_inf_h

    Geometry (in Angstrom), charge = 1, multiplicity = 6:

       Center              X                  Y                   Z               Mass
    ------------   -----------------  -----------------  -----------------  -----------------
         NE          -0.000000000000     0.765401358700     0.000000000000    19.992440176200
         NE           0.000000000000    -0.765401358700     0.000000000000    19.992440176200

  Nuclear repulsion =   34.568609309025206

  ==> Basis Set <==

  Basis Set: CC-PVDZ
    Blend: CC-PVDZ
    Number of shells: 12
    Number of basis functions: 28
    Number of Cartesian functions: 30
    Spherical Harmonics?: true
    Max angular momentum: 2

  ==> DFJKGrad: Density-Fitted SCF Gradients <==

    Gradient:                    1
    J tasked:                  Yes
    K tasked:                  Yes
    wK tasked:                  No
    OpenMP threads:              1
    Integrals threads:           1
    Memory [MiB]:              375
    Schwarz Cutoff:          1E-12
    Fitting Condition:       1E-10

   => Auxiliary Basis Set <=

  Basis Set: (CC-PVDZ AUX)
    Blend: CC-PVDZ-JKFIT
    Number of shells: 48
    Number of basis functions: 140
    Number of Cartesian functions: 162
    Spherical Harmonics?: true
    Max angular momentum: 3

  ==> DFT Potential <==

   => LibXC <=

    Version 6.2.2
    S. Lehtola, C. Steigemann, M. J.T. Oliveira, and M. A.L. Marques.,  SoftwareX 7, 1â€“5 (2018) (10.1016/j.softx.2017.11.002)

   => Composite Functional: B3LYP <=

    B3LYP Hyb-GGA Exchange-Correlation Functional

    P. J. Stephens, F. J. Devlin, C. F. Chabalowski, and M. J. Frisch.,  J. Phys. Chem. 98, 11623 (1994) (10.1021/j100096a001)

    Deriv               =              1
    GGA                 =           TRUE
    Meta                =          FALSE

    Exchange Hybrid     =           TRUE
    MP2 Hybrid          =          FALSE

   => Exchange Functionals <=

    0.0800   Slater exchange
    0.7200         Becke 88

   => Exact (HF) Exchange <=

    0.2000               HF

   => Correlation Functionals <=

    0.1900   Vosko, Wilk & Nusair (VWN5_RPA)
    0.8100   Lee, Yang & Parr

   => LibXC Density Thresholds  <==

    XC_HYB_GGA_XC_B3LYP:  1.00E-15

   => Molecular Quadrature <=

    Radial Scheme          =       TREUTLER
    Pruning Scheme         =           NONE
    Nuclear Scheme         =       TREUTLER

    Blocking Scheme        =         OCTREE
    BS radius alpha        =              1
    Pruning alpha          =              1
    Radial Points          =             75
    Spherical Points       =            302
    Total Points           =          41948
    Total Blocks           =            384
    Max Points             =            256
    Max Functions          =             28
    Weights Tolerance      =       1.00E-15

  -Total Gradient:
     Atom            X                  Y                   Z
    ------   -----------------  -----------------  -----------------
       1        0.000000000000    -0.000076787719     0.000000000000
       2       -0.000000000000     0.000076787719     0.000000000000

*** tstop() called on Joses-MacBook-Pro-2.local at Thu Jul 17 14:37:17 2025
Module time:
	user time   =       0.55 seconds =       0.01 minutes
	system time =       0.94 seconds =       0.02 minutes
	total time  =          0 seconds =       0.00 minutes
Total time:
	user time   =      24.45 seconds =       0.41 minutes
	system time =      25.69 seconds =       0.43 minutes
	total time  =          6 seconds =       0.10 minutes

    			-----------------------------------------

    			 OPTKING 3.0: for geometry optimizations

    			     By R.A. King, Bethel University

    			        with contributions from

    			    A.V. Copan, J. Cayton, A. Heide

    			-----------------------------------------

	                            ===> Fragment 1 <==

	 Z (Atomic Numbers)          Masses                          Geom
	      10.000000            19.992440         -0.00000000  1.44639894  0.00000000
	      10.000000            19.992440          0.00000000 -1.44639894  0.00000000

	 - Coordinate -           - BOHR/RAD -       - ANG/DEG -
	 R(1,2)           =         2.892798           1.530803

	        --- Internal Coordinate Step in ANG or DEG, aJ/ANG or AJ/DEG ---
	-------------------------------------------------------------------------------
	           Coordinate      Previous         Force          Change          New
	           ----------      --------        ------          ------        ------
	               R(1,2)       1.53080        0.00063        0.00006       1.53086
	-------------------------------------------------------------------------------

	                                 ==> Convergence Check <==

	Measures of convergence in internal coordinates in au.

	Criteria marked as inactive (o), active & met (*), and active & unmet ( ).

	----------------------------------------------------------------------------------------------
	   Step    Total Energy     Delta E     Max Force     RMS Force      Max Disp      RMS Disp
	----------------------------------------------------------------------------------------------
	  Convergence Criteria     1.00e-06 *    3.00e-04 *             o    1.20e-03 *             o
	----------------------------------------------------------------------------------------------
	     6    -253.78886669   -2.75e-07 *    7.68e-05 *    7.68e-05 o    1.15e-04 *    1.15e-04 o  ~
	----------------------------------------------------------------------------------------------

Next Geometry in Ang
	Fragment 1 (Ang)

	   Ne  -0.0000000000   0.7654317797   0.0000000000
	   Ne   0.0000000000  -0.7654317797   0.0000000000

    Final optimized geometry and variables:
    Molecular point group: d2h
    Full point group: D_inf_h

    Geometry (in Angstrom), charge = 1, multiplicity = 6:

    NE          -0.000000000000     0.765401358700     0.000000000000
    NE           0.000000000000    -0.765401358700     0.000000000000

    Psi4 stopped on: Thursday, 17 July 2025 02:37PM
    Psi4 wall time for execution: 0:00:05.98

*** Psi4 exiting successfully. Buy a developer a beer!
