                               Psi4 1.9.1 release

  ==> Input File <==

--------------------------------------------------------------------------
molecule {
1 6
B   0.00000        0.60000        0.00000
P   0.00000       -0.60000        0.00000
}

set {
basis              cc-pvdz
reference          uks
maxiter            500
geom_maxiter       500
DAMPING_PERCENTAGE 1
guess              SAP
}

optimize('b3lyp')
--------------------------------------------------------------------------

    Molecular point group: c2v
  Charge       = 1
  Multiplicity = 6
  Basis Set: CC-PVDZ
    Blend: CC-PVDZ
  Basis Set: (CC-PVDZ AUX)
    Blend: CC-PVDZ-JKFIT
  @DF-UKS Final Energy:  -364.97224588012602
    Total Energy =                       -364.9722458801260245
 Dipole X            :          0.0000000            0.0000000            0.0000000
 Dipole Y            :          0.0000000            0.0000000            0.0000000
 Dipole Z            :          0.0069470           -0.5547649           -0.5478179
 Magnitude           :                                                    0.5478179
    Molecular point group: c2v
  Basis Set: CC-PVDZ
    Blend: CC-PVDZ
  Basis Set: (CC-PVDZ AUX)
    Blend: CC-PVDZ-JKFIT
  Basis Set: CC-PVDZ
    Blend: CC-PVDZ
  Basis Set: (CC-PVDZ AUX)
    Blend: CC-PVDZ-JKFIT
  @DF-UKS Final Energy:  -365.26564486804534
    Total Energy =                       -365.2656448680453991
  Basis Set: CC-PVDZ
    Blend: CC-PVDZ
  Basis Set: (CC-PVDZ AUX)
    Blend: CC-PVDZ-JKFIT
  Basis Set: CC-PVDZ
    Blend: CC-PVDZ
  @DF-UKS Final Energy:  -365.41838083078125
    Total Energy =                       -365.4183808307812455
  @DF-UKS Final Energy:  -365.48747149365579
    Total Energy =                       -365.4874714936557893
  @DF-UKS Final Energy:  -365.51846812456381
    Total Energy =                       -365.5184681245638103
  @DF-UKS Final Energy:  -365.53101950656412
    Total Energy =                       -365.5310195065642347
  @DF-UKS Final Energy:  -365.53453918586320
    Total Energy =                       -365.5345391858631956
  @DF-UKS Final Energy:  -365.53608932842667
    Total Energy =                       -365.5360893284266126
  @DF-UKS Final Energy:  -365.53647047412983
    Total Energy =                       -365.5364704741298283
  @DF-UKS Final Energy:  -365.53660094531256
    Total Energy =                       -365.5366009453126139
  @DF-UKS Final Energy:  -365.53662058171301
    Total Energy =                       -365.5366205817130094
  Basis Set: (CC-PVDZ AUX)
    Blend: CC-PVDZ-JKFIT
  Basis Set: CC-PVDZ
    Blend: CC-PVDZ
  Basis Set: (CC-PVDZ AUX)
    Blend: CC-PVDZ-JKFIT
  @DF-UKS Final Energy:  -365.53662403437005
    Total Energy =                       -365.5366240343700497
  Basis Set: CC-PVDZ
    Blend: CC-PVDZ
  Basis Set: (CC-PVDZ AUX)
    Blend: CC-PVDZ-JKFIT
  Charge       = 1
  Multiplicity = 6
  Basis Set: CC-PVDZ
    Blend: CC-PVDZ
  Basis Set: (CC-PVDZ AUX)
    Blend: CC-PVDZ-JKFIT

    Orbital Energies [Eh]
    ---------------------

    Alpha Occupied:

       1A1   -77.457865     2A1    -7.164327     3A1    -6.923026
       4A1    -5.086817     1B2    -5.086726     1B1    -5.085716
       5A1    -0.941280     6A1    -0.722000     2B1    -0.570706
       2B2    -0.563540     7A1    -0.550723     3B1    -0.447097

    Alpha Virtual:

       3B2    -0.360245     8A1    -0.244949     9A1     0.003039
       4B1     0.048907     4B2     0.065251    10A1     0.088216
       5B2     0.100516     5B1     0.101872    11A1     0.111364
       1A2     0.126642    12A1     0.126968     6B1     0.178692
       6B2     0.179083    13A1     0.271153     2A2     0.418413
      14A1     0.424720    15A1     0.460542     7B1     0.577077
       7B2     0.582517    16A1     0.834985

    Beta Occupied:

       1A1   -77.444232     2A1    -7.128826     3A1    -6.907854
       4A1    -5.068985     1B2    -5.065922     1B1    -5.062819
       5A1    -0.822635

    Beta Virtual:

       6A1    -0.533478     2B2    -0.415797     2B1    -0.402792
       7A1    -0.351449     3B2    -0.267922     3B1    -0.232853
       8A1    -0.146139     9A1     0.044679     4B2     0.099901
       4B1     0.125784    10A1     0.153001    11A1     0.169396
       5B2     0.175658     5B1     0.186441     1A2     0.231256
      12A1     0.231302     6B2     0.236572     6B1     0.247996
      13A1     0.328871    14A1     0.521360     2A2     0.529282
      15A1     0.537462     7B2     0.671175     7B1     0.697828
      16A1     0.929312

    Final Occupation by Irrep:
             A1    A2    B1    B2
    DOCC [     5,    0,    1,    1 ]
    SOCC [     2,    0,    2,    1 ]
    NA   [     7,    0,    3,    2 ]
    NB   [     5,    0,    1,    1 ]

  @DF-UKS Final Energy:  -365.53662432798887

   => Energetics <=

    Nuclear Repulsion Energy =             18.9693914795346963
    One-Electron Energy =                -535.4541351204100010
    Two-Electron Energy =                 172.6218404367695030
    DFT Exchange-Correlation Energy =     -21.6737211238830945
    Empirical Dispersion Energy =           0.0000000000000000
    VV10 Nonlocal Energy =                  0.0000000000000000
    Total Energy =                       -365.5366243279888749

  UHF NO Occupations:
  HONO-2 :    3 B1 1.0000000
  HONO-1 :    6 A1 1.0000000
  HONO-0 :    7 A1 1.0000000
  LUNO+0 :    8 A1 0.0004848
  LUNO+1 :    9 A1 0.0000004
  LUNO+2 :   10 A1 0.0000001
  LUNO+3 :    3 B2 0.0000001

Computation Completed

Properties will be evaluated at   0.000000,   0.000000,   0.000000 [a0]

Properties computed using the SCF density matrix

 Multipole Moments:

 ------------------------------------------------------------------------------------
     Multipole            Electronic (a.u.)      Nuclear  (a.u.)        Total (a.u.)
 ------------------------------------------------------------------------------------

 L = 1.  Multiply by 2.5417464519 to convert [e a0] to [Debye]
 Dipole X            :          0.0000000            0.0000000            0.0000000
 Dipole Y            :          0.0000000            0.0000000            0.0000000
 Dipole Z            :          1.1374565           -0.9672455            0.1702110
 Magnitude           :                                                    0.1702110

 ------------------------------------------------------------------------------------

*** tstop() called on Joses-MacBook-Pro-2.local at Thu Jul 17 13:37:10 2025
Module time:
	user time   =       3.04 seconds =       0.05 minutes
	system time =       3.46 seconds =       0.06 minutes
	total time  =          1 seconds =       0.02 minutes
Total time:
	user time   =      43.62 seconds =       0.73 minutes
	system time =      89.13 seconds =       1.49 minutes
	total time  =         13 seconds =       0.22 minutes

*** tstart() called on Joses-MacBook-Pro-2.local
*** at Thu Jul 17 13:37:10 2025

         ------------------------------------------------------------
                                   SCF GRAD
                          Rob Parrish, Justin Turney,
                       Andy Simmonett, and Alex Sokolov
         ------------------------------------------------------------

  ==> Geometry <==

    Molecular point group: c2v
    Full point group: C_inf_v

    Geometry (in Angstrom), charge = 1, multiplicity = 6:

       Center              X                  Y                   Z               Mass
    ------------   -----------------  -----------------  -----------------  -----------------
         B            0.000000000000     0.000000000000     1.543578738828    11.009305360000
         P            0.000000000000     0.000000000000    -0.548649198113    30.973761998420

  Nuclear repulsion =   18.969391479534696

  ==> Basis Set <==

  Basis Set: CC-PVDZ
    Blend: CC-PVDZ
    Number of shells: 14
    Number of basis functions: 32
    Number of Cartesian functions: 34
    Spherical Harmonics?: true
    Max angular momentum: 2

  ==> DFJKGrad: Density-Fitted SCF Gradients <==

    Gradient:                    1
    J tasked:                  Yes
    K tasked:                  Yes
    wK tasked:                  No
    OpenMP threads:              1
    Integrals threads:           1
    Memory [MiB]:              375
    Schwarz Cutoff:          1E-12
    Fitting Condition:       1E-10

   => Auxiliary Basis Set <=

  Basis Set: (CC-PVDZ AUX)
    Blend: CC-PVDZ-JKFIT
    Number of shells: 60
    Number of basis functions: 182
    Number of Cartesian functions: 211
    Spherical Harmonics?: true
    Max angular momentum: 3

  ==> DFT Potential <==

   => LibXC <=

    Version 6.2.2
    S. Lehtola, C. Steigemann, M. J.T. Oliveira, and M. A.L. Marques.,  SoftwareX 7, 1â€“5 (2018) (10.1016/j.softx.2017.11.002)

   => Composite Functional: B3LYP <=

    B3LYP Hyb-GGA Exchange-Correlation Functional

    P. J. Stephens, F. J. Devlin, C. F. Chabalowski, and M. J. Frisch.,  J. Phys. Chem. 98, 11623 (1994) (10.1021/j100096a001)

    Deriv               =              1
    GGA                 =           TRUE
    Meta                =          FALSE

    Exchange Hybrid     =           TRUE
    MP2 Hybrid          =          FALSE

   => Exchange Functionals <=

    0.0800   Slater exchange
    0.7200         Becke 88

   => Exact (HF) Exchange <=

    0.2000               HF

   => Correlation Functionals <=

    0.1900   Vosko, Wilk & Nusair (VWN5_RPA)
    0.8100   Lee, Yang & Parr

   => LibXC Density Thresholds  <==

    XC_HYB_GGA_XC_B3LYP:  1.00E-15

   => Molecular Quadrature <=

    Radial Scheme          =       TREUTLER
    Pruning Scheme         =           NONE
    Nuclear Scheme         =       TREUTLER

    Blocking Scheme        =         OCTREE
    BS radius alpha        =              1
    Pruning alpha          =              1
    Radial Points          =             75
    Spherical Points       =            302
    Total Points           =          42025
    Total Blocks           =            383
    Max Points             =            256
    Max Functions          =             32
    Weights Tolerance      =       1.00E-15

  -Total Gradient:
     Atom            X                  Y                   Z
    ------   -----------------  -----------------  -----------------
       1        0.000000000000    -0.000000000000    -0.000034375553
       2        0.000000000000     0.000000000000     0.000030123999

*** tstop() called on Joses-MacBook-Pro-2.local at Thu Jul 17 13:37:10 2025
Module time:
	user time   =       1.51 seconds =       0.03 minutes
	system time =       1.02 seconds =       0.02 minutes
	total time  =          0 seconds =       0.00 minutes
Total time:
	user time   =      45.13 seconds =       0.75 minutes
	system time =      90.16 seconds =       1.50 minutes
	total time  =         13 seconds =       0.22 minutes

    			-----------------------------------------

    			 OPTKING 3.0: for geometry optimizations

    			     By R.A. King, Bethel University

    			        with contributions from

    			    A.V. Copan, J. Cayton, A. Heide

    			-----------------------------------------

	                            ===> Fragment 1 <==

	 Z (Atomic Numbers)          Masses                          Geom
	       5.000000            11.009305          0.00000000  0.00000000  2.91694107
	      15.000000            30.973762          0.00000000  0.00000000 -1.03679672

	 - Coordinate -           - BOHR/RAD -       - ANG/DEG -
	 R(1,2)           =         3.953738           2.092228

	        --- Internal Coordinate Step in ANG or DEG, aJ/ANG or AJ/DEG ---
	-------------------------------------------------------------------------------
	           Coordinate      Previous         Force          Change          New
	           ----------      --------        ------          ------        ------
	               R(1,2)       2.09223        0.00027        0.00025       2.09248
	-------------------------------------------------------------------------------

	                                 ==> Convergence Check <==

	Measures of convergence in internal coordinates in au.

	Criteria marked as inactive (o), active & met (*), and active & unmet ( ).

	----------------------------------------------------------------------------------------------
	   Step    Total Energy     Delta E     Max Force     RMS Force      Max Disp      RMS Disp
	----------------------------------------------------------------------------------------------
	  Convergence Criteria     1.00e-06 *    3.00e-04 *             o    1.20e-03 *             o
	----------------------------------------------------------------------------------------------
	    13    -365.53662433   -2.94e-07 *    3.22e-05 *    3.22e-05 o    4.73e-04 *    4.73e-04 o  ~
	----------------------------------------------------------------------------------------------

Next Geometry in Ang
	Fragment 1 (Ang)

	    B   0.0000000000   0.0000000000   1.5437039591
	    P   0.0000000000   0.0000000000  -0.5487744184

    Final optimized geometry and variables:
    Molecular point group: c2v
    Full point group: C_inf_v

    Geometry (in Angstrom), charge = 1, multiplicity = 6:

    B            0.000000000000     0.000000000000     1.543578738828
    P            0.000000000000     0.000000000000    -0.548649198113

    Psi4 stopped on: Thursday, 17 July 2025 01:37PM
    Psi4 wall time for execution: 0:00:14.22

*** Psi4 exiting successfully. Buy a developer a beer!
