                               Psi4 1.9.1 release

  ==> Input File <==

--------------------------------------------------------------------------
molecule {
1 6
B   0.00000        0.60000        0.00000
Al   0.00000       -0.60000        0.00000
}

set {
basis              cc-pvdz
reference          uks
maxiter            500
geom_maxiter       500
DAMPING_PERCENTAGE 1
guess              SAP
}

optimize('b3lyp')
--------------------------------------------------------------------------

    Molecular point group: c2v
  Charge       = 1
  Multiplicity = 6
  Basis Set: CC-PVDZ
    Blend: CC-PVDZ
  Basis Set: (CC-PVDZ AUX)
    Blend: CC-PVDZ-JKFIT
  @DF-UKS Final Energy:  -266.03508819591741
    Total Energy =                       -266.0350881959174103
 Dipole X            :          0.0000000            0.0000000            0.0000000
 Dipole Y            :          0.0000000            0.0000000            0.0000000
 Dipole Z            :          0.0264756           -0.4902500           -0.4637745
 Magnitude           :                                                    0.4637745
    Molecular point group: c2v
  Basis Set: CC-PVDZ
    Blend: CC-PVDZ
  Basis Set: (CC-PVDZ AUX)
    Blend: CC-PVDZ-JKFIT
  Basis Set: CC-PVDZ
    Blend: CC-PVDZ
  Basis Set: (CC-PVDZ AUX)
    Blend: CC-PVDZ-JKFIT
  @DF-UKS Final Energy:  -266.26637555767348
    Total Energy =                       -266.2663755576734843
  Basis Set: CC-PVDZ
    Blend: CC-PVDZ
  Basis Set: (CC-PVDZ AUX)
    Blend: CC-PVDZ-JKFIT
  Basis Set: CC-PVDZ
    Blend: CC-PVDZ
  @DF-UKS Final Energy:  -266.43370045223406
    Total Energy =                       -266.4337004522340635
  @DF-UKS Final Energy:  -266.52930420735498
    Total Energy =                       -266.5293042073549827
  @DF-UKS Final Energy:  -266.57181529936116
    Total Energy =                       -266.5718152993611625
  @DF-UKS Final Energy:  -266.58933117790934
    Total Energy =                       -266.5893311779093438
  @DF-UKS Final Energy:  -266.59486432280761
    Total Energy =                       -266.5948643228076094
  @DF-UKS Final Energy:  -266.59583626857432
    Total Energy =                       -266.5958362685743168
  @DF-UKS Final Energy:  -266.59605588257830
    Total Energy =                       -266.5960558825782982
  @DF-UKS Final Energy:  -266.59607506024571
    Total Energy =                       -266.5960750602457097
  Basis Set: (CC-PVDZ AUX)
    Blend: CC-PVDZ-JKFIT
  Basis Set: CC-PVDZ
    Blend: CC-PVDZ
  Basis Set: (CC-PVDZ AUX)
    Blend: CC-PVDZ-JKFIT
  @DF-UKS Final Energy:  -266.59607681317101
    Total Energy =                       -266.5960768131710097
  Basis Set: CC-PVDZ
    Blend: CC-PVDZ
  Basis Set: (CC-PVDZ AUX)
    Blend: CC-PVDZ-JKFIT
  Charge       = 1
  Multiplicity = 6
  Basis Set: CC-PVDZ
    Blend: CC-PVDZ
  Basis Set: (CC-PVDZ AUX)
    Blend: CC-PVDZ-JKFIT

    Orbital Energies [Eh]
    ---------------------

    Alpha Occupied:

       1A1   -56.429420     2A1    -7.107341     3A1    -4.502603
       4A1    -3.055505     1B1    -3.055336     1B2    -3.055336
       5A1    -0.770743     6A1    -0.577037     7A1    -0.466345
       2B1    -0.461074     2B2    -0.461074

    Alpha Virtual:

       3B1    -0.305238     3B2    -0.305238     8A1    -0.194757
       9A1    -0.059097     4B1    -0.020278     4B2    -0.020278
      10A1    -0.015232     1A2    -0.015232    11A1    -0.003743
       5B1     0.024126     5B2     0.024126    12A1     0.057146
       6B2     0.110367     6B1     0.110367    13A1     0.256088
      14A1     0.323799     2A2     0.449478    15A1     0.449479
       7B1     0.574518     7B2     0.574518    16A1     0.806664

    Beta Occupied:

       1A1   -56.420859     2A1    -7.066957     3A1    -4.489876
       1B1    -3.044500     1B2    -3.044500     4A1    -3.042241

    Beta Virtual:

       5A1    -0.533302     6A1    -0.386486     2B1    -0.291047
       2B2    -0.291047     7A1    -0.252006     3B1    -0.179585
       3B2    -0.179585     8A1    -0.107378     9A1    -0.011294
       4B1     0.021687     4B2     0.021687    10A1     0.061381
      11A1     0.061498     1A2     0.061499     5B1     0.118119
       5B2     0.118119    12A1     0.125056     6B2     0.177875
       6B1     0.177875    13A1     0.349661    14A1     0.422003
      15A1     0.604264     2A2     0.604441     7B1     0.729423
       7B2     0.729423    16A1     0.936403

    Final Occupation by Irrep:
             A1    A2    B1    B2
    DOCC [     4,    0,    1,    1 ]
    SOCC [     3,    0,    1,    1 ]
    NA   [     7,    0,    2,    2 ]
    NB   [     4,    0,    1,    1 ]

  @DF-UKS Final Energy:  -266.59607698508967

   => Energetics <=

    Nuclear Repulsion Energy =             15.8742267389352847
    One-Electron Energy =                -395.0256151373544071
    Two-Electron Energy =                 130.5665535231900094
    DFT Exchange-Correlation Energy =     -18.0112421098605999
    Empirical Dispersion Energy =           0.0000000000000000
    VV10 Nonlocal Energy =                  0.0000000000000000
    Total Energy =                       -266.5960769850896668

  UHF NO Occupations:
  HONO-2 :    2 B2 1.0000000
  HONO-1 :    2 B1 1.0000000
  HONO-0 :    7 A1 1.0000000
  LUNO+0 :    3 B2 0.0000007
  LUNO+1 :    3 B1 0.0000007
  LUNO+2 :    8 A1 0.0000004
  LUNO+3 :    9 A1 0.0000003

Computation Completed

Properties will be evaluated at   0.000000,   0.000000,   0.000000 [a0]

Properties computed using the SCF density matrix

 Multipole Moments:

 ------------------------------------------------------------------------------------
     Multipole            Electronic (a.u.)      Nuclear  (a.u.)        Total (a.u.)
 ------------------------------------------------------------------------------------

 L = 1.  Multiply by 2.5417464519 to convert [e a0] to [Debye]
 Dipole X            :          0.0000000            0.0000000            0.0000000
 Dipole Y            :          0.0000000            0.0000000            0.0000000
 Dipole Z            :          0.1157723           -0.8852345           -0.7694621
 Magnitude           :                                                    0.7694621

 ------------------------------------------------------------------------------------

*** tstop() called on Joses-MacBook-Pro-2.local at Thu Jul 17 13:35:49 2025
Module time:
	user time   =       1.85 seconds =       0.03 minutes
	system time =       3.71 seconds =       0.06 minutes
	total time  =          0 seconds =       0.00 minutes
Total time:
	user time   =      43.74 seconds =       0.73 minutes
	system time =      69.24 seconds =       1.15 minutes
	total time  =         11 seconds =       0.18 minutes

*** tstart() called on Joses-MacBook-Pro-2.local
*** at Thu Jul 17 13:35:49 2025

         ------------------------------------------------------------
                                   SCF GRAD
                          Rob Parrish, Justin Turney,
                       Andy Simmonett, and Alex Sokolov
         ------------------------------------------------------------

  ==> Geometry <==

    Molecular point group: c2v
    Full point group: C_inf_v

    Geometry (in Angstrom), charge = 1, multiplicity = 6:

       Center              X                  Y                   Z               Mass
    ------------   -----------------  -----------------  -----------------  -----------------
         B            0.000000000000     0.000000000000     1.538897449005    11.009305360000
         AL           0.000000000000     0.000000000000    -0.627917934146    26.981538530000

  Nuclear repulsion =   15.874226738935285

  ==> Basis Set <==

  Basis Set: CC-PVDZ
    Blend: CC-PVDZ
    Number of shells: 14
    Number of basis functions: 32
    Number of Cartesian functions: 34
    Spherical Harmonics?: true
    Max angular momentum: 2

  ==> DFJKGrad: Density-Fitted SCF Gradients <==

    Gradient:                    1
    J tasked:                  Yes
    K tasked:                  Yes
    wK tasked:                  No
    OpenMP threads:              1
    Integrals threads:           1
    Memory [MiB]:              375
    Schwarz Cutoff:          1E-12
    Fitting Condition:       1E-10

   => Auxiliary Basis Set <=

  Basis Set: (CC-PVDZ AUX)
    Blend: CC-PVDZ-JKFIT
    Number of shells: 60
    Number of basis functions: 182
    Number of Cartesian functions: 211
    Spherical Harmonics?: true
    Max angular momentum: 3

  ==> DFT Potential <==

   => LibXC <=

    Version 6.2.2
    S. Lehtola, C. Steigemann, M. J.T. Oliveira, and M. A.L. Marques.,  SoftwareX 7, 1â€“5 (2018) (10.1016/j.softx.2017.11.002)

   => Composite Functional: B3LYP <=

    B3LYP Hyb-GGA Exchange-Correlation Functional

    P. J. Stephens, F. J. Devlin, C. F. Chabalowski, and M. J. Frisch.,  J. Phys. Chem. 98, 11623 (1994) (10.1021/j100096a001)

    Deriv               =              1
    GGA                 =           TRUE
    Meta                =          FALSE

    Exchange Hybrid     =           TRUE
    MP2 Hybrid          =          FALSE

   => Exchange Functionals <=

    0.0800   Slater exchange
    0.7200         Becke 88

   => Exact (HF) Exchange <=

    0.2000               HF

   => Correlation Functionals <=

    0.1900   Vosko, Wilk & Nusair (VWN5_RPA)
    0.8100   Lee, Yang & Parr

   => LibXC Density Thresholds  <==

    XC_HYB_GGA_XC_B3LYP:  1.00E-15

   => Molecular Quadrature <=

    Radial Scheme          =       TREUTLER
    Pruning Scheme         =           NONE
    Nuclear Scheme         =       TREUTLER

    Blocking Scheme        =         OCTREE
    BS radius alpha        =              1
    Pruning alpha          =              1
    Radial Points          =             75
    Spherical Points       =            302
    Total Points           =          42978
    Total Blocks           =            402
    Max Points             =            255
    Max Functions          =             32
    Weights Tolerance      =       1.00E-15

  -Total Gradient:
     Atom            X                  Y                   Z
    ------   -----------------  -----------------  -----------------
       1        0.000000000000    -0.000000000000    -0.000031463808
       2        0.000000000000     0.000000000000     0.000020417756

*** tstop() called on Joses-MacBook-Pro-2.local at Thu Jul 17 13:35:50 2025
Module time:
	user time   =       0.91 seconds =       0.02 minutes
	system time =       1.45 seconds =       0.02 minutes
	total time  =          1 seconds =       0.02 minutes
Total time:
	user time   =      44.65 seconds =       0.74 minutes
	system time =      70.69 seconds =       1.18 minutes
	total time  =         12 seconds =       0.20 minutes

    			-----------------------------------------

    			 OPTKING 3.0: for geometry optimizations

    			     By R.A. King, Bethel University

    			        with contributions from

    			    A.V. Copan, J. Cayton, A. Heide

    			-----------------------------------------

	                            ===> Fragment 1 <==

	 Z (Atomic Numbers)          Masses                          Geom
	       5.000000            11.009305          0.00000000  0.00000000  2.90809471
	      13.000000            26.981539          0.00000000  0.00000000 -1.18659292

	 - Coordinate -           - BOHR/RAD -       - ANG/DEG -
	 R(1,2)           =         4.094688           2.166815

	        --- Internal Coordinate Step in ANG or DEG, aJ/ANG or AJ/DEG ---
	-------------------------------------------------------------------------------
	           Coordinate      Previous         Force          Change          New
	           ----------      --------        ------          ------        ------
	               R(1,2)       2.16682        0.00021        0.00016       2.16698
	-------------------------------------------------------------------------------

	                                 ==> Convergence Check <==

	Measures of convergence in internal coordinates in au.

	Criteria marked as inactive (o), active & met (*), and active & unmet ( ).

	----------------------------------------------------------------------------------------------
	   Step    Total Energy     Delta E     Max Force     RMS Force      Max Disp      RMS Disp
	----------------------------------------------------------------------------------------------
	  Convergence Criteria     1.00e-06 *    3.00e-04 *             o    1.20e-03 *             o
	----------------------------------------------------------------------------------------------
	    12    -266.59607699   -1.72e-07 *    2.59e-05 *    2.59e-05 o    3.02e-04 *    3.02e-04 o  ~
	----------------------------------------------------------------------------------------------

Next Geometry in Ang
	Fragment 1 (Ang)

	    B   0.0000000000   0.0000000000   1.5389774597
	   Al   0.0000000000   0.0000000000  -0.6279979448

    Final optimized geometry and variables:
    Molecular point group: c2v
    Full point group: C_inf_v

    Geometry (in Angstrom), charge = 1, multiplicity = 6:

    B            0.000000000000     0.000000000000     1.538897449005
    AL           0.000000000000     0.000000000000    -0.627917934146

    Psi4 stopped on: Thursday, 17 July 2025 01:35PM
    Psi4 wall time for execution: 0:00:12.69

*** Psi4 exiting successfully. Buy a developer a beer!
