                               Psi4 1.9.1 release

  ==> Input File <==

--------------------------------------------------------------------------
molecule {
1 6
H   0.00000        0.60000        0.00000
N   0.00000       -0.60000        0.00000
}

set {
basis              cc-pvdz
reference          uks
maxiter            500
geom_maxiter       500
DAMPING_PERCENTAGE 1
guess              SAP
}

optimize('b3lyp')
--------------------------------------------------------------------------

    Molecular point group: c2v
  Charge       = 1
  Multiplicity = 6
  Basis Set: CC-PVDZ
    Blend: CC-PVDZ
  Basis Set: (CC-PVDZ AUX)
    Blend: CC-PVDZ-JKFIT
  @DF-UKS Final Energy:   -54.07622444421911
    Total Energy =                        -54.0762244442191076
 Dipole X            :          0.0000000            0.0000000            0.0000000
 Dipole Y            :          0.0000000            0.0000000            0.0000000
 Dipole Z            :         -1.5408802            1.0496678           -0.4912124
 Magnitude           :                                                    0.4912124
    Molecular point group: c2v
  Basis Set: CC-PVDZ
    Blend: CC-PVDZ
  Basis Set: (CC-PVDZ AUX)
    Blend: CC-PVDZ-JKFIT
  Basis Set: CC-PVDZ
    Blend: CC-PVDZ
  Basis Set: (CC-PVDZ AUX)
    Blend: CC-PVDZ-JKFIT
  @DF-UKS Final Energy:   -54.20306055329477
    Total Energy =                        -54.2030605532947689
  Basis Set: CC-PVDZ
    Blend: CC-PVDZ
  Basis Set: (CC-PVDZ AUX)
    Blend: CC-PVDZ-JKFIT
  Basis Set: CC-PVDZ
    Blend: CC-PVDZ
  @DF-UKS Final Energy:   -54.25628611472973
    Total Energy =                        -54.2562861147297255
  @DF-UKS Final Energy:   -54.28568922990684
    Total Energy =                        -54.2856892299068434
  @DF-UKS Final Energy:   -54.30099788293523
    Total Energy =                        -54.3009978829352349
  @DF-UKS Final Energy:   -54.30886949953484
    Total Energy =                        -54.3088694995348362
  @DF-UKS Final Energy:   -54.31284929592722
    Total Energy =                        -54.3128492959272151
  @DF-UKS Final Energy:   -54.31487935629599
    Total Energy =                        -54.3148793562959895
  @DF-UKS Final Energy:   -54.31591615395472
    Total Energy =                        -54.3159161539547171
  @DF-UKS Final Energy:   -54.31644088376182
    Total Energy =                        -54.3164408837618211
  @DF-UKS Final Energy:   -54.31670434255489
    Total Energy =                        -54.3167043425548925
  @DF-UKS Final Energy:   -54.31683584652201
    Total Energy =                        -54.3168358465220109
  @DF-UKS Final Energy:   -54.31690068111436
    Total Energy =                        -54.3169006811143689
  @DF-UKS Final Energy:   -54.31693163898500
    Total Energy =                        -54.3169316389850039
  @DF-UKS Final Energy:   -54.31694580506962
    Total Energy =                        -54.3169458050696079
  @DF-UKS Final Energy:   -54.31695154496582
    Total Energy =                        -54.3169515449658249
  Basis Set: (CC-PVDZ AUX)
    Blend: CC-PVDZ-JKFIT
  Basis Set: CC-PVDZ
    Blend: CC-PVDZ
  Basis Set: (CC-PVDZ AUX)
    Blend: CC-PVDZ-JKFIT
  @DF-UKS Final Energy:   -54.31695362693489
    Total Energy =                        -54.3169536269348896
  Basis Set: CC-PVDZ
    Blend: CC-PVDZ
  Basis Set: (CC-PVDZ AUX)
    Blend: CC-PVDZ-JKFIT
  Charge       = 1
  Multiplicity = 6
  Basis Set: CC-PVDZ
    Blend: CC-PVDZ
  Basis Set: (CC-PVDZ AUX)
    Blend: CC-PVDZ-JKFIT

    Orbital Energies [Eh]
    ---------------------

    Alpha Occupied:

       1A1   -15.079092     2A1    -1.366526     1B1    -0.899679
       1B2    -0.899679     3A1    -0.899666     4A1    -0.447319

    Alpha Virtual:

       5A1     0.218918     2B1     0.226568     2B2     0.226568
       6A1     0.293963     7A1     0.332155     8A1     1.080811
       3B1     1.082865     3B2     1.082865     1A2     1.141784
       9A1     1.141784     4B2     1.141793     4B1     1.141793
      10A1     1.141836

    Beta Occupied:

       1A1   -14.974488

    Beta Virtual:

       2A1    -0.888890     3A1    -0.475968     1B2    -0.475873
       1B1    -0.475873     4A1    -0.153566     5A1     0.373646
       2B2     0.377168     2B1     0.377168     6A1     0.491979
       7A1     0.520126     8A1     1.330943     3B1     1.333836
       3B2     1.333836     1A2     1.439728     9A1     1.439731
       4B2     1.439737     4B1     1.439737    10A1     1.439778

    Final Occupation by Irrep:
             A1    A2    B1    B2
    DOCC [     1,    0,    0,    0 ]
    SOCC [     3,    0,    1,    1 ]
    NA   [     4,    0,    1,    1 ]
    NB   [     1,    0,    0,    0 ]

  @DF-UKS Final Energy:   -54.31695402747938

   => Energetics <=

    Nuclear Repulsion Energy =              0.8943083062937069
    One-Electron Energy =                 -71.9176435948556190
    Two-Electron Energy =                  22.1906566946317483
    DFT Exchange-Correlation Energy =      -5.4842754335492243
    Empirical Dispersion Energy =           0.0000000000000000
    VV10 Nonlocal Energy =                  0.0000000000000000
    Total Energy =                        -54.3169540274793832

  UHF NO Occupations:
  HONO-2 :    1 B2 1.0000000
  HONO-1 :    3 A1 1.0000000
  HONO-0 :    4 A1 1.0000000
  LUNO+0 :    5 A1 0.0000015
  LUNO+1 :    6 A1 0.0000000
  LUNO+2 :    7 A1 0.0000000
  LUNO+3 :    8 A1 0.0000000

Computation Completed

Properties will be evaluated at   0.000000,   0.000000,   0.000000 [a0]

Properties computed using the SCF density matrix

 Multipole Moments:

 ------------------------------------------------------------------------------------
     Multipole            Electronic (a.u.)      Nuclear  (a.u.)        Total (a.u.)
 ------------------------------------------------------------------------------------

 L = 1.  Multiply by 2.5417464519 to convert [e a0] to [Debye]
 Dipole X            :          0.0000000            0.0000000            0.0000000
 Dipole Y            :          0.0000000            0.0000000            0.0000000
 Dipole Z            :         -4.1371547            3.6231187           -0.5140361
 Magnitude           :                                                    0.5140361

 ------------------------------------------------------------------------------------

*** tstop() called on Joses-MacBook-Pro-2.local at Thu Jul 17 12:20:02 2025
Module time:
	user time   =       0.61 seconds =       0.01 minutes
	system time =       3.18 seconds =       0.05 minutes
	total time  =          1 seconds =       0.02 minutes
Total time:
	user time   =      25.81 seconds =       0.43 minutes
	system time =      64.13 seconds =       1.07 minutes
	total time  =         10 seconds =       0.17 minutes

*** tstart() called on Joses-MacBook-Pro-2.local
*** at Thu Jul 17 12:20:02 2025

         ------------------------------------------------------------
                                   SCF GRAD
                          Rob Parrish, Justin Turney,
                       Andy Simmonett, and Alex Sokolov
         ------------------------------------------------------------

  ==> Geometry <==

    Molecular point group: c2v
    Full point group: C_inf_v

    Geometry (in Angstrom), charge = 1, multiplicity = 6:

       Center              X                  Y                   Z               Mass
    ------------   -----------------  -----------------  -----------------  -----------------
         H            0.000000000000     0.000000000000     3.863924113686     1.007825032230
         N            0.000000000000     0.000000000000    -0.278093184623    14.003074004430

  Nuclear repulsion =    0.894308306293707

  ==> Basis Set <==

  Basis Set: CC-PVDZ
    Blend: CC-PVDZ
    Number of shells: 9
    Number of basis functions: 19
    Number of Cartesian functions: 20
    Spherical Harmonics?: true
    Max angular momentum: 2

  ==> DFJKGrad: Density-Fitted SCF Gradients <==

    Gradient:                    1
    J tasked:                  Yes
    K tasked:                  Yes
    wK tasked:                  No
    OpenMP threads:              1
    Integrals threads:           1
    Memory [MiB]:              375
    Schwarz Cutoff:          1E-12
    Fitting Condition:       1E-10

   => Auxiliary Basis Set <=

  Basis Set: (CC-PVDZ AUX)
    Blend: CC-PVDZ-JKFIT
    Number of shells: 33
    Number of basis functions: 93
    Number of Cartesian functions: 106
    Spherical Harmonics?: true
    Max angular momentum: 3

  ==> DFT Potential <==

   => LibXC <=

    Version 6.2.2
    S. Lehtola, C. Steigemann, M. J.T. Oliveira, and M. A.L. Marques.,  SoftwareX 7, 1â€“5 (2018) (10.1016/j.softx.2017.11.002)

   => Composite Functional: B3LYP <=

    B3LYP Hyb-GGA Exchange-Correlation Functional

    P. J. Stephens, F. J. Devlin, C. F. Chabalowski, and M. J. Frisch.,  J. Phys. Chem. 98, 11623 (1994) (10.1021/j100096a001)

    Deriv               =              1
    GGA                 =           TRUE
    Meta                =          FALSE

    Exchange Hybrid     =           TRUE
    MP2 Hybrid          =          FALSE

   => Exchange Functionals <=

    0.0800   Slater exchange
    0.7200         Becke 88

   => Exact (HF) Exchange <=

    0.2000               HF

   => Correlation Functionals <=

    0.1900   Vosko, Wilk & Nusair (VWN5_RPA)
    0.8100   Lee, Yang & Parr

   => LibXC Density Thresholds  <==

    XC_HYB_GGA_XC_B3LYP:  1.00E-15

   => Molecular Quadrature <=

    Radial Scheme          =       TREUTLER
    Pruning Scheme         =           NONE
    Nuclear Scheme         =       TREUTLER

    Blocking Scheme        =         OCTREE
    BS radius alpha        =              1
    Pruning alpha          =              1
    Radial Points          =             75
    Spherical Points       =            302
    Total Points           =          43973
    Total Blocks           =            412
    Max Points             =            253
    Max Functions          =             19
    Weights Tolerance      =       1.00E-15

  -Total Gradient:
     Atom            X                  Y                   Z
    ------   -----------------  -----------------  -----------------
       1        0.000000000000     0.000000000000    -0.000003470524
       2        0.000000000000    -0.000000000000     0.000002730314

*** tstop() called on Joses-MacBook-Pro-2.local at Thu Jul 17 12:20:02 2025
Module time:
	user time   =       0.25 seconds =       0.00 minutes
	system time =       1.13 seconds =       0.02 minutes
	total time  =          0 seconds =       0.00 minutes
Total time:
	user time   =      26.06 seconds =       0.43 minutes
	system time =      65.26 seconds =       1.09 minutes
	total time  =         10 seconds =       0.17 minutes

    			-----------------------------------------

    			 OPTKING 3.0: for geometry optimizations

    			     By R.A. King, Bethel University

    			        with contributions from

    			    A.V. Copan, J. Cayton, A. Heide

    			-----------------------------------------

	                            ===> Fragment 1 <==

	 Z (Atomic Numbers)          Masses                          Geom
	       1.000000             1.007825          0.00000000  0.00000000  7.30175834
	       7.000000            14.003074          0.00000000  0.00000000 -0.52551996

	 - Coordinate -           - BOHR/RAD -       - ANG/DEG -
	 R(1,2)           =         7.827278           4.142017

	        --- Internal Coordinate Step in ANG or DEG, aJ/ANG or AJ/DEG ---
	-------------------------------------------------------------------------------
	           Coordinate      Previous         Force          Change          New
	           ----------      --------        ------          ------        ------
	               R(1,2)       4.14202        0.00003        0.03498       4.17699
	-------------------------------------------------------------------------------

	                                 ==> Convergence Check <==

	Measures of convergence in internal coordinates in au.

	Criteria marked as inactive (o), active & met (*), and active & unmet ( ).

	----------------------------------------------------------------------------------------------
	   Step    Total Energy     Delta E     Max Force     RMS Force      Max Disp      RMS Disp
	----------------------------------------------------------------------------------------------
	  Convergence Criteria     1.00e-06 *    3.00e-04 *             o    1.20e-03 *             o
	----------------------------------------------------------------------------------------------
	    18     -54.31695403   -4.01e-07 *    3.10e-06 *    3.10e-06 o    6.61e-02      6.61e-02 o  ~
	----------------------------------------------------------------------------------------------

Next Geometry in Ang
	Fragment 1 (Ang)

	    H   0.0000000000   0.0000000000   3.8814119728
	    N   0.0000000000   0.0000000000  -0.2955810438

    Final optimized geometry and variables:
    Molecular point group: c2v
    Full point group: C_inf_v

    Geometry (in Angstrom), charge = 1, multiplicity = 6:

    H            0.000000000000     0.000000000000     3.863924113686
    N            0.000000000000     0.000000000000    -0.278093184623

    Psi4 stopped on: Thursday, 17 July 2025 12:20PM
    Psi4 wall time for execution: 0:00:10.07

*** Psi4 exiting successfully. Buy a developer a beer!
