                               Psi4 1.9.1 release

  ==> Input File <==

--------------------------------------------------------------------------
molecule {
1 6
O   0.00000        0.60000        0.00000
Si   0.00000       -0.60000        0.00000
}

set {
basis              cc-pvdz
reference          uks
maxiter            500
geom_maxiter       500
DAMPING_PERCENTAGE 1
guess              SAP
}

optimize('b3lyp')
--------------------------------------------------------------------------

    Molecular point group: c2v
  Charge       = 1
  Multiplicity = 6
  Basis Set: CC-PVDZ
    Blend: CC-PVDZ
  Basis Set: (CC-PVDZ AUX)
    Blend: CC-PVDZ-JKFIT
  @DF-UKS Final Energy:  -363.41430651584375
    Total Energy =                       -363.4143065158437480
 Dipole X            :          0.0000000            0.0000000            0.0000000
 Dipole Y            :          0.0000000            0.0000000            0.0000000
 Dipole Z            :          0.9655816           -0.0058478            0.9597338
 Magnitude           :                                                    0.9597338
    Molecular point group: c2v
  Basis Set: CC-PVDZ
    Blend: CC-PVDZ
  Basis Set: (CC-PVDZ AUX)
    Blend: CC-PVDZ-JKFIT
  Basis Set: CC-PVDZ
    Blend: CC-PVDZ
  Basis Set: (CC-PVDZ AUX)
    Blend: CC-PVDZ-JKFIT
  @DF-UKS Final Energy:  -363.67605398530833
    Total Energy =                       -363.6760539853083287
  Basis Set: CC-PVDZ
    Blend: CC-PVDZ
  Basis Set: (CC-PVDZ AUX)
    Blend: CC-PVDZ-JKFIT
  Basis Set: CC-PVDZ
    Blend: CC-PVDZ
  @DF-UKS Final Energy:  -363.81209415132190
    Total Energy =                       -363.8120941513219009
  @DF-UKS Final Energy:  -363.88645079388300
    Total Energy =                       -363.8864507938830570
  @DF-UKS Final Energy:  -363.92550919515702
    Total Energy =                       -363.9255091951570193
  @DF-UKS Final Energy:  -363.94557245963455
    Total Energy =                       -363.9455724596346045
  @DF-UKS Final Energy:  -363.95531443922800
    Total Energy =                       -363.9553144392280046
  @DF-UKS Final Energy:  -363.95965435002677
    Total Energy =                       -363.9596543500267671
  @DF-UKS Final Energy:  -364.02892445539294
    Total Energy =                       -364.0289244553929962
  @DF-UKS Final Energy:  -364.03033642715866
    Total Energy =                       -364.0303364271586588
  @DF-UKS Final Energy:  -364.03086867390215
    Total Energy =                       -364.0308686739021482
  @DF-UKS Final Energy:  -364.03104402283589
    Total Energy =                       -364.0310440228358289
  @DF-UKS Final Energy:  -364.02123339359173
    Total Energy =                       -364.0212333935917286
  @DF-UKS Final Energy:  -364.02162995471343
    Total Energy =                       -364.0216299547134327
  @DF-UKS Final Energy:  -364.03073670820800
    Total Energy =                       -364.0307367082079963
  @DF-UKS Final Energy:  -364.03097948823932
    Total Energy =                       -364.0309794882393248
  @DF-UKS Final Energy:  -364.03119390535767
    Total Energy =                       -364.0311939053576111
  Basis Set: (CC-PVDZ AUX)
    Blend: CC-PVDZ-JKFIT
  Basis Set: CC-PVDZ
    Blend: CC-PVDZ
  Basis Set: (CC-PVDZ AUX)
    Blend: CC-PVDZ-JKFIT
  @DF-UKS Final Energy:  -364.03120936269488
    Total Energy =                       -364.0312093626948808
  Basis Set: CC-PVDZ
    Blend: CC-PVDZ
  Basis Set: (CC-PVDZ AUX)
    Blend: CC-PVDZ-JKFIT
  Charge       = 1
  Multiplicity = 6
  Basis Set: CC-PVDZ
    Blend: CC-PVDZ
  Basis Set: (CC-PVDZ AUX)
    Blend: CC-PVDZ-JKFIT

    Orbital Energies [Eh]
    ---------------------

    Alpha Occupied:

       1A1   -66.497355     2A1   -19.705489     3A1    -5.636658
       4A1    -3.998467     1B1    -3.994817     1B2    -3.994817
       5A1    -1.414407     2B2    -0.833096     2B1    -0.833096
       6A1    -0.830248     7A1    -0.708465     3B1    -0.463930
       3B2    -0.463930

    Alpha Virtual:

       8A1    -0.344386     9A1    -0.001960    10A1     0.054744
       4B1     0.056715     4B2     0.056715     1A2     0.058365
      11A1     0.058365     5B1     0.063486     5B2     0.063486
      12A1     0.160203     6B2     0.553788     6B1     0.553788
      13A1     0.616524    14A1     1.142603     2A2     2.060673
      15A1     2.060736     7B1     2.113899     7B2     2.113899
      16A1     2.209738

    Beta Occupied:

       1A1   -66.484539     2A1   -19.644503     3A1    -5.619850
       4A1    -3.988538     1B1    -3.973034     1B2    -3.973034
       5A1    -1.233764     6A1    -0.731713

    Beta Virtual:

       2B2    -0.534295     2B1    -0.534295     7A1    -0.526394
       3B1    -0.295413     3B2    -0.295413     8A1    -0.277977
       9A1     0.030914    10A1     0.083309     4B1     0.115288
       4B2     0.115288     5B1     0.142029     5B2     0.142029
      11A1     0.177390     1A2     0.177390    12A1     0.229004
       6B2     0.662784     6B1     0.662784    13A1     0.668959
      14A1     1.228938     7B1     2.229939     7B2     2.229939
       2A2     2.241277    15A1     2.241357    16A1     2.313655

    Final Occupation by Irrep:
             A1    A2    B1    B2
    DOCC [     6,    0,    1,    1 ]
    SOCC [     1,    0,    2,    2 ]
    NA   [     7,    0,    3,    3 ]
    NB   [     6,    0,    1,    1 ]

  @DF-UKS Final Energy:  -364.03120996517043

   => Energetics <=

    Nuclear Repulsion Energy =             27.3641401614518571
    One-Electron Energy =                -551.0556138579903518
    Two-Electron Energy =                 183.0581985509992080
    DFT Exchange-Correlation Energy =     -23.3979348196310468
    Empirical Dispersion Energy =           0.0000000000000000
    VV10 Nonlocal Energy =                  0.0000000000000000
    Total Energy =                       -364.0312099651703193

  UHF NO Occupations:
  HONO-2 :    2 B2 1.0000000
  HONO-1 :    3 B2 1.0000000
  HONO-0 :    7 A1 1.0000000
  LUNO+0 :    8 A1 0.0035791
  LUNO+1 :    9 A1 0.0006467
  LUNO+2 :   10 A1 0.0000005
  LUNO+3 :   11 A1 0.0000002

Computation Completed

Properties will be evaluated at   0.000000,   0.000000,   0.000000 [a0]

Properties computed using the SCF density matrix

 Multipole Moments:

 ------------------------------------------------------------------------------------
     Multipole            Electronic (a.u.)      Nuclear  (a.u.)        Total (a.u.)
 ------------------------------------------------------------------------------------

 L = 1.  Multiply by 2.5417464519 to convert [e a0] to [Debye]
 Dipole X            :          0.0000000            0.0000000            0.0000000
 Dipole Y            :          0.0000000            0.0000000            0.0000000
 Dipole Z            :         -0.1004682           -0.0105547           -0.1110228
 Magnitude           :                                                    0.1110228

 ------------------------------------------------------------------------------------

*** tstop() called on Joses-MacBook-Pro-2.local at Thu Jul 17 14:09:46 2025
Module time:
	user time   =       2.16 seconds =       0.04 minutes
	system time =       5.14 seconds =       0.09 minutes
	total time  =          1 seconds =       0.02 minutes
Total time:
	user time   =      68.74 seconds =       1.15 minutes
	system time =     142.85 seconds =       2.38 minutes
	total time  =         22 seconds =       0.37 minutes

*** tstart() called on Joses-MacBook-Pro-2.local
*** at Thu Jul 17 14:09:46 2025

         ------------------------------------------------------------
                                   SCF GRAD
                          Rob Parrish, Justin Turney,
                       Andy Simmonett, and Alex Sokolov
         ------------------------------------------------------------

  ==> Geometry <==

    Molecular point group: c2v
    Full point group: C_inf_v

    Geometry (in Angstrom), charge = 1, multiplicity = 6:

       Center              X                  Y                   Z               Mass
    ------------   -----------------  -----------------  -----------------  -----------------
         O            0.000000000000     0.000000000000     1.378042783629    15.994914619570
         SI           0.000000000000     0.000000000000    -0.787851969335    27.976926534650

  Nuclear repulsion =   27.364140161451857

  ==> Basis Set <==

  Basis Set: CC-PVDZ
    Blend: CC-PVDZ
    Number of shells: 14
    Number of basis functions: 32
    Number of Cartesian functions: 34
    Spherical Harmonics?: true
    Max angular momentum: 2

  ==> DFJKGrad: Density-Fitted SCF Gradients <==

    Gradient:                    1
    J tasked:                  Yes
    K tasked:                  Yes
    wK tasked:                  No
    OpenMP threads:              1
    Integrals threads:           1
    Memory [MiB]:              375
    Schwarz Cutoff:          1E-12
    Fitting Condition:       1E-10

   => Auxiliary Basis Set <=

  Basis Set: (CC-PVDZ AUX)
    Blend: CC-PVDZ-JKFIT
    Number of shells: 60
    Number of basis functions: 182
    Number of Cartesian functions: 211
    Spherical Harmonics?: true
    Max angular momentum: 3

  ==> DFT Potential <==

   => LibXC <=

    Version 6.2.2
    S. Lehtola, C. Steigemann, M. J.T. Oliveira, and M. A.L. Marques.,  SoftwareX 7, 1â€“5 (2018) (10.1016/j.softx.2017.11.002)

   => Composite Functional: B3LYP <=

    B3LYP Hyb-GGA Exchange-Correlation Functional

    P. J. Stephens, F. J. Devlin, C. F. Chabalowski, and M. J. Frisch.,  J. Phys. Chem. 98, 11623 (1994) (10.1021/j100096a001)

    Deriv               =              1
    GGA                 =           TRUE
    Meta                =          FALSE

    Exchange Hybrid     =           TRUE
    MP2 Hybrid          =          FALSE

   => Exchange Functionals <=

    0.0800   Slater exchange
    0.7200         Becke 88

   => Exact (HF) Exchange <=

    0.2000               HF

   => Correlation Functionals <=

    0.1900   Vosko, Wilk & Nusair (VWN5_RPA)
    0.8100   Lee, Yang & Parr

   => LibXC Density Thresholds  <==

    XC_HYB_GGA_XC_B3LYP:  1.00E-15

   => Molecular Quadrature <=

    Radial Scheme          =       TREUTLER
    Pruning Scheme         =           NONE
    Nuclear Scheme         =       TREUTLER

    Blocking Scheme        =         OCTREE
    BS radius alpha        =              1
    Pruning alpha          =              1
    Radial Points          =             75
    Spherical Points       =            302
    Total Points           =          42761
    Total Blocks           =            389
    Max Points             =            256
    Max Functions          =             32
    Weights Tolerance      =       1.00E-15

  -Total Gradient:
     Atom            X                  Y                   Z
    ------   -----------------  -----------------  -----------------
       1        0.000000000000     0.000000000000    -0.000033655650
       2        0.000000000000     0.000000000000     0.000015947498

*** tstop() called on Joses-MacBook-Pro-2.local at Thu Jul 17 14:09:46 2025
Module time:
	user time   =       0.70 seconds =       0.01 minutes
	system time =       2.33 seconds =       0.04 minutes
	total time  =          0 seconds =       0.00 minutes
Total time:
	user time   =      69.44 seconds =       1.16 minutes
	system time =     145.18 seconds =       2.42 minutes
	total time  =         22 seconds =       0.37 minutes

    			-----------------------------------------

    			 OPTKING 3.0: for geometry optimizations

    			     By R.A. King, Bethel University

    			        with contributions from

    			    A.V. Copan, J. Cayton, A. Heide

    			-----------------------------------------

	                            ===> Fragment 1 <==

	 Z (Atomic Numbers)          Masses                          Geom
	       8.000000            15.994915          0.00000000  0.00000000  2.60412345
	      14.000000            27.976927          0.00000000  0.00000000 -1.48882445

	 - Coordinate -           - BOHR/RAD -       - ANG/DEG -
	 R(1,2)           =         4.092948           2.165895

	        --- Internal Coordinate Step in ANG or DEG, aJ/ANG or AJ/DEG ---
	-------------------------------------------------------------------------------
	           Coordinate      Previous         Force          Change          New
	           ----------      --------        ------          ------        ------
	               R(1,2)       2.16589        0.00020        0.00031       2.16620
	-------------------------------------------------------------------------------

	                                 ==> Convergence Check <==

	Measures of convergence in internal coordinates in au.

	Criteria marked as inactive (o), active & met (*), and active & unmet ( ).

	----------------------------------------------------------------------------------------------
	   Step    Total Energy     Delta E     Max Force     RMS Force      Max Disp      RMS Disp
	----------------------------------------------------------------------------------------------
	  Convergence Criteria     1.00e-06 *    3.00e-04 *             o    1.20e-03 *             o
	----------------------------------------------------------------------------------------------
	    19    -364.03120997   -6.02e-07 *    2.48e-05 *    2.48e-05 o    5.80e-04 *    5.80e-04 o  ~
	----------------------------------------------------------------------------------------------

Next Geometry in Ang
	Fragment 1 (Ang)

	    O   0.0000000000   0.0000000000   1.3781962478
	   Si   0.0000000000   0.0000000000  -0.7880054335

    Final optimized geometry and variables:
    Molecular point group: c2v
    Full point group: C_inf_v

    Geometry (in Angstrom), charge = 1, multiplicity = 6:

    O            0.000000000000     0.000000000000     1.378042783629
    SI           0.000000000000     0.000000000000    -0.787851969335

    Psi4 stopped on: Thursday, 17 July 2025 02:09PM
    Psi4 wall time for execution: 0:00:22.85

*** Psi4 exiting successfully. Buy a developer a beer!
