                               Psi4 1.9.1 release

  ==> Input File <==

--------------------------------------------------------------------------
molecule {
1 6
H   0.00000        0.60000        0.00000
P   0.00000       -0.60000        0.00000
}

set {
basis              cc-pvdz
reference          uks
maxiter            500
geom_maxiter       500
DAMPING_PERCENTAGE 1
guess              SAP
}

optimize('b3lyp')
--------------------------------------------------------------------------

    Molecular point group: c2v
  Charge       = 1
  Multiplicity = 6
  Basis Set: CC-PVDZ
    Blend: CC-PVDZ
  Basis Set: (CC-PVDZ AUX)
    Blend: CC-PVDZ-JKFIT
  @DF-UKS Final Energy:  -340.81600374966490
    Total Energy =                       -340.8160037496649011
 Dipole X            :          0.0000000            0.0000000            0.0000000
 Dipole Y            :          0.0000000            0.0000000            0.0000000
 Dipole Z            :         -0.6653701            1.1243055            0.4589354
 Magnitude           :                                                    0.4589354
    Molecular point group: c2v
  Basis Set: CC-PVDZ
    Blend: CC-PVDZ
  Basis Set: (CC-PVDZ AUX)
    Blend: CC-PVDZ-JKFIT
  Basis Set: CC-PVDZ
    Blend: CC-PVDZ
  Basis Set: (CC-PVDZ AUX)
    Blend: CC-PVDZ-JKFIT
  @DF-UKS Final Energy:  -340.97967801674878
    Total Energy =                       -340.9796780167487213
  Basis Set: CC-PVDZ
    Blend: CC-PVDZ
  Basis Set: (CC-PVDZ AUX)
    Blend: CC-PVDZ-JKFIT
  Basis Set: CC-PVDZ
    Blend: CC-PVDZ
  @DF-UKS Final Energy:  -341.06393938267996
    Total Energy =                       -341.0639393826799619
  @DF-UKS Final Energy:  -341.11581817088569
    Total Energy =                       -341.1158181708856887
  @DF-UKS Final Energy:  -341.14358681813871
    Total Energy =                       -341.1435868181387150
  @DF-UKS Final Energy:  -341.15831751027122
    Total Energy =                       -341.1583175102712175
  @DF-UKS Final Energy:  -341.16616017825550
    Total Energy =                       -341.1661601782554953
  @DF-UKS Final Energy:  -341.17021531341953
    Total Energy =                       -341.1702153134195328
  @DF-UKS Final Energy:  -341.17224935024160
    Total Energy =                       -341.1722493502416000
  @DF-UKS Final Energy:  -341.17326353678544
    Total Energy =                       -341.1732635367854414
  @DF-UKS Final Energy:  -341.17376951921887
    Total Energy =                       -341.1737695192188653
  @DF-UKS Final Energy:  -341.17402215022315
    Total Energy =                       -341.1740221502231520
  @DF-UKS Final Energy:  -341.17414985144950
    Total Energy =                       -341.1741498514495561
  @DF-UKS Final Energy:  -341.17421627953468
    Total Energy =                       -341.1742162795347895
  @DF-UKS Final Energy:  -341.17425306951714
    Total Energy =                       -341.1742530695172491
  @DF-UKS Final Energy:  -341.17427568568905
    Total Energy =                       -341.1742756856890537
  Basis Set: (CC-PVDZ AUX)
    Blend: CC-PVDZ-JKFIT
  Basis Set: CC-PVDZ
    Blend: CC-PVDZ
  Basis Set: (CC-PVDZ AUX)
    Blend: CC-PVDZ-JKFIT
  @DF-UKS Final Energy:  -341.17429103223105
    Total Energy =                       -341.1742910322310536
  Basis Set: CC-PVDZ
    Blend: CC-PVDZ
  Basis Set: (CC-PVDZ AUX)
    Blend: CC-PVDZ-JKFIT
  Charge       = 1
  Multiplicity = 6
  Basis Set: CC-PVDZ
    Blend: CC-PVDZ
  Basis Set: (CC-PVDZ AUX)
    Blend: CC-PVDZ-JKFIT

    Orbital Energies [Eh]
    ---------------------

    Alpha Occupied:

       1A1   -77.568551     2A1    -7.030616     1B1    -5.194967
       1B2    -5.194967     3A1    -5.194966     4A1    -0.993929
       2B2    -0.625297     2B1    -0.625297     5A1    -0.625277
       6A1    -0.426112

    Alpha Virtual:

       7A1     0.027081     8A1     0.058998     9A1     0.059007
       1A2     0.059007     3B1     0.059013     3B2     0.059013
      10A1     0.095051     4B2     0.095778     4B1     0.095778
      11A1     0.313880    12A1     1.102535     5B1     1.103721
       5B2     1.103721

    Beta Occupied:

       1A1   -77.544377     2A1    -7.000994     1B1    -5.161793
       1B2    -5.161793     3A1    -5.161788

    Beta Virtual:

       4A1    -0.710010     5A1    -0.385507     2B2    -0.385471
       2B1    -0.385471     6A1    -0.132859     7A1     0.115454
       8A1     0.177588     3B1     0.177834     3B2     0.177834
       9A1     0.235497    10A1     0.235497     1A2     0.235497
       4B1     0.235505     4B2     0.235505    11A1     0.526416
      12A1     1.352473     5B1     1.355161     5B2     1.355161

    Final Occupation by Irrep:
             A1    A2    B1    B2
    DOCC [     3,    0,    1,    1 ]
    SOCC [     3,    0,    1,    1 ]
    NA   [     6,    0,    2,    2 ]
    NB   [     3,    0,    1,    1 ]

  @DF-UKS Final Energy:  -341.17430225614919

   => Energetics <=

    Nuclear Repulsion Energy =              1.5988106943467151
    One-Electron Energy =                -468.7138910089740875
    Two-Electron Energy =                 144.6585967793677980
    DFT Exchange-Correlation Energy =     -18.7178187208895643
    Empirical Dispersion Energy =           0.0000000000000000
    VV10 Nonlocal Energy =                  0.0000000000000000
    Total Energy =                       -341.1743022561491898

  UHF NO Occupations:
  HONO-2 :    5 A1 1.0000000
  HONO-1 :    6 A1 1.0000000
  HONO-0 :    2 B1 1.0000000
  LUNO+0 :    3 B1 0.0000001
  LUNO+1 :    3 B2 0.0000001
  LUNO+2 :    7 A1 0.0000001
  LUNO+3 :    8 A1 0.0000000

Computation Completed

Properties will be evaluated at   0.000000,   0.000000,   0.000000 [a0]

Properties computed using the SCF density matrix

 Multipole Moments:

 ------------------------------------------------------------------------------------
     Multipole            Electronic (a.u.)      Nuclear  (a.u.)        Total (a.u.)
 ------------------------------------------------------------------------------------

 L = 1.  Multiply by 2.5417464519 to convert [e a0] to [Debye]
 Dipole X            :          0.0000000            0.0000000            0.0000000
 Dipole Y            :          0.0000000            0.0000000            0.0000000
 Dipole Z            :         -4.9387983            4.6515579           -0.2872404
 Magnitude           :                                                    0.2872404

 ------------------------------------------------------------------------------------

*** tstop() called on Joses-MacBook-Pro-2.local at Thu Jul 17 12:23:19 2025
Module time:
	user time   =       1.93 seconds =       0.03 minutes
	system time =       2.30 seconds =       0.04 minutes
	total time  =          1 seconds =       0.02 minutes
Total time:
	user time   =      56.86 seconds =       0.95 minutes
	system time =      72.03 seconds =       1.20 minutes
	total time  =         12 seconds =       0.20 minutes

*** tstart() called on Joses-MacBook-Pro-2.local
*** at Thu Jul 17 12:23:19 2025

         ------------------------------------------------------------
                                   SCF GRAD
                          Rob Parrish, Justin Turney,
                       Andy Simmonett, and Alex Sokolov
         ------------------------------------------------------------

  ==> Geometry <==

    Molecular point group: c2v
    Full point group: C_inf_v

    Geometry (in Angstrom), charge = 1, multiplicity = 6:

       Center              X                  Y                   Z               Mass
    ------------   -----------------  -----------------  -----------------  -----------------
         H            0.000000000000     0.000000000000     4.808274942273     1.007825032230
         P            0.000000000000     0.000000000000    -0.156451768723    30.973761998420

  Nuclear repulsion =    1.598810694346715

  ==> Basis Set <==

  Basis Set: CC-PVDZ
    Blend: CC-PVDZ
    Number of shells: 11
    Number of basis functions: 23
    Number of Cartesian functions: 24
    Spherical Harmonics?: true
    Max angular momentum: 2

  ==> DFJKGrad: Density-Fitted SCF Gradients <==

    Gradient:                    1
    J tasked:                  Yes
    K tasked:                  Yes
    wK tasked:                  No
    OpenMP threads:              1
    Integrals threads:           1
    Memory [MiB]:              375
    Schwarz Cutoff:          1E-12
    Fitting Condition:       1E-10

   => Auxiliary Basis Set <=

  Basis Set: (CC-PVDZ AUX)
    Blend: CC-PVDZ-JKFIT
    Number of shells: 45
    Number of basis functions: 135
    Number of Cartesian functions: 155
    Spherical Harmonics?: true
    Max angular momentum: 3

  ==> DFT Potential <==

   => LibXC <=

    Version 6.2.2
    S. Lehtola, C. Steigemann, M. J.T. Oliveira, and M. A.L. Marques.,  SoftwareX 7, 1â€“5 (2018) (10.1016/j.softx.2017.11.002)

   => Composite Functional: B3LYP <=

    B3LYP Hyb-GGA Exchange-Correlation Functional

    P. J. Stephens, F. J. Devlin, C. F. Chabalowski, and M. J. Frisch.,  J. Phys. Chem. 98, 11623 (1994) (10.1021/j100096a001)

    Deriv               =              1
    GGA                 =           TRUE
    Meta                =          FALSE

    Exchange Hybrid     =           TRUE
    MP2 Hybrid          =          FALSE

   => Exchange Functionals <=

    0.0800   Slater exchange
    0.7200         Becke 88

   => Exact (HF) Exchange <=

    0.2000               HF

   => Correlation Functionals <=

    0.1900   Vosko, Wilk & Nusair (VWN5_RPA)
    0.8100   Lee, Yang & Parr

   => LibXC Density Thresholds  <==

    XC_HYB_GGA_XC_B3LYP:  1.00E-15

   => Molecular Quadrature <=

    Radial Scheme          =       TREUTLER
    Pruning Scheme         =           NONE
    Nuclear Scheme         =       TREUTLER

    Blocking Scheme        =         OCTREE
    BS radius alpha        =              1
    Pruning alpha          =              1
    Radial Points          =             75
    Spherical Points       =            302
    Total Points           =          42878
    Total Blocks           =            435
    Max Points             =            255
    Max Functions          =             23
    Weights Tolerance      =       1.00E-15

  -Total Gradient:
     Atom            X                  Y                   Z
    ------   -----------------  -----------------  -----------------
       1        0.000000000000    -0.000000000000    -0.000017931825
       2       -0.000000000000     0.000000000000     0.000017735946

*** tstop() called on Joses-MacBook-Pro-2.local at Thu Jul 17 12:23:19 2025
Module time:
	user time   =       0.45 seconds =       0.01 minutes
	system time =       1.02 seconds =       0.02 minutes
	total time  =          0 seconds =       0.00 minutes
Total time:
	user time   =      57.31 seconds =       0.96 minutes
	system time =      73.05 seconds =       1.22 minutes
	total time  =         12 seconds =       0.20 minutes

    			-----------------------------------------

    			 OPTKING 3.0: for geometry optimizations

    			     By R.A. King, Bethel University

    			        with contributions from

    			    A.V. Copan, J. Cayton, A. Heide

    			-----------------------------------------

	                            ===> Fragment 1 <==

	 Z (Atomic Numbers)          Masses                          Geom
	       1.000000             1.007825          0.00000000  0.00000000  9.08632278
	      15.000000            30.973762          0.00000000  0.00000000 -0.29565099

	 - Coordinate -           - BOHR/RAD -       - ANG/DEG -
	 R(1,2)           =         9.381974           4.964727

	        --- Internal Coordinate Step in ANG or DEG, aJ/ANG or AJ/DEG ---
	-------------------------------------------------------------------------------
	           Coordinate      Previous         Force          Change          New
	           ----------      --------        ------          ------        ------
	               R(1,2)       4.96473        0.00015        0.00015       4.96488
	-------------------------------------------------------------------------------

	                                 ==> Convergence Check <==

	Measures of convergence in internal coordinates in au.

	Criteria marked as inactive (o), active & met (*), and active & unmet ( ).

	----------------------------------------------------------------------------------------------
	   Step    Total Energy     Delta E     Max Force     RMS Force      Max Disp      RMS Disp
	----------------------------------------------------------------------------------------------
	  Convergence Criteria     1.00e-06 *    3.00e-04 *             o    1.20e-03 *             o
	----------------------------------------------------------------------------------------------
	    18    -341.17430226   -1.12e-05      1.78e-05 *    1.78e-05 o    2.87e-04 *    2.87e-04 o  ~
	----------------------------------------------------------------------------------------------

Next Geometry in Ang
	Fragment 1 (Ang)

	    H   0.0000000000   0.0000000000   4.8083508265
	    P   0.0000000000   0.0000000000  -0.1565276529

    Final optimized geometry and variables:
    Molecular point group: c2v
    Full point group: C_inf_v

    Geometry (in Angstrom), charge = 1, multiplicity = 6:

    H            0.000000000000     0.000000000000     4.808274942273
    P            0.000000000000     0.000000000000    -0.156451768723

    Psi4 stopped on: Thursday, 17 July 2025 12:23PM
    Psi4 wall time for execution: 0:00:12.85

*** Psi4 exiting successfully. Buy a developer a beer!
