                               Psi4 1.9.1 release

  ==> Input File <==

--------------------------------------------------------------------------
molecule {
1 6
Ne   0.00000        0.60000        0.00000
Si   0.00000       -0.60000        0.00000
}

set {
basis              cc-pvdz
reference          uks
maxiter            500
geom_maxiter       500
DAMPING_PERCENTAGE 1
guess              SAP
}

optimize('b3lyp')
--------------------------------------------------------------------------

    Molecular point group: c2v
  Charge       = 1
  Multiplicity = 6
  Basis Set: CC-PVDZ
    Blend: CC-PVDZ
  Basis Set: (CC-PVDZ AUX)
    Blend: CC-PVDZ-JKFIT
  @DF-UKS Final Energy:  -416.45811798749901
    Total Energy =                       -416.4581179874990084
 Dipole X            :          0.0000000            0.0000000            0.0000000
 Dipole Y            :          0.0000000            0.0000000            0.0000000
 Dipole Z            :          1.1506094           -0.0059043            1.1447051
 Magnitude           :                                                    1.1447051
    Molecular point group: c2v
  Basis Set: CC-PVDZ
    Blend: CC-PVDZ
  Basis Set: (CC-PVDZ AUX)
    Blend: CC-PVDZ-JKFIT
  Basis Set: CC-PVDZ
    Blend: CC-PVDZ
  Basis Set: (CC-PVDZ AUX)
    Blend: CC-PVDZ-JKFIT
  @DF-UKS Final Energy:  -416.79698602991044
    Total Energy =                       -416.7969860299103857
  Basis Set: CC-PVDZ
    Blend: CC-PVDZ
  Basis Set: (CC-PVDZ AUX)
    Blend: CC-PVDZ-JKFIT
  Basis Set: CC-PVDZ
    Blend: CC-PVDZ
  @DF-UKS Final Energy:  -417.01061975658041
    Total Energy =                       -417.0106197565804109
  @DF-UKS Final Energy:  -417.15528910529804
    Total Energy =                       -417.1552891052980385
  @DF-UKS Final Energy:  -417.25054756977568
    Total Energy =                       -417.2505475697756765
  @DF-UKS Final Energy:  -417.30100441182884
    Total Energy =                       -417.3010044118288420
  @DF-UKS Final Energy:  -417.32725284211534
    Total Energy =                       -417.3272528421153424
  @DF-UKS Final Energy:  -417.34048331434684
    Total Energy =                       -417.3404833143468409
  @DF-UKS Final Energy:  -417.34694121445261
    Total Energy =                       -417.3469412144525563
  @DF-UKS Final Energy:  -417.34995422985349
    Total Energy =                       -417.3499542298534948
  @DF-UKS Final Energy:  -417.35124508107538
    Total Energy =                       -417.3512450810753762
  @DF-UKS Final Energy:  -417.35171740556160
    Total Energy =                       -417.3517174055616010
  @DF-UKS Final Energy:  -417.35185013052342
    Total Energy =                       -417.3518501305234167
  @DF-UKS Final Energy:  -417.35186822772386
    Total Energy =                       -417.3518682277238554
  Basis Set: (CC-PVDZ AUX)
    Blend: CC-PVDZ-JKFIT
  Basis Set: CC-PVDZ
    Blend: CC-PVDZ
  Basis Set: (CC-PVDZ AUX)
    Blend: CC-PVDZ-JKFIT
  @DF-UKS Final Energy:  -417.35187115617896
    Total Energy =                       -417.3518711561790155
  Basis Set: CC-PVDZ
    Blend: CC-PVDZ
  Basis Set: (CC-PVDZ AUX)
    Blend: CC-PVDZ-JKFIT
  Charge       = 1
  Multiplicity = 6
  Basis Set: CC-PVDZ
    Blend: CC-PVDZ
  Basis Set: (CC-PVDZ AUX)
    Blend: CC-PVDZ-JKFIT

    Orbital Energies [Eh]
    ---------------------

    Alpha Occupied:

       1A1   -66.359725     2A1   -31.845551     3A1    -5.503857
       4A1    -3.864172     1B2    -3.863520     1B1    -3.863513
       5A1    -2.211632     2B2    -1.384342     6A1    -1.274183
       2B1    -1.274037     7A1    -0.659049     8A1    -0.385021
       3B2    -0.370658     3B1    -0.370499

    Alpha Virtual:

       9A1     0.050428    10A1     0.128767     4B2     0.135767
       4B1     0.136137    11A1     0.147524     5B2     0.152151
       5B1     0.152283     1A2     0.159024    12A1     0.159024
       6B2     0.709982     6B1     0.768459    13A1     0.804936
      14A1     1.201821    15A1     3.886810     2A2     3.912806
       7B2     3.912997     7B1     3.996219    16A1     3.996732

    Beta Occupied:

       1A1   -66.343628     2A1   -31.805417     3A1    -5.482811
       4A1    -3.842053     1B2    -3.840729     1B1    -3.840715
       5A1    -2.103443     2B1    -1.234405     6A1    -1.234298

    Beta Virtual:

       2B2    -1.022074     7A1    -0.430147     8A1    -0.202100
       3B1    -0.181796     3B2    -0.181781     9A1     0.123747
      10A1     0.202044     4B1     0.213036     4B2     0.213188
      11A1     0.290482     5B2     0.294931     5B1     0.295029
       1A2     0.302721    12A1     0.302729     6B1     0.786561
       6B2     0.823139    13A1     0.825675    14A1     1.254371
       7B1     4.015274    15A1     4.015776     2A2     4.026987
       7B2     4.027302    16A1     4.050995

    Final Occupation by Irrep:
             A1    A2    B1    B2
    DOCC [     6,    0,    2,    1 ]
    SOCC [     2,    0,    1,    2 ]
    NA   [     8,    0,    3,    3 ]
    NB   [     6,    0,    2,    1 ]

  @DF-UKS Final Energy:  -417.35187176611652

   => Energetics <=

    Nuclear Repulsion Energy =             21.2461385625845587
    One-Electron Energy =                -615.3614985795670691
    Two-Electron Energy =                 203.2114392450857565
    DFT Exchange-Correlation Energy =     -26.4479509942197559
    Empirical Dispersion Energy =           0.0000000000000000
    VV10 Nonlocal Energy =                  0.0000000000000000
    Total Energy =                       -417.3518717661165169

  UHF NO Occupations:
  HONO-2 :    3 B1 1.0000000
  HONO-1 :    3 B2 1.0000000
  HONO-0 :    8 A1 1.0000000
  LUNO+0 :    9 A1 0.0002609
  LUNO+1 :   10 A1 0.0000482
  LUNO+2 :    4 B1 0.0000430
  LUNO+3 :   11 A1 0.0000002

Computation Completed

Properties will be evaluated at   0.000000,   0.000000,   0.000000 [a0]

Properties computed using the SCF density matrix

 Multipole Moments:

 ------------------------------------------------------------------------------------
     Multipole            Electronic (a.u.)      Nuclear  (a.u.)        Total (a.u.)
 ------------------------------------------------------------------------------------

 L = 1.  Multiply by 2.5417464519 to convert [e a0] to [Debye]
 Dipole X            :          0.0000000            0.0000000            0.0000000
 Dipole Y            :          0.0000000            0.0000000            0.0000000
 Dipole Z            :          3.5111362           -0.0171568            3.4939794
 Magnitude           :                                                    3.4939794

 ------------------------------------------------------------------------------------

*** tstop() called on Joses-MacBook-Pro-2.local at Thu Jul 17 14:41:05 2025
Module time:
	user time   =       4.10 seconds =       0.07 minutes
	system time =       2.43 seconds =       0.04 minutes
	total time  =          1 seconds =       0.02 minutes
Total time:
	user time   =      67.81 seconds =       1.13 minutes
	system time =      80.16 seconds =       1.34 minutes
	total time  =         15 seconds =       0.25 minutes

*** tstart() called on Joses-MacBook-Pro-2.local
*** at Thu Jul 17 14:41:05 2025

         ------------------------------------------------------------
                                   SCF GRAD
                          Rob Parrish, Justin Turney,
                       Andy Simmonett, and Alex Sokolov
         ------------------------------------------------------------

  ==> Geometry <==

    Molecular point group: c2v
    Full point group: C_inf_v

    Geometry (in Angstrom), charge = 1, multiplicity = 6:

       Center              X                  Y                   Z               Mass
    ------------   -----------------  -----------------  -----------------  -----------------
         NE           0.000000000000     0.000000000000     2.033691981941    19.992440176200
         SI           0.000000000000     0.000000000000    -1.453285629335    27.976926534650

  Nuclear repulsion =   21.246138562584559

  ==> Basis Set <==

  Basis Set: CC-PVDZ
    Blend: CC-PVDZ
    Number of shells: 14
    Number of basis functions: 32
    Number of Cartesian functions: 34
    Spherical Harmonics?: true
    Max angular momentum: 2

  ==> DFJKGrad: Density-Fitted SCF Gradients <==

    Gradient:                    1
    J tasked:                  Yes
    K tasked:                  Yes
    wK tasked:                  No
    OpenMP threads:              1
    Integrals threads:           1
    Memory [MiB]:              375
    Schwarz Cutoff:          1E-12
    Fitting Condition:       1E-10

   => Auxiliary Basis Set <=

  Basis Set: (CC-PVDZ AUX)
    Blend: CC-PVDZ-JKFIT
    Number of shells: 60
    Number of basis functions: 182
    Number of Cartesian functions: 211
    Spherical Harmonics?: true
    Max angular momentum: 3

  ==> DFT Potential <==

   => LibXC <=

    Version 6.2.2
    S. Lehtola, C. Steigemann, M. J.T. Oliveira, and M. A.L. Marques.,  SoftwareX 7, 1â€“5 (2018) (10.1016/j.softx.2017.11.002)

   => Composite Functional: B3LYP <=

    B3LYP Hyb-GGA Exchange-Correlation Functional

    P. J. Stephens, F. J. Devlin, C. F. Chabalowski, and M. J. Frisch.,  J. Phys. Chem. 98, 11623 (1994) (10.1021/j100096a001)

    Deriv               =              1
    GGA                 =           TRUE
    Meta                =          FALSE

    Exchange Hybrid     =           TRUE
    MP2 Hybrid          =          FALSE

   => Exchange Functionals <=

    0.0800   Slater exchange
    0.7200         Becke 88

   => Exact (HF) Exchange <=

    0.2000               HF

   => Correlation Functionals <=

    0.1900   Vosko, Wilk & Nusair (VWN5_RPA)
    0.8100   Lee, Yang & Parr

   => LibXC Density Thresholds  <==

    XC_HYB_GGA_XC_B3LYP:  1.00E-15

   => Molecular Quadrature <=

    Radial Scheme          =       TREUTLER
    Pruning Scheme         =           NONE
    Nuclear Scheme         =       TREUTLER

    Blocking Scheme        =         OCTREE
    BS radius alpha        =              1
    Pruning alpha          =              1
    Radial Points          =             75
    Spherical Points       =            302
    Total Points           =          43068
    Total Blocks           =            394
    Max Points             =            256
    Max Functions          =             32
    Weights Tolerance      =       1.00E-15

  -Total Gradient:
     Atom            X                  Y                   Z
    ------   -----------------  -----------------  -----------------
       1        0.000000000000     0.000000000000    -0.000006501785
       2        0.000000000000     0.000000000000     0.000027169125

*** tstop() called on Joses-MacBook-Pro-2.local at Thu Jul 17 14:41:05 2025
Module time:
	user time   =       1.09 seconds =       0.02 minutes
	system time =       1.92 seconds =       0.03 minutes
	total time  =          0 seconds =       0.00 minutes
Total time:
	user time   =      68.90 seconds =       1.15 minutes
	system time =      82.08 seconds =       1.37 minutes
	total time  =         15 seconds =       0.25 minutes

    			-----------------------------------------

    			 OPTKING 3.0: for geometry optimizations

    			     By R.A. King, Bethel University

    			        with contributions from

    			    A.V. Copan, J. Cayton, A. Heide

    			-----------------------------------------

	                            ===> Fragment 1 <==

	 Z (Atomic Numbers)          Masses                          Geom
	      10.000000            19.992440          0.00000000  0.00000000  3.84312087
	      14.000000            27.976927          0.00000000  0.00000000 -2.74631182

	 - Coordinate -           - BOHR/RAD -       - ANG/DEG -
	 R(1,2)           =         6.589433           3.486978

	        --- Internal Coordinate Step in ANG or DEG, aJ/ANG or AJ/DEG ---
	-------------------------------------------------------------------------------
	           Coordinate      Previous         Force          Change          New
	           ----------      --------        ------          ------        ------
	               R(1,2)       3.48698        0.00014        0.00226       3.48924
	-------------------------------------------------------------------------------

	                                 ==> Convergence Check <==

	Measures of convergence in internal coordinates in au.

	Criteria marked as inactive (o), active & met (*), and active & unmet ( ).

	----------------------------------------------------------------------------------------------
	   Step    Total Energy     Delta E     Max Force     RMS Force      Max Disp      RMS Disp
	----------------------------------------------------------------------------------------------
	  Convergence Criteria     1.00e-06 *    3.00e-04 *             o    1.20e-03 *             o
	----------------------------------------------------------------------------------------------
	    16    -417.35187177   -6.10e-07 *    1.68e-05 *    1.68e-05 o    4.27e-03      4.27e-03 o  ~
	----------------------------------------------------------------------------------------------

Next Geometry in Ang
	Fragment 1 (Ang)

	   Ne   0.0000000000   0.0000000000   2.0348215207
	   Si   0.0000000000   0.0000000000  -1.4544151681

    Final optimized geometry and variables:
    Molecular point group: c2v
    Full point group: C_inf_v

    Geometry (in Angstrom), charge = 1, multiplicity = 6:

    NE           0.000000000000     0.000000000000     2.033691981941
    SI           0.000000000000     0.000000000000    -1.453285629335

    Psi4 stopped on: Thursday, 17 July 2025 02:41PM
    Psi4 wall time for execution: 0:00:16.00

*** Psi4 exiting successfully. Buy a developer a beer!
