                               Psi4 1.9.1 release

  ==> Input File <==

--------------------------------------------------------------------------
molecule {
1 6
O   0.00000        0.60000        0.00000
Ar   0.00000       -0.60000        0.00000
}

set {
basis              cc-pvdz
reference          uks
maxiter            500
geom_maxiter       500
DAMPING_PERCENTAGE 1
guess              SAP
}

optimize('b3lyp')
--------------------------------------------------------------------------

    Molecular point group: c2v
  Charge       = 1
  Multiplicity = 6
  Basis Set: CC-PVDZ
    Blend: CC-PVDZ
  Basis Set: (CC-PVDZ AUX)
    Blend: CC-PVDZ-JKFIT
  @DF-UKS Final Energy:  -600.57839907545531
    Total Energy =                       -600.5783990754553088
 Dipole X            :          0.0000000            0.0000000            0.0000000
 Dipole Y            :          0.0000000            0.0000000            0.0000000
 Dipole Z            :         -0.3667770            1.2883152            0.9215382
 Magnitude           :                                                    0.9215382
    Molecular point group: c2v
  Basis Set: CC-PVDZ
    Blend: CC-PVDZ
  Basis Set: (CC-PVDZ AUX)
    Blend: CC-PVDZ-JKFIT
  Basis Set: CC-PVDZ
    Blend: CC-PVDZ
  Basis Set: (CC-PVDZ AUX)
    Blend: CC-PVDZ-JKFIT
  @DF-UKS Final Energy:  -600.77587670733760
    Total Energy =                       -600.7758767073377157
  Basis Set: CC-PVDZ
    Blend: CC-PVDZ
  Basis Set: (CC-PVDZ AUX)
    Blend: CC-PVDZ-JKFIT
  Basis Set: CC-PVDZ
    Blend: CC-PVDZ
  @DF-UKS Final Energy:  -600.92315987457164
    Total Energy =                       -600.9231598745715246
  @DF-UKS Final Energy:  -601.11478123394227
    Total Energy =                       -601.1147812339422671
  @DF-UKS Final Energy:  -601.17175079319838
    Total Energy =                       -601.1717507931982709
  @DF-UKS Final Energy:  -601.17818200176578
    Total Energy =                       -601.1781820017657765
  @DF-UKS Final Energy:  -601.17990876304407
    Total Energy =                       -601.1799087630441818
  @DF-UKS Final Energy:  -601.18001075130826
    Total Energy =                       -601.1800107513082594
  Basis Set: (CC-PVDZ AUX)
    Blend: CC-PVDZ-JKFIT
  Basis Set: CC-PVDZ
    Blend: CC-PVDZ
  Basis Set: (CC-PVDZ AUX)
    Blend: CC-PVDZ-JKFIT
  @DF-UKS Final Energy:  -601.18001705964195
    Total Energy =                       -601.1800170596419548
  Basis Set: CC-PVDZ
    Blend: CC-PVDZ
  Basis Set: (CC-PVDZ AUX)
    Blend: CC-PVDZ-JKFIT
  Charge       = 1
  Multiplicity = 6
  Basis Set: CC-PVDZ
    Blend: CC-PVDZ
  Basis Set: (CC-PVDZ AUX)
    Blend: CC-PVDZ-JKFIT

    Orbital Energies [Eh]
    ---------------------

    Alpha Occupied:

       1A1  -115.542350     2A1   -19.843260     3A1   -11.562362
       4A1    -9.131255     1B1    -9.109845     1B2    -9.109845
       5A1    -1.552151     6A1    -1.381170     7A1    -0.998759
       2B1    -0.942145     2B2    -0.942145     3B1    -0.801840
       3B2    -0.801840     8A1    -0.796414     9A1     0.151346

    Alpha Virtual:

       4B1     0.241305     4B2     0.241305     5B1     0.356594
       5B2     0.356594    10A1     0.363244    11A1     0.393822
      12A1     0.448562     1A2     0.448562    13A1     0.502299
       6B1     0.536085     6B2     0.536085    14A1     1.064798
       7B1     1.963681     7B2     1.963681     2A2     1.964731
      15A1     1.964775    16A1     2.083963

    Beta Occupied:

       1A1  -115.526427     2A1   -19.764779     3A1   -11.546626
       1B1    -9.096118     1B2    -9.096118     4A1    -9.090387
       5A1    -1.349292     6A1    -1.254248     2B1    -0.757645
       2B2    -0.757645

    Beta Virtual:

       7A1    -0.710588     3B2    -0.632974     3B1    -0.632974
       8A1    -0.515635     4B1     0.283413     4B2     0.283413
       9A1     0.336079     5B2     0.443449     5B1     0.443449
      10A1     0.448940    11A1     0.485321    12A1     0.494609
       1A2     0.494610     6B2     0.626694     6B1     0.626694
      13A1     0.632782    14A1     1.164296     2A2     2.125704
      15A1     2.125764     7B2     2.135121     7B1     2.135121
      16A1     2.253376

    Final Occupation by Irrep:
             A1    A2    B1    B2
    DOCC [     6,    0,    2,    2 ]
    SOCC [     3,    0,    1,    1 ]
    NA   [     9,    0,    3,    3 ]
    NB   [     6,    0,    2,    2 ]

  @DF-UKS Final Energy:  -601.18001744698233

   => Energetics <=

    Nuclear Repulsion Energy =             37.6137931325611774
    One-Electron Energy =                -894.6318357793411451
    Two-Electron Energy =                 287.2434280500621071
    DFT Exchange-Correlation Energy =     -31.4054028502645330
    Empirical Dispersion Energy =           0.0000000000000000
    VV10 Nonlocal Energy =                  0.0000000000000000
    Total Energy =                       -601.1800174469823332

  UHF NO Occupations:
  HONO-2 :    8 A1 1.0000000
  HONO-1 :    3 B2 1.0000000
  HONO-0 :    9 A1 1.0000000
  LUNO+0 :    4 B2 0.0009179
  LUNO+1 :    4 B1 0.0009179
  LUNO+2 :   10 A1 0.0008844
  LUNO+3 :   11 A1 0.0004824

Computation Completed

Properties will be evaluated at   0.000000,   0.000000,   0.000000 [a0]

Properties computed using the SCF density matrix

 Multipole Moments:

 ------------------------------------------------------------------------------------
     Multipole            Electronic (a.u.)      Nuclear  (a.u.)        Total (a.u.)
 ------------------------------------------------------------------------------------

 L = 1.  Multiply by 2.5417464519 to convert [e a0] to [Debye]
 Dipole X            :          0.0000000            0.0000000            0.0000000
 Dipole Y            :          0.0000000            0.0000000            0.0000000
 Dipole Z            :         -0.3538677            2.1749906            1.8211229
 Magnitude           :                                                    1.8211229

 ------------------------------------------------------------------------------------

*** tstop() called on Joses-MacBook-Pro-2.local at Thu Jul 17 14:24:35 2025
Module time:
	user time   =       3.52 seconds =       0.06 minutes
	system time =       3.56 seconds =       0.06 minutes
	total time  =          0 seconds =       0.00 minutes
Total time:
	user time   =      53.74 seconds =       0.90 minutes
	system time =      57.38 seconds =       0.96 minutes
	total time  =         10 seconds =       0.17 minutes

*** tstart() called on Joses-MacBook-Pro-2.local
*** at Thu Jul 17 14:24:35 2025

         ------------------------------------------------------------
                                   SCF GRAD
                          Rob Parrish, Justin Turney,
                       Andy Simmonett, and Alex Sokolov
         ------------------------------------------------------------

  ==> Geometry <==

    Molecular point group: c2v
    Full point group: C_inf_v

    Geometry (in Angstrom), charge = 1, multiplicity = 6:

       Center              X                  Y                   Z               Mass
    ------------   -----------------  -----------------  -----------------  -----------------
         O            0.000000000000     0.000000000000     1.446808790049    15.994914619570
         AR           0.000000000000     0.000000000000    -0.579084160123    39.962383123700

  Nuclear repulsion =   37.613793132561177

  ==> Basis Set <==

  Basis Set: CC-PVDZ
    Blend: CC-PVDZ
    Number of shells: 14
    Number of basis functions: 32
    Number of Cartesian functions: 34
    Spherical Harmonics?: true
    Max angular momentum: 2

  ==> DFJKGrad: Density-Fitted SCF Gradients <==

    Gradient:                    1
    J tasked:                  Yes
    K tasked:                  Yes
    wK tasked:                  No
    OpenMP threads:              1
    Integrals threads:           1
    Memory [MiB]:              375
    Schwarz Cutoff:          1E-12
    Fitting Condition:       1E-10

   => Auxiliary Basis Set <=

  Basis Set: (CC-PVDZ AUX)
    Blend: CC-PVDZ-JKFIT
    Number of shells: 60
    Number of basis functions: 182
    Number of Cartesian functions: 211
    Spherical Harmonics?: true
    Max angular momentum: 3

  ==> DFT Potential <==

   => LibXC <=

    Version 6.2.2
    S. Lehtola, C. Steigemann, M. J.T. Oliveira, and M. A.L. Marques.,  SoftwareX 7, 1â€“5 (2018) (10.1016/j.softx.2017.11.002)

   => Composite Functional: B3LYP <=

    B3LYP Hyb-GGA Exchange-Correlation Functional

    P. J. Stephens, F. J. Devlin, C. F. Chabalowski, and M. J. Frisch.,  J. Phys. Chem. 98, 11623 (1994) (10.1021/j100096a001)

    Deriv               =              1
    GGA                 =           TRUE
    Meta                =          FALSE

    Exchange Hybrid     =           TRUE
    MP2 Hybrid          =          FALSE

   => Exchange Functionals <=

    0.0800   Slater exchange
    0.7200         Becke 88

   => Exact (HF) Exchange <=

    0.2000               HF

   => Correlation Functionals <=

    0.1900   Vosko, Wilk & Nusair (VWN5_RPA)
    0.8100   Lee, Yang & Parr

   => LibXC Density Thresholds  <==

    XC_HYB_GGA_XC_B3LYP:  1.00E-15

   => Molecular Quadrature <=

    Radial Scheme          =       TREUTLER
    Pruning Scheme         =           NONE
    Nuclear Scheme         =       TREUTLER

    Blocking Scheme        =         OCTREE
    BS radius alpha        =              1
    Pruning alpha          =              1
    Radial Points          =             75
    Spherical Points       =            302
    Total Points           =          41070
    Total Blocks           =            365
    Max Points             =            253
    Max Functions          =             32
    Weights Tolerance      =       1.00E-15

  -Total Gradient:
     Atom            X                  Y                   Z
    ------   -----------------  -----------------  -----------------
       1        0.000000000000     0.000000000000    -0.000098645948
       2        0.000000000000    -0.000000000000     0.000093971383

*** tstop() called on Joses-MacBook-Pro-2.local at Thu Jul 17 14:24:35 2025
Module time:
	user time   =       0.76 seconds =       0.01 minutes
	system time =       1.74 seconds =       0.03 minutes
	total time  =          0 seconds =       0.00 minutes
Total time:
	user time   =      54.50 seconds =       0.91 minutes
	system time =      59.12 seconds =       0.99 minutes
	total time  =         10 seconds =       0.17 minutes

    			-----------------------------------------

    			 OPTKING 3.0: for geometry optimizations

    			     By R.A. King, Bethel University

    			        with contributions from

    			    A.V. Copan, J. Cayton, A. Heide

    			-----------------------------------------

	                            ===> Fragment 1 <==

	 Z (Atomic Numbers)          Masses                          Geom
	       8.000000            15.994915          0.00000000  0.00000000  2.73407237
	      18.000000            39.962383          0.00000000  0.00000000 -1.09431047

	 - Coordinate -           - BOHR/RAD -       - ANG/DEG -
	 R(1,2)           =         3.828383           2.025893

	        --- Internal Coordinate Step in ANG or DEG, aJ/ANG or AJ/DEG ---
	-------------------------------------------------------------------------------
	           Coordinate      Previous         Force          Change          New
	           ----------      --------        ------          ------        ------
	               R(1,2)       2.02589        0.00079        0.00027       2.02617
	-------------------------------------------------------------------------------

	                                 ==> Convergence Check <==

	Measures of convergence in internal coordinates in au.

	Criteria marked as inactive (o), active & met (*), and active & unmet ( ).

	----------------------------------------------------------------------------------------------
	   Step    Total Energy     Delta E     Max Force     RMS Force      Max Disp      RMS Disp
	----------------------------------------------------------------------------------------------
	  Convergence Criteria     1.00e-06 *    3.00e-04 *             o    1.20e-03 *             o
	----------------------------------------------------------------------------------------------
	    10    -601.18001745   -3.87e-07 *    9.63e-05 *    9.63e-05 o    5.16e-04 *    5.16e-04 o  ~
	----------------------------------------------------------------------------------------------

Next Geometry in Ang
	Fragment 1 (Ang)

	    O   0.0000000000   0.0000000000   1.4469452875
	   Ar   0.0000000000   0.0000000000  -0.5792206576

    Final optimized geometry and variables:
    Molecular point group: c2v
    Full point group: C_inf_v

    Geometry (in Angstrom), charge = 1, multiplicity = 6:

    O            0.000000000000     0.000000000000     1.446808790049
    AR           0.000000000000     0.000000000000    -0.579084160123

    Psi4 stopped on: Thursday, 17 July 2025 02:24PM
    Psi4 wall time for execution: 0:00:11.47

*** Psi4 exiting successfully. Buy a developer a beer!
