                               Psi4 1.9.1 release

  ==> Input File <==

--------------------------------------------------------------------------
molecule {
1 6
N   0.00000        0.60000        0.00000
Na   0.00000       -0.60000        0.00000
}

set {
basis              cc-pvdz
reference          uks
maxiter            500
geom_maxiter       500
DAMPING_PERCENTAGE 1
guess              SAP
}

optimize('b3lyp')
--------------------------------------------------------------------------

    Molecular point group: c2v
  Charge       = 1
  Multiplicity = 6
  Basis Set: CC-PVDZ
    Blend: CC-PVDZ
  Basis Set: (CC-PVDZ AUX)
    Blend: CC-PVDZ-JKFIT + DEF2-UNIVERSAL-JKFIT
  @DF-UKS Final Energy:  -215.53457251108631
    Total Energy =                       -215.5345725110863100
 Dipole X            :          0.0000000            0.0000000            0.0000000
 Dipole Y            :          0.0000000            0.0000000            0.0000000
 Dipole Z            :          0.6527329            0.4226391            1.0753719
 Magnitude           :                                                    1.0753719
    Molecular point group: c2v
  Basis Set: CC-PVDZ
    Blend: CC-PVDZ
  Basis Set: (CC-PVDZ AUX)
    Blend: CC-PVDZ-JKFIT + DEF2-UNIVERSAL-JKFIT
  Basis Set: CC-PVDZ
    Blend: CC-PVDZ
  Basis Set: (CC-PVDZ AUX)
    Blend: CC-PVDZ-JKFIT + DEF2-UNIVERSAL-JKFIT
  @DF-UKS Final Energy:  -215.72114324734085
    Total Energy =                       -215.7211432473408763
  Basis Set: CC-PVDZ
    Blend: CC-PVDZ
  Basis Set: (CC-PVDZ AUX)
    Blend: CC-PVDZ-JKFIT + DEF2-UNIVERSAL-JKFIT
  Basis Set: CC-PVDZ
    Blend: CC-PVDZ
  @DF-UKS Final Energy:  -215.84896456170725
    Total Energy =                       -215.8489645617072483
  @DF-UKS Final Energy:  -215.93167644284080
    Total Energy =                       -215.9316764428408248
  @DF-UKS Final Energy:  -215.98929188099049
    Total Energy =                       -215.9892918809904927
  @DF-UKS Final Energy:  -216.02994349391693
    Total Energy =                       -216.0299434939169601
  @DF-UKS Final Energy:  -216.06250331632046
    Total Energy =                       -216.0625033163204591
  @DF-UKS Final Energy:  -216.06784051258637
    Total Energy =                       -216.0678405125863719
  @DF-UKS Final Energy:  -216.09447310576994
    Total Energy =                       -216.0944731057699357
  @DF-UKS Final Energy:  -216.09682503978487
    Total Energy =                       -216.0968250397848749
  @DF-UKS Final Energy:  -216.11070530014811
    Total Energy =                       -216.1107053001481120
  @DF-UKS Final Energy:  -216.11146390598375
    Total Energy =                       -216.1114639059837828
  @DF-UKS Final Energy:  -216.11733595733861
    Total Energy =                       -216.1173359573386108
  @DF-UKS Final Energy:  -216.11750787569730
    Total Energy =                       -216.1175078756972994
  @DF-UKS Final Energy:  -216.11941833379336
    Total Energy =                       -216.1194183337933623
  @DF-UKS Final Energy:  -216.11976576114407
    Total Energy =                       -216.1197657611440661
  @DF-UKS Final Energy:  -216.11980949169512
    Total Energy =                       -216.1198094916951220
  Basis Set: (CC-PVDZ AUX)
    Blend: CC-PVDZ-JKFIT + DEF2-UNIVERSAL-JKFIT
  Basis Set: CC-PVDZ
    Blend: CC-PVDZ
  Basis Set: (CC-PVDZ AUX)
    Blend: CC-PVDZ-JKFIT + DEF2-UNIVERSAL-JKFIT
  @DF-UKS Final Energy:  -216.11981097142004
    Total Energy =                       -216.1198109714200370
  Basis Set: CC-PVDZ
    Blend: CC-PVDZ
  Basis Set: (CC-PVDZ AUX)
    Blend: CC-PVDZ-JKFIT + DEF2-UNIVERSAL-JKFIT
  Charge       = 1
  Multiplicity = 6
  Basis Set: CC-PVDZ
    Blend: CC-PVDZ
  Basis Set: (CC-PVDZ AUX)
    Blend: CC-PVDZ-JKFIT + DEF2-UNIVERSAL-JKFIT

    Orbital Energies [Eh]
    ---------------------

    Alpha Occupied:

       1A1   -38.619927     2A1   -15.039560     3A1    -2.364597
       4A1    -1.329266     1B1    -1.295491     1B2    -1.295491
       5A1    -1.295395     2B2    -0.862488     2B1    -0.862488
       6A1    -0.861942     7A1    -0.269662

    Alpha Virtual:

       8A1    -0.148655     3B1    -0.134210     3B2    -0.134210
       9A1    -0.084222     4B1    -0.029135     4B2    -0.029135
      10A1    -0.028200    11A1     0.022787     5B1     0.028420
       5B2     0.028420    12A1     0.044062     1A2     0.044063
       6B1     0.271697     6B2     0.271697    13A1     0.303927
      14A1     0.472951     2A2     1.178532    15A1     1.178565
       7B2     1.180479     7B1     1.180479    16A1     1.185699

    Beta Occupied:

       1A1   -38.618569     2A1   -14.934744     3A1    -2.361946
       1B1    -1.293837     1B2    -1.293837     4A1    -1.293229

    Beta Virtual:

       5A1    -0.850263     2B2    -0.438097     2B1    -0.438097
       6A1    -0.437037     7A1    -0.195793     8A1    -0.124156
       3B1    -0.110276     3B2    -0.110276     9A1    -0.053881
      10A1    -0.019652     4B1    -0.017220     4B2    -0.017220
      11A1     0.052282     5B2     0.053394     5B1     0.053394
      12A1     0.062604     1A2     0.062606     6B2     0.423289
       6B1     0.423289    13A1     0.457376    14A1     0.644971
       2A2     1.477449    15A1     1.477661     7B2     1.479793
       7B1     1.479793    16A1     1.484466

    Final Occupation by Irrep:
             A1    A2    B1    B2
    DOCC [     4,    0,    1,    1 ]
    SOCC [     3,    0,    1,    1 ]
    NA   [     7,    0,    2,    2 ]
    NB   [     4,    0,    1,    1 ]

  @DF-UKS Final Energy:  -216.11981102982773

   => Energetics <=

    Nuclear Repulsion Energy =             10.2508235816384428
    One-Electron Energy =                -316.7678377314068712
    Two-Electron Energy =                 107.2784975266646939
    DFT Exchange-Correlation Energy =     -16.8812944067239741
    Empirical Dispersion Energy =           0.0000000000000000
    VV10 Nonlocal Energy =                  0.0000000000000000
    Total Energy =                       -216.1198110298277300

  UHF NO Occupations:
  HONO-2 :    6 A1 1.0000000
  HONO-1 :    2 B2 1.0000000
  HONO-0 :    7 A1 1.0000000
  LUNO+0 :    8 A1 0.0000015
  LUNO+1 :    9 A1 0.0000012
  LUNO+2 :    3 B1 0.0000006
  LUNO+3 :    3 B2 0.0000006

Computation Completed

Properties will be evaluated at   0.000000,   0.000000,   0.000000 [a0]

Properties computed using the SCF density matrix

 Multipole Moments:

 ------------------------------------------------------------------------------------
     Multipole            Electronic (a.u.)      Nuclear  (a.u.)        Total (a.u.)
 ------------------------------------------------------------------------------------

 L = 1.  Multiply by 2.5417464519 to convert [e a0] to [Debye]
 Dipole X            :          0.0000000            0.0000000            0.0000000
 Dipole Y            :          0.0000000            0.0000000            0.0000000
 Dipole Z            :          1.3620282            1.3999789            2.7620071
 Magnitude           :                                                    2.7620071

 ------------------------------------------------------------------------------------

*** tstop() called on Joses-MacBook-Pro-2.local at Thu Jul 17 13:53:47 2025
Module time:
	user time   =       1.57 seconds =       0.03 minutes
	system time =       3.22 seconds =       0.05 minutes
	total time  =          0 seconds =       0.00 minutes
Total time:
	user time   =      56.58 seconds =       0.94 minutes
	system time =     131.92 seconds =       2.20 minutes
	total time  =         20 seconds =       0.33 minutes

*** tstart() called on Joses-MacBook-Pro-2.local
*** at Thu Jul 17 13:53:47 2025

         ------------------------------------------------------------
                                   SCF GRAD
                          Rob Parrish, Justin Turney,
                       Andy Simmonett, and Alex Sokolov
         ------------------------------------------------------------

  ==> Geometry <==

    Molecular point group: c2v
    Full point group: C_inf_v

    Geometry (in Angstrom), charge = 1, multiplicity = 6:

       Center              X                  Y                   Z               Mass
    ------------   -----------------  -----------------  -----------------  -----------------
         N            0.000000000000     0.000000000000     2.470301708974    14.003074004430
         NA           0.000000000000     0.000000000000    -1.504661365659    22.989769282000

  Nuclear repulsion =   10.250823581638443

  ==> Basis Set <==

  Basis Set: CC-PVDZ
    Blend: CC-PVDZ
    Number of shells: 14
    Number of basis functions: 32
    Number of Cartesian functions: 34
    Spherical Harmonics?: true
    Max angular momentum: 2

  ==> DFJKGrad: Density-Fitted SCF Gradients <==

    Gradient:                    1
    J tasked:                  Yes
    K tasked:                  Yes
    wK tasked:                  No
    OpenMP threads:              1
    Integrals threads:           1
    Memory [MiB]:              375
    Schwarz Cutoff:          1E-12
    Fitting Condition:       1E-10

   => Auxiliary Basis Set <=

  Basis Set: (CC-PVDZ AUX)
    Blend: CC-PVDZ-JKFIT + DEF2-UNIVERSAL-JKFIT
    Number of shells: 58
    Number of basis functions: 182
    Number of Cartesian functions: 218
    Spherical Harmonics?: true
    Max angular momentum: 4

  ==> DFT Potential <==

   => LibXC <=

    Version 6.2.2
    S. Lehtola, C. Steigemann, M. J.T. Oliveira, and M. A.L. Marques.,  SoftwareX 7, 1â€“5 (2018) (10.1016/j.softx.2017.11.002)

   => Composite Functional: B3LYP <=

    B3LYP Hyb-GGA Exchange-Correlation Functional

    P. J. Stephens, F. J. Devlin, C. F. Chabalowski, and M. J. Frisch.,  J. Phys. Chem. 98, 11623 (1994) (10.1021/j100096a001)

    Deriv               =              1
    GGA                 =           TRUE
    Meta                =          FALSE

    Exchange Hybrid     =           TRUE
    MP2 Hybrid          =          FALSE

   => Exchange Functionals <=

    0.0800   Slater exchange
    0.7200         Becke 88

   => Exact (HF) Exchange <=

    0.2000               HF

   => Correlation Functionals <=

    0.1900   Vosko, Wilk & Nusair (VWN5_RPA)
    0.8100   Lee, Yang & Parr

   => LibXC Density Thresholds  <==

    XC_HYB_GGA_XC_B3LYP:  1.00E-15

   => Molecular Quadrature <=

    Radial Scheme          =       TREUTLER
    Pruning Scheme         =           NONE
    Nuclear Scheme         =       TREUTLER

    Blocking Scheme        =         OCTREE
    BS radius alpha        =              1
    Pruning alpha          =              1
    Radial Points          =             75
    Spherical Points       =            302
    Total Points           =          43911
    Total Blocks           =            437
    Max Points             =            256
    Max Functions          =             32
    Weights Tolerance      =       1.00E-15

  -Total Gradient:
     Atom            X                  Y                   Z
    ------   -----------------  -----------------  -----------------
       1        0.000000000000     0.000000000000    -0.000008011500
       2        0.000000000000    -0.000000000000    -0.000000841679

*** tstop() called on Joses-MacBook-Pro-2.local at Thu Jul 17 13:53:48 2025
Module time:
	user time   =       0.99 seconds =       0.02 minutes
	system time =       1.97 seconds =       0.03 minutes
	total time  =          1 seconds =       0.02 minutes
Total time:
	user time   =      57.57 seconds =       0.96 minutes
	system time =     133.90 seconds =       2.23 minutes
	total time  =         21 seconds =       0.35 minutes

    			-----------------------------------------

    			 OPTKING 3.0: for geometry optimizations

    			     By R.A. King, Bethel University

    			        with contributions from

    			    A.V. Copan, J. Cayton, A. Heide

    			-----------------------------------------

	                            ===> Fragment 1 <==

	 Z (Atomic Numbers)          Masses                          Geom
	       7.000000            14.003074          0.00000000  0.00000000  4.66819368
	      11.000000            22.989769          0.00000000  0.00000000 -2.84339789

	 - Coordinate -           - BOHR/RAD -       - ANG/DEG -
	 R(1,2)           =         7.511592           3.974963

	        --- Internal Coordinate Step in ANG or DEG, aJ/ANG or AJ/DEG ---
	-------------------------------------------------------------------------------
	           Coordinate      Previous         Force          Change          New
	           ----------      --------        ------          ------        ------
	               R(1,2)       3.97496        0.00003        0.00033       3.97529
	-------------------------------------------------------------------------------

	                                 ==> Convergence Check <==

	Measures of convergence in internal coordinates in au.

	Criteria marked as inactive (o), active & met (*), and active & unmet ( ).

	----------------------------------------------------------------------------------------------
	   Step    Total Energy     Delta E     Max Force     RMS Force      Max Disp      RMS Disp
	----------------------------------------------------------------------------------------------
	  Convergence Criteria     1.00e-06 *    3.00e-04 *             o    1.20e-03 *             o
	----------------------------------------------------------------------------------------------
	    19    -216.11981103   -5.84e-08 *    3.58e-06 *    3.58e-06 o    6.24e-04 *    6.24e-04 o  ~
	----------------------------------------------------------------------------------------------

Next Geometry in Ang
	Fragment 1 (Ang)

	    N   0.0000000000   0.0000000000   2.4704668424
	   Na   0.0000000000   0.0000000000  -1.5048264991

    Final optimized geometry and variables:
    Molecular point group: c2v
    Full point group: C_inf_v

    Geometry (in Angstrom), charge = 1, multiplicity = 6:

    N            0.000000000000     0.000000000000     2.470301708974
    NA           0.000000000000     0.000000000000    -1.504661365659

    Psi4 stopped on: Thursday, 17 July 2025 01:53PM
    Psi4 wall time for execution: 0:00:21.04

*** Psi4 exiting successfully. Buy a developer a beer!
