                               Psi4 1.9.1 release

  ==> Input File <==

--------------------------------------------------------------------------
molecule {
1 6
Na   0.00000        0.60000        0.00000
Na   0.00000       -0.60000        0.00000
}

set {
basis              cc-pvdz
reference          uks
maxiter            500
geom_maxiter       500
DAMPING_PERCENTAGE 1
guess              SAP
}

optimize('b3lyp')
--------------------------------------------------------------------------

    Molecular point group: d2h
  Charge       = 1
  Multiplicity = 6
  Basis Set: CC-PVDZ
    Blend: CC-PVDZ
  Basis Set: (CC-PVDZ AUX)
    Blend: DEF2-UNIVERSAL-JKFIT
  @DF-UKS Final Energy:  -321.01630453612427
    Total Energy =                       -321.0163045361242666
 Dipole X            :          0.0000000            0.0000000            0.0000000
 Dipole Y            :          0.0000000            0.0000000            0.0000000
 Dipole Z            :          0.0000000            0.0000000            0.0000000
 Magnitude           :                                                    0.0000000
    Molecular point group: d2h
  Basis Set: CC-PVDZ
    Blend: CC-PVDZ
  Basis Set: (CC-PVDZ AUX)
    Blend: DEF2-UNIVERSAL-JKFIT
  Basis Set: CC-PVDZ
    Blend: CC-PVDZ
  Basis Set: (CC-PVDZ AUX)
    Blend: DEF2-UNIVERSAL-JKFIT
  @DF-UKS Final Energy:  -321.02112849988947
    Total Energy =                       -321.0211284998894143
  Basis Set: CC-PVDZ
    Blend: CC-PVDZ
  Basis Set: (CC-PVDZ AUX)
    Blend: DEF2-UNIVERSAL-JKFIT
  Basis Set: CC-PVDZ
    Blend: CC-PVDZ
  @DF-UKS Final Energy:  -321.03050579475541
    Total Energy =                       -321.0305057947554133
  @DF-UKS Final Energy:  -321.06519294214013
    Total Energy =                       -321.0651929421401292
  @DF-UKS Final Energy:  -321.24033457115604
    Total Energy =                       -321.2403345711560405
  @DF-UKS Final Energy:  -321.36241790047933
    Total Energy =                       -321.3624179004793291
  @DF-UKS Final Energy:  -321.46214504171559
    Total Energy =                       -321.4621450417155870
  @DF-UKS Final Energy:  -321.53746405510066
    Total Energy =                       -321.5374640551006564
  @DF-UKS Final Energy:  -321.61495936284552
    Total Energy =                       -321.6149593628455250
  @DF-UKS Final Energy:  -321.63750151911904
    Total Energy =                       -321.6375015191190982
  @DF-UKS Final Energy:  -321.63787046541535
    Total Energy =                       -321.6378704654153466
  @DF-UKS Final Energy:  -321.63857894723191
    Total Energy =                       -321.6385789472319061
  @DF-UKS Final Energy:  -321.63860660396819
    Total Energy =                       -321.6386066039682419
  Basis Set: (CC-PVDZ AUX)
    Blend: DEF2-UNIVERSAL-JKFIT
  Basis Set: CC-PVDZ
    Blend: CC-PVDZ
  Basis Set: (CC-PVDZ AUX)
    Blend: DEF2-UNIVERSAL-JKFIT
  @DF-UKS Final Energy:  -321.63860847342454
    Total Energy =                       -321.6386084734245401
  Basis Set: CC-PVDZ
    Blend: CC-PVDZ
  Basis Set: (CC-PVDZ AUX)
    Blend: DEF2-UNIVERSAL-JKFIT
  Charge       = 1
  Multiplicity = 6
  Basis Set: CC-PVDZ
    Blend: CC-PVDZ
  Basis Set: (CC-PVDZ AUX)
    Blend: DEF2-UNIVERSAL-JKFIT

    Orbital Energies [Eh]
    ---------------------

    Alpha Occupied:

       1B2u  -39.927466     1Ag   -39.927448     2B2u   -3.237420
       2Ag    -3.234801     3Ag    -2.193173     3B2u   -2.188086
       1B3u   -2.184616     1B1g   -2.184402     1B1u   -2.126549
       1B3g   -2.126288     4Ag    -0.517547     4B2u   -0.358278
       2B3u   -0.321273

    Alpha Virtual:

       2B1u   -0.270526     5Ag    -0.254371     2B1g   -0.189492
       2B3g   -0.185069     6Ag    -0.122015     5B2u   -0.113268
       1B2g   -0.101234     3B3u   -0.097301     7Ag    -0.096233
       3B1u   -0.095521     8Ag    -0.067851     6B2u   -0.063585
       4B1u   -0.052355     4B3u   -0.051147     3B3g   -0.047872
       3B1g   -0.046558     1Au    -0.014021     7B2u   -0.012548
       8B2u   -0.010422     9Ag     0.026639     4B1g    0.086272
       4B3g    0.088539     9B2u    1.246907

    Beta Occupied:

       1Ag   -39.885050     1B2u  -39.885046     2B2u   -3.120682
       2Ag    -3.119930     1B1u   -2.081976     1B3g   -2.081698
       3Ag    -1.996229     1B3u   -1.987448

    Beta Virtual:

       3B2u   -1.950371     1B1g   -1.947443     4Ag    -0.387828
       4B2u   -0.277326     2B1u   -0.224075     2B3u   -0.204528
       5Ag    -0.197291     2B3g   -0.151887     2B1g   -0.136727
       6Ag    -0.093821     5B2u   -0.086498     3B1u   -0.075199
       3B3u   -0.067130     7Ag    -0.057570     1B2g   -0.048518
       8Ag    -0.046837     6B2u   -0.042711     3B3g   -0.041876
       3B1g   -0.035017     4B1u   -0.022051     4B3u   -0.010809
       7B2u   -0.001396     1Au     0.026476     8B2u    0.028624
       9Ag     0.055146     4B3g    0.121789     4B1g    0.136438
       9B2u    1.284334

    Final Occupation by Irrep:
             Ag   B1g   B2g   B3g    Au   B1u   B2u   B3u
    DOCC [     3,    0,    0,    1,    0,    1,    2,    1 ]
    SOCC [     1,    1,    0,    0,    0,    0,    2,    1 ]
    NA   [     4,    1,    0,    1,    0,    1,    4,    2 ]
    NB   [     3,    0,    0,    1,    0,    1,    2,    1 ]

  @DF-UKS Final Energy:  -321.63860862578883

   => Energetics <=

    Nuclear Repulsion Energy =             24.3124261639171912
    One-Electron Energy =                -481.5917021811393397
    Two-Electron Energy =                 157.4631793459197695
    DFT Exchange-Correlation Energy =     -21.8225119544864690
    Empirical Dispersion Energy =           0.0000000000000000
    VV10 Nonlocal Energy =                  0.0000000000000000
    Total Energy =                       -321.6386086257888337

  UHF NO Occupations:
  HONO-2 :    2B3u 1.0000000
  HONO-1 :    4B2u 1.0000000
  HONO-0 :    1B1g 1.0000000
  LUNO+0 :    5 Ag 0.0000481
  LUNO+1 :    5B2u 0.0000099
  LUNO+2 :    3B3u 0.0000048
  LUNO+3 :    2B3g 0.0000016

Computation Completed

Properties will be evaluated at   0.000000,   0.000000,   0.000000 [a0]

Properties computed using the SCF density matrix

 Multipole Moments:

 ------------------------------------------------------------------------------------
     Multipole            Electronic (a.u.)      Nuclear  (a.u.)        Total (a.u.)
 ------------------------------------------------------------------------------------

 L = 1.  Multiply by 2.5417464519 to convert [e a0] to [Debye]
 Dipole X            :          0.0000000            0.0000000            0.0000000
 Dipole Y            :          0.0000000            0.0000000            0.0000000
 Dipole Z            :          0.0000000            0.0000000            0.0000000
 Magnitude           :                                                    0.0000000

 ------------------------------------------------------------------------------------

*** tstop() called on Joses-MacBook-Pro-2.local at Thu Jul 17 14:45:29 2025
Module time:
	user time   =       9.10 seconds =       0.15 minutes
	system time =       3.28 seconds =       0.05 minutes
	total time  =          1 seconds =       0.02 minutes
Total time:
	user time   =     180.00 seconds =       3.00 minutes
	system time =      87.39 seconds =       1.46 minutes
	total time  =         27 seconds =       0.45 minutes

*** tstart() called on Joses-MacBook-Pro-2.local
*** at Thu Jul 17 14:45:29 2025

         ------------------------------------------------------------
                                   SCF GRAD
                          Rob Parrish, Justin Turney,
                       Andy Simmonett, and Alex Sokolov
         ------------------------------------------------------------

  ==> Geometry <==

    Molecular point group: d2h
    Full point group: D_inf_h

    Geometry (in Angstrom), charge = 1, multiplicity = 6:

       Center              X                  Y                   Z               Mass
    ------------   -----------------  -----------------  -----------------  -----------------
         NA          -0.000000000000     1.316825438551     0.000000000000    22.989769282000
         NA           0.000000000000    -1.316825438551     0.000000000000    22.989769282000

  Nuclear repulsion =   24.312426163917191

  ==> Basis Set <==

  Basis Set: CC-PVDZ
    Blend: CC-PVDZ
    Number of shells: 16
    Number of basis functions: 36
    Number of Cartesian functions: 38
    Spherical Harmonics?: true
    Max angular momentum: 2

  ==> DFJKGrad: Density-Fitted SCF Gradients <==

    Gradient:                    1
    J tasked:                  Yes
    K tasked:                  Yes
    wK tasked:                  No
    OpenMP threads:              1
    Integrals threads:           1
    Memory [MiB]:              375
    Schwarz Cutoff:          1E-12
    Fitting Condition:       1E-10

   => Auxiliary Basis Set <=

  Basis Set: (CC-PVDZ AUX)
    Blend: DEF2-UNIVERSAL-JKFIT
    Number of shells: 68
    Number of basis functions: 224
    Number of Cartesian functions: 274
    Spherical Harmonics?: true
    Max angular momentum: 4

  ==> DFT Potential <==

   => LibXC <=

    Version 6.2.2
    S. Lehtola, C. Steigemann, M. J.T. Oliveira, and M. A.L. Marques.,  SoftwareX 7, 1â€“5 (2018) (10.1016/j.softx.2017.11.002)

   => Composite Functional: B3LYP <=

    B3LYP Hyb-GGA Exchange-Correlation Functional

    P. J. Stephens, F. J. Devlin, C. F. Chabalowski, and M. J. Frisch.,  J. Phys. Chem. 98, 11623 (1994) (10.1021/j100096a001)

    Deriv               =              1
    GGA                 =           TRUE
    Meta                =          FALSE

    Exchange Hybrid     =           TRUE
    MP2 Hybrid          =          FALSE

   => Exchange Functionals <=

    0.0800   Slater exchange
    0.7200         Becke 88

   => Exact (HF) Exchange <=

    0.2000               HF

   => Correlation Functionals <=

    0.1900   Vosko, Wilk & Nusair (VWN5_RPA)
    0.8100   Lee, Yang & Parr

   => LibXC Density Thresholds  <==

    XC_HYB_GGA_XC_B3LYP:  1.00E-15

   => Molecular Quadrature <=

    Radial Scheme          =       TREUTLER
    Pruning Scheme         =           NONE
    Nuclear Scheme         =       TREUTLER

    Blocking Scheme        =         OCTREE
    BS radius alpha        =              1
    Pruning alpha          =              1
    Radial Points          =             75
    Spherical Points       =            302
    Total Points           =          43038
    Total Blocks           =            448
    Max Points             =            255
    Max Functions          =             36
    Weights Tolerance      =       1.00E-15

  -Total Gradient:
     Atom            X                  Y                   Z
    ------   -----------------  -----------------  -----------------
       1        0.000000000000    -0.000034350002     0.000000000000
       2       -0.000000000000     0.000034350002     0.000000000000

*** tstop() called on Joses-MacBook-Pro-2.local at Thu Jul 17 14:45:30 2025
Module time:
	user time   =       3.14 seconds =       0.05 minutes
	system time =       2.52 seconds =       0.04 minutes
	total time  =          1 seconds =       0.02 minutes
Total time:
	user time   =     183.15 seconds =       3.05 minutes
	system time =      89.92 seconds =       1.50 minutes
	total time  =         28 seconds =       0.47 minutes

    			-----------------------------------------

    			 OPTKING 3.0: for geometry optimizations

    			     By R.A. King, Bethel University

    			        with contributions from

    			    A.V. Copan, J. Cayton, A. Heide

    			-----------------------------------------

	                            ===> Fragment 1 <==

	 Z (Atomic Numbers)          Masses                          Geom
	      11.000000            22.989769         -0.00000000  2.48843943  0.00000000
	      11.000000            22.989769          0.00000000 -2.48843943  0.00000000

	 - Coordinate -           - BOHR/RAD -       - ANG/DEG -
	 R(1,2)           =         4.976879           2.633651

	        --- Internal Coordinate Step in ANG or DEG, aJ/ANG or AJ/DEG ---
	-------------------------------------------------------------------------------
	           Coordinate      Previous         Force          Change          New
	           ----------      --------        ------          ------        ------
	               R(1,2)       2.63365        0.00028        0.00028       2.63393
	-------------------------------------------------------------------------------

	                                 ==> Convergence Check <==

	Measures of convergence in internal coordinates in au.

	Criteria marked as inactive (o), active & met (*), and active & unmet ( ).

	----------------------------------------------------------------------------------------------
	   Step    Total Energy     Delta E     Max Force     RMS Force      Max Disp      RMS Disp
	----------------------------------------------------------------------------------------------
	  Convergence Criteria     1.00e-06 *    3.00e-04 *             o    1.20e-03 *             o
	----------------------------------------------------------------------------------------------
	    15    -321.63860863   -1.52e-07 *    3.44e-05 *    3.44e-05 o    5.23e-04 *    5.23e-04 o  ~
	----------------------------------------------------------------------------------------------

Next Geometry in Ang
	Fragment 1 (Ang)

	   Na  -0.0000000000   1.3169639386   0.0000000000
	   Na   0.0000000000  -1.3169639386   0.0000000000

    Final optimized geometry and variables:
    Molecular point group: d2h
    Full point group: D_inf_h

    Geometry (in Angstrom), charge = 1, multiplicity = 6:

    NA          -0.000000000000     1.316825438551     0.000000000000
    NA           0.000000000000    -1.316825438551     0.000000000000

    Psi4 stopped on: Thursday, 17 July 2025 02:45PM
    Psi4 wall time for execution: 0:00:28.69

*** Psi4 exiting successfully. Buy a developer a beer!
