                               Psi4 1.9.1 release

  ==> Input File <==

--------------------------------------------------------------------------
molecule {
1 6
B   0.00000        0.60000        0.00000
F   0.00000       -0.60000        0.00000
}

set {
basis              cc-pvdz
reference          uks
maxiter            500
geom_maxiter       500
DAMPING_PERCENTAGE 1
guess              SAP
}

optimize('b3lyp')
--------------------------------------------------------------------------

    Molecular point group: c2v
  Charge       = 1
  Multiplicity = 6
  Basis Set: CC-PVDZ
    Blend: CC-PVDZ
  Basis Set: (CC-PVDZ AUX)
    Blend: CC-PVDZ-JKFIT
  @DF-UKS Final Energy:  -123.26830873745270
    Total Energy =                       -123.2683087374526991
 Dipole X            :          0.0000000            0.0000000            0.0000000
 Dipole Y            :          0.0000000            0.0000000            0.0000000
 Dipole Z            :         -1.0491334           -0.3092107           -1.3583441
 Magnitude           :                                                    1.3583441
    Molecular point group: c2v
  Basis Set: CC-PVDZ
    Blend: CC-PVDZ
  Basis Set: (CC-PVDZ AUX)
    Blend: CC-PVDZ-JKFIT
  Basis Set: CC-PVDZ
    Blend: CC-PVDZ
  Basis Set: (CC-PVDZ AUX)
    Blend: CC-PVDZ-JKFIT
  @DF-UKS Final Energy:  -123.44303423376012
    Total Energy =                       -123.4430342337601161
  Basis Set: CC-PVDZ
    Blend: CC-PVDZ
  Basis Set: (CC-PVDZ AUX)
    Blend: CC-PVDZ-JKFIT
  Basis Set: CC-PVDZ
    Blend: CC-PVDZ
  @DF-UKS Final Energy:  -123.50418808729452
    Total Energy =                       -123.5041880872945228
  @DF-UKS Final Energy:  -123.55260974373395
    Total Energy =                       -123.5526097437339530
  @DF-UKS Final Energy:  -123.57809205035316
    Total Energy =                       -123.5780920503531632
  @DF-UKS Final Energy:  -123.59182426592254
    Total Energy =                       -123.5918242659225257
  @DF-UKS Final Energy:  -123.59920517424769
    Total Energy =                       -123.5992051742476860
  @DF-UKS Final Energy:  -123.60337533013949
    Total Energy =                       -123.6033753301394853
  @DF-UKS Final Energy:  -123.60590113330046
    Total Energy =                       -123.6059011333004776
  @DF-UKS Final Energy:  -123.60754372419994
    Total Energy =                       -123.6075437241999424
  @DF-UKS Final Energy:  -123.60871474855142
    Total Energy =                       -123.6087147485514208
  @DF-UKS Final Energy:  -123.60873778578110
    Total Energy =                       -123.6087377857811305
  @DF-UKS Final Energy:  -123.60978530578222
    Total Energy =                       -123.6097853057822249
  @DF-UKS Final Energy:  -123.60979763022648
    Total Energy =                       -123.6097976302264811
  @DF-UKS Final Energy:  -123.60980986007266
    Total Energy =                       -123.6098098600726587
  @DF-UKS Final Energy:  -123.61062182339336
    Total Energy =                       -123.6106218233933589
  @DF-UKS Final Energy:  -123.61062936872057
    Total Energy =                       -123.6106293687205664
  @DF-UKS Final Energy:  -123.61063687603772
    Total Energy =                       -123.6106368760377165
  @DF-UKS Final Energy:  -123.61064434534684
    Total Energy =                       -123.6106443453468557
  @DF-UKS Final Energy:  -123.61126655074958
    Total Energy =                       -123.6112665507495763
  @DF-UKS Final Energy:  -123.61176215399936
    Total Energy =                       -123.6117621539993650
  @DF-UKS Final Energy:  -123.61176513727993
    Total Energy =                       -123.6117651372799315
  @DF-UKS Final Energy:  -123.61211520924059
    Total Energy =                       -123.6121152092405850
  @DF-UKS Final Energy:  -123.61211710860782
    Total Energy =                       -123.6121171086078192
  @DF-UKS Final Energy:  -123.61211899990130
    Total Energy =                       -123.6121189999012984
  @DF-UKS Final Energy:  -123.61212088607184
    Total Energy =                       -123.6121208860718355
  @DF-UKS Final Energy:  -123.61212276709026
    Total Energy =                       -123.6121227670902556
  @DF-UKS Final Energy:  -123.61212464296131
    Total Energy =                       -123.6121246429612768
  @DF-UKS Final Energy:  -123.61212651370377
    Total Energy =                       -123.6121265137037710
  @DF-UKS Final Energy:  -123.61239313927400
    Total Energy =                       -123.6123931392740047
  @DF-UKS Final Energy:  -123.61239434003681
    Total Energy =                       -123.6123943400368006
  @DF-UKS Final Energy:  -123.61239553624722
    Total Energy =                       -123.6123955362472202
  @DF-UKS Final Energy:  -123.61239672981222
    Total Energy =                       -123.6123967298122324
  @DF-UKS Final Energy:  -123.61239792072577
    Total Energy =                       -123.6123979207257690
  @DF-UKS Final Energy:  -123.61239910900173
    Total Energy =                       -123.6123991090017284
  @DF-UKS Final Energy:  -123.61240029465515
    Total Energy =                       -123.6124002946551315
  @DF-UKS Final Energy:  -123.61240147770040
    Total Energy =                       -123.6124014777004021
  @DF-UKS Final Energy:  -123.61240265815884
    Total Energy =                       -123.6124026581588282
  Basis Set: (CC-PVDZ AUX)
    Blend: CC-PVDZ-JKFIT
  Basis Set: CC-PVDZ
    Blend: CC-PVDZ
  Basis Set: (CC-PVDZ AUX)
    Blend: CC-PVDZ-JKFIT
  @DF-UKS Final Energy:  -123.61260647348323
    Total Energy =                       -123.6126064734832255
  Basis Set: CC-PVDZ
    Blend: CC-PVDZ
  Basis Set: (CC-PVDZ AUX)
    Blend: CC-PVDZ-JKFIT
  Charge       = 1
  Multiplicity = 6
  Basis Set: CC-PVDZ
    Blend: CC-PVDZ
  Basis Set: (CC-PVDZ AUX)
    Blend: CC-PVDZ-JKFIT

    Orbital Energies [Eh]
    ---------------------

    Alpha Occupied:

       1A1   -25.589339     2A1    -6.954785     3A1    -1.927213
       1B2    -1.220705     1B1    -1.220705     4A1    -1.123061
       5A1    -0.517783     2B2    -0.288366     2B1    -0.288366

    Alpha Virtual:

       6A1    -0.198112     3B1     0.185174     3B2     0.185174
       7A1     0.202475     8A1     0.250539     4B1     0.496660
       4B2     0.496660     9A1     0.546917     1A2     0.575017
      10A1     0.575018     5B2     0.579899     5B1     0.579899
      11A1     0.593103    12A1     0.832339     2A2     2.727363
      13A1     2.727364     6B1     2.798648     6B2     2.798648
      14A1     2.823768

    Beta Occupied:

       1A1   -25.520633     2A1    -6.915454     3A1    -1.733244
       4A1    -1.055278

    Beta Virtual:

       1B2    -0.861152     1B1    -0.861152     5A1    -0.271651
       6A1    -0.106031     2B1    -0.059883     2B2    -0.059883
       7A1     0.245317     3B1     0.284117     3B2     0.284117
       8A1     0.343013     9A1     0.577182     4B1     0.613359
       4B2     0.613359    10A1     0.705073     5B1     0.719658
       5B2     0.719658    11A1     0.755811     1A2     0.755833
      12A1     0.923113     6B1     2.910951     6B2     2.910951
      13A1     2.920251     2A2     2.940897    14A1     2.940897

    Final Occupation by Irrep:
             A1    A2    B1    B2
    DOCC [     4,    0,    0,    0 ]
    SOCC [     1,    0,    2,    2 ]
    NA   [     5,    0,    2,    2 ]
    NB   [     4,    0,    0,    0 ]

  @DF-UKS Final Energy:  -123.61260724504533

   => Energetics <=

    Nuclear Repulsion Energy =              3.6312226623582391
    One-Electron Energy =                -172.0970835853442509
    Two-Electron Energy =                  56.0302235644702193
    DFT Exchange-Correlation Energy =     -11.1769698865295375
    Empirical Dispersion Energy =           0.0000000000000000
    VV10 Nonlocal Energy =                  0.0000000000000000
    Total Energy =                       -123.6126072450453393

  UHF NO Occupations:
  HONO-2 :    5 A1 1.0000000
  HONO-1 :    2 B1 1.0000000
  HONO-0 :    2 B2 1.0000000
  LUNO+0 :    6 A1 0.0006205
  LUNO+1 :    7 A1 0.0001884
  LUNO+2 :    8 A1 0.0000007
  LUNO+3 :    9 A1 0.0000000

Computation Completed

Properties will be evaluated at   0.000000,   0.000000,   0.000000 [a0]

Properties computed using the SCF density matrix

 Multipole Moments:

 ------------------------------------------------------------------------------------
     Multipole            Electronic (a.u.)      Nuclear  (a.u.)        Total (a.u.)
 ------------------------------------------------------------------------------------

 L = 1.  Multiply by 2.5417464519 to convert [e a0] to [Debye]
 Dipole X            :          0.0000000            0.0000000            0.0000000
 Dipole Y            :          0.0000000            0.0000000            0.0000000
 Dipole Z            :         -2.7874685           -1.6897950           -4.4772635
 Magnitude           :                                                    4.4772635

 ------------------------------------------------------------------------------------

*** tstop() called on Joses-MacBook-Pro-2.local at Thu Jul 17 13:31:50 2025
Module time:
	user time   =       0.94 seconds =       0.02 minutes
	system time =       1.62 seconds =       0.03 minutes
	total time  =          0 seconds =       0.00 minutes
Total time:
	user time   =      88.93 seconds =       1.48 minutes
	system time =     186.96 seconds =       3.12 minutes
	total time  =         25 seconds =       0.42 minutes

*** tstart() called on Joses-MacBook-Pro-2.local
*** at Thu Jul 17 13:31:50 2025

         ------------------------------------------------------------
                                   SCF GRAD
                          Rob Parrish, Justin Turney,
                       Andy Simmonett, and Alex Sokolov
         ------------------------------------------------------------

  ==> Geometry <==

    Molecular point group: c2v
    Full point group: C_inf_v

    Geometry (in Angstrom), charge = 1, multiplicity = 6:

       Center              X                  Y                   Z               Mass
    ------------   -----------------  -----------------  -----------------  -----------------
         B            0.000000000000     0.000000000000     4.151882298709    11.009305360000
         F            0.000000000000     0.000000000000    -2.405956945631    18.998403162730

  Nuclear repulsion =    3.631222662358239

  ==> Basis Set <==

  Basis Set: CC-PVDZ
    Blend: CC-PVDZ
    Number of shells: 12
    Number of basis functions: 28
    Number of Cartesian functions: 30
    Spherical Harmonics?: true
    Max angular momentum: 2

  ==> DFJKGrad: Density-Fitted SCF Gradients <==

    Gradient:                    1
    J tasked:                  Yes
    K tasked:                  Yes
    wK tasked:                  No
    OpenMP threads:              1
    Integrals threads:           1
    Memory [MiB]:              375
    Schwarz Cutoff:          1E-12
    Fitting Condition:       1E-10

   => Auxiliary Basis Set <=

  Basis Set: (CC-PVDZ AUX)
    Blend: CC-PVDZ-JKFIT
    Number of shells: 48
    Number of basis functions: 140
    Number of Cartesian functions: 162
    Spherical Harmonics?: true
    Max angular momentum: 3

  ==> DFT Potential <==

   => LibXC <=

    Version 6.2.2
    S. Lehtola, C. Steigemann, M. J.T. Oliveira, and M. A.L. Marques.,  SoftwareX 7, 1â€“5 (2018) (10.1016/j.softx.2017.11.002)

   => Composite Functional: B3LYP <=

    B3LYP Hyb-GGA Exchange-Correlation Functional

    P. J. Stephens, F. J. Devlin, C. F. Chabalowski, and M. J. Frisch.,  J. Phys. Chem. 98, 11623 (1994) (10.1021/j100096a001)

    Deriv               =              1
    GGA                 =           TRUE
    Meta                =          FALSE

    Exchange Hybrid     =           TRUE
    MP2 Hybrid          =          FALSE

   => Exchange Functionals <=

    0.0800   Slater exchange
    0.7200         Becke 88

   => Exact (HF) Exchange <=

    0.2000               HF

   => Correlation Functionals <=

    0.1900   Vosko, Wilk & Nusair (VWN5_RPA)
    0.8100   Lee, Yang & Parr

   => LibXC Density Thresholds  <==

    XC_HYB_GGA_XC_B3LYP:  1.00E-15

   => Molecular Quadrature <=

    Radial Scheme          =       TREUTLER
    Pruning Scheme         =           NONE
    Nuclear Scheme         =       TREUTLER

    Blocking Scheme        =         OCTREE
    BS radius alpha        =              1
    Pruning alpha          =              1
    Radial Points          =             75
    Spherical Points       =            302
    Total Points           =          43720
    Total Blocks           =            440
    Max Points             =            256
    Max Functions          =             28
    Weights Tolerance      =       1.00E-15

  -Total Gradient:
     Atom            X                  Y                   Z
    ------   -----------------  -----------------  -----------------
       1       -0.000000000000     0.000000000000    -0.000209121188
       2        0.000000000000     0.000000000000     0.000222045500

*** tstop() called on Joses-MacBook-Pro-2.local at Thu Jul 17 13:31:50 2025
Module time:
	user time   =       0.41 seconds =       0.01 minutes
	system time =       1.09 seconds =       0.02 minutes
	total time  =          0 seconds =       0.00 minutes
Total time:
	user time   =      89.35 seconds =       1.49 minutes
	system time =     188.05 seconds =       3.13 minutes
	total time  =         25 seconds =       0.42 minutes

    			-----------------------------------------

    			 OPTKING 3.0: for geometry optimizations

    			     By R.A. King, Bethel University

    			        with contributions from

    			    A.V. Copan, J. Cayton, A. Heide

    			-----------------------------------------

	                            ===> Fragment 1 <==

	 Z (Atomic Numbers)          Masses                          Geom
	       5.000000            11.009305          0.00000000  0.00000000  7.84592045
	       9.000000            18.998403          0.00000000  0.00000000 -4.54659970

	 - Coordinate -           - BOHR/RAD -       - ANG/DEG -
	 R(1,2)           =        12.392520           6.557839

	        --- Internal Coordinate Step in ANG or DEG, aJ/ANG or AJ/DEG ---
	-------------------------------------------------------------------------------
	           Coordinate      Previous         Force          Change          New
	           ----------      --------        ------          ------        ------
	               R(1,2)       6.55784        0.00178        0.00196       6.55980
	-------------------------------------------------------------------------------

	                                 ==> Convergence Check <==

	Measures of convergence in internal coordinates in au.

	Criteria marked as inactive (o), active & met (*), and active & unmet ( ).

	----------------------------------------------------------------------------------------------
	   Step    Total Energy     Delta E     Max Force     RMS Force      Max Disp      RMS Disp
	----------------------------------------------------------------------------------------------
	  Convergence Criteria     1.00e-06 *    3.00e-04 *             o    1.20e-03 *             o
	----------------------------------------------------------------------------------------------
	    46    -123.61260725   -7.72e-07 *    2.16e-04 *    2.16e-04 o    3.71e-03      3.71e-03 o  ~
	----------------------------------------------------------------------------------------------

Next Geometry in Ang
	Fragment 1 (Ang)

	    B   0.0000000000   0.0000000000   4.1528627939
	    F   0.0000000000   0.0000000000  -2.4069374409

    Final optimized geometry and variables:
    Molecular point group: c2v
    Full point group: C_inf_v

    Geometry (in Angstrom), charge = 1, multiplicity = 6:

    B            0.000000000000     0.000000000000     4.151882298709
    F            0.000000000000     0.000000000000    -2.405956945631

    Psi4 stopped on: Thursday, 17 July 2025 01:31PM
    Psi4 wall time for execution: 0:00:26.46

*** Psi4 exiting successfully. Buy a developer a beer!
