                               Psi4 1.9.1 release

  ==> Input File <==

--------------------------------------------------------------------------
molecule {
1 6
Li   0.00000        0.60000        0.00000
N   0.00000       -0.60000        0.00000
}

set {
basis              cc-pvdz
reference          uks
maxiter            500
geom_maxiter       500
DAMPING_PERCENTAGE 1
guess              SAP
}

optimize('b3lyp')
--------------------------------------------------------------------------

    Molecular point group: c2v
  Charge       = 1
  Multiplicity = 6
  Basis Set: CC-PVDZ
    Blend: CC-PVDZ
  Basis Set: (CC-PVDZ AUX)
    Blend: CC-PVDZ-JKFIT + DEF2-UNIVERSAL-JKFIT
  @DF-UKS Final Energy:   -60.95994009430344
    Total Energy =                        -60.9599400943034411
 Dipole X            :          0.0000000            0.0000000            0.0000000
 Dipole Y            :          0.0000000            0.0000000            0.0000000
 Dipole Z            :         -0.4855426           -0.7662953           -1.2518379
 Magnitude           :                                                    1.2518379
    Molecular point group: c2v
  Basis Set: CC-PVDZ
    Blend: CC-PVDZ
  Basis Set: (CC-PVDZ AUX)
    Blend: CC-PVDZ-JKFIT + DEF2-UNIVERSAL-JKFIT
  Basis Set: CC-PVDZ
    Blend: CC-PVDZ
  Basis Set: (CC-PVDZ AUX)
    Blend: CC-PVDZ-JKFIT + DEF2-UNIVERSAL-JKFIT
  @DF-UKS Final Energy:   -61.08462872912555
    Total Energy =                        -61.0846287291255621
  Basis Set: CC-PVDZ
    Blend: CC-PVDZ
  Basis Set: (CC-PVDZ AUX)
    Blend: CC-PVDZ-JKFIT + DEF2-UNIVERSAL-JKFIT
  Basis Set: CC-PVDZ
    Blend: CC-PVDZ
  @DF-UKS Final Energy:   -61.15209538405973
    Total Energy =                        -61.1520953840597343
  @DF-UKS Final Energy:   -61.20331601889661
    Total Energy =                        -61.2033160188966150
  @DF-UKS Final Energy:   -61.24637656888116
    Total Energy =                        -61.2463765688811677
  @DF-UKS Final Energy:   -61.26268013824070
    Total Energy =                        -61.2626801382406967
  @DF-UKS Final Energy:   -61.29508308262864
    Total Energy =                        -61.2950830826286435
  @DF-UKS Final Energy:   -61.30126056949885
    Total Energy =                        -61.3012605694988508
  @DF-UKS Final Energy:   -61.31396394889757
    Total Energy =                        -61.3139639488975661
  @DF-UKS Final Energy:   -61.31544195011789
    Total Energy =                        -61.3154419501178864
  @DF-UKS Final Energy:   -61.31995851022769
    Total Energy =                        -61.3199585102276927
  @DF-UKS Final Energy:   -61.32021049389986
    Total Energy =                        -61.3202104938998573
  @DF-UKS Final Energy:   -61.32143308160227
    Total Energy =                        -61.3214330816022724
  @DF-UKS Final Energy:   -61.32159826862774
    Total Energy =                        -61.3215982686277385
  Basis Set: (CC-PVDZ AUX)
    Blend: CC-PVDZ-JKFIT + DEF2-UNIVERSAL-JKFIT
  Basis Set: CC-PVDZ
    Blend: CC-PVDZ
  Basis Set: (CC-PVDZ AUX)
    Blend: CC-PVDZ-JKFIT + DEF2-UNIVERSAL-JKFIT
  @DF-UKS Final Energy:   -61.32161529759762
    Total Energy =                        -61.3216152975976172
  Basis Set: CC-PVDZ
    Blend: CC-PVDZ
  Basis Set: (CC-PVDZ AUX)
    Blend: CC-PVDZ-JKFIT + DEF2-UNIVERSAL-JKFIT
  Charge       = 1
  Multiplicity = 6
  Basis Set: CC-PVDZ
    Blend: CC-PVDZ
  Basis Set: (CC-PVDZ AUX)
    Blend: CC-PVDZ-JKFIT + DEF2-UNIVERSAL-JKFIT

    Orbital Energies [Eh]
    ---------------------

    Alpha Occupied:

       1A1   -15.037731     2A1    -2.177596     3A1    -1.327605
       1B2    -0.860858     1B1    -0.860858     4A1    -0.860200
       5A1    -0.279960

    Alpha Virtual:

       6A1    -0.156255     2B2    -0.152038     2B1    -0.152038
       7A1    -0.080589     3B2    -0.039123     3B1    -0.039123
       8A1    -0.012407     9A1     0.069947     4B2     0.082564
       4B1     0.082564    10A1     0.098297     1A2     0.098298
       5B2     0.275528     5B1     0.275528    11A1     0.302666
      12A1     0.489553    13A1     1.180065     2A2     1.180107
       6B2     1.182225     6B1     1.182225    14A1     1.187712

    Beta Occupied:

       1A1   -14.932902     2A1    -2.171471

    Beta Virtual:

       3A1    -0.849963     1B2    -0.438136     1B1    -0.438136
       4A1    -0.437206     5A1    -0.189257     6A1    -0.130180
       2B2    -0.120518     2B1    -0.120518     7A1    -0.044704
       3B2    -0.028532     3B1    -0.028532     8A1    -0.008143
       9A1     0.116930     4B2     0.122515     4B1     0.122515
       1A2     0.131648    10A1     0.131673     5B2     0.423032
       5B1     0.423032    11A1     0.454237    12A1     0.654536
      13A1     1.478163     2A2     1.478174     6B2     1.480165
       6B1     1.480165    14A1     1.485091

    Final Occupation by Irrep:
             A1    A2    B1    B2
    DOCC [     2,    0,    0,    0 ]
    SOCC [     3,    0,    1,    1 ]
    NA   [     5,    0,    1,    1 ]
    NB   [     2,    0,    0,    0 ]

  @DF-UKS Final Energy:   -61.32161557352961

   => Energetics <=

    Nuclear Repulsion Energy =              2.9266478326768328
    One-Electron Energy =                 -85.1508891185381316
    Two-Electron Energy =                  27.6320243911836165
    DFT Exchange-Correlation Energy =      -6.7293986788519380
    Empirical Dispersion Energy =           0.0000000000000000
    VV10 Nonlocal Energy =                  0.0000000000000000
    Total Energy =                        -61.3216155735296127

  UHF NO Occupations:
  HONO-2 :    4 A1 1.0000000
  HONO-1 :    1 B1 1.0000000
  HONO-0 :    5 A1 1.0000000
  LUNO+0 :    6 A1 0.0000015
  LUNO+1 :    7 A1 0.0000007
  LUNO+2 :    8 A1 0.0000000
  LUNO+3 :    9 A1 0.0000000

Computation Completed

Properties will be evaluated at   0.000000,   0.000000,   0.000000 [a0]

Properties computed using the SCF density matrix

 Multipole Moments:

 ------------------------------------------------------------------------------------
     Multipole            Electronic (a.u.)      Nuclear  (a.u.)        Total (a.u.)
 ------------------------------------------------------------------------------------

 L = 1.  Multiply by 2.5417464519 to convert [e a0] to [Debye]
 Dipole X            :          0.0000000            0.0000000            0.0000000
 Dipole Y            :          0.0000000            0.0000000            0.0000000
 Dipole Z            :          1.9253603           -2.4247384           -0.4993781
 Magnitude           :                                                    0.4993781

 ------------------------------------------------------------------------------------

*** tstop() called on Joses-MacBook-Pro-2.local at Thu Jul 17 12:48:29 2025
Module time:
	user time   =       2.32 seconds =       0.04 minutes
	system time =       2.48 seconds =       0.04 minutes
	total time  =          0 seconds =       0.00 minutes
Total time:
	user time   =      62.96 seconds =       1.05 minutes
	system time =      61.74 seconds =       1.03 minutes
	total time  =         12 seconds =       0.20 minutes

*** tstart() called on Joses-MacBook-Pro-2.local
*** at Thu Jul 17 12:48:29 2025

         ------------------------------------------------------------
                                   SCF GRAD
                          Rob Parrish, Justin Turney,
                       Andy Simmonett, and Alex Sokolov
         ------------------------------------------------------------

  ==> Geometry <==

    Molecular point group: c2v
    Full point group: C_inf_v

    Geometry (in Angstrom), charge = 1, multiplicity = 6:

       Center              X                  Y                   Z               Mass
    ------------   -----------------  -----------------  -----------------  -----------------
         LI           0.000000000000     0.000000000000     2.529645678771     7.016003436600
         N            0.000000000000     0.000000000000    -1.267436190798    14.003074004430

  Nuclear repulsion =    2.926647832676833

  ==> Basis Set <==

  Basis Set: CC-PVDZ
    Blend: CC-PVDZ
    Number of shells: 12
    Number of basis functions: 28
    Number of Cartesian functions: 30
    Spherical Harmonics?: true
    Max angular momentum: 2

  ==> DFJKGrad: Density-Fitted SCF Gradients <==

    Gradient:                    1
    J tasked:                  Yes
    K tasked:                  Yes
    wK tasked:                  No
    OpenMP threads:              1
    Integrals threads:           1
    Memory [MiB]:              375
    Schwarz Cutoff:          1E-12
    Fitting Condition:       1E-10

   => Auxiliary Basis Set <=

  Basis Set: (CC-PVDZ AUX)
    Blend: CC-PVDZ-JKFIT + DEF2-UNIVERSAL-JKFIT
    Number of shells: 41
    Number of basis functions: 121
    Number of Cartesian functions: 141
    Spherical Harmonics?: true
    Max angular momentum: 3

  ==> DFT Potential <==

   => LibXC <=

    Version 6.2.2
    S. Lehtola, C. Steigemann, M. J.T. Oliveira, and M. A.L. Marques.,  SoftwareX 7, 1â€“5 (2018) (10.1016/j.softx.2017.11.002)

   => Composite Functional: B3LYP <=

    B3LYP Hyb-GGA Exchange-Correlation Functional

    P. J. Stephens, F. J. Devlin, C. F. Chabalowski, and M. J. Frisch.,  J. Phys. Chem. 98, 11623 (1994) (10.1021/j100096a001)

    Deriv               =              1
    GGA                 =           TRUE
    Meta                =          FALSE

    Exchange Hybrid     =           TRUE
    MP2 Hybrid          =          FALSE

   => Exchange Functionals <=

    0.0800   Slater exchange
    0.7200         Becke 88

   => Exact (HF) Exchange <=

    0.2000               HF

   => Correlation Functionals <=

    0.1900   Vosko, Wilk & Nusair (VWN5_RPA)
    0.8100   Lee, Yang & Parr

   => LibXC Density Thresholds  <==

    XC_HYB_GGA_XC_B3LYP:  1.00E-15

   => Molecular Quadrature <=

    Radial Scheme          =       TREUTLER
    Pruning Scheme         =           NONE
    Nuclear Scheme         =       TREUTLER

    Blocking Scheme        =         OCTREE
    BS radius alpha        =              1
    Pruning alpha          =              1
    Radial Points          =             75
    Spherical Points       =            302
    Total Points           =          44394
    Total Blocks           =            434
    Max Points             =            255
    Max Functions          =             28
    Weights Tolerance      =       1.00E-15

  -Total Gradient:
     Atom            X                  Y                   Z
    ------   -----------------  -----------------  -----------------
       1        0.000000000000    -0.000000000000    -0.000005670984
       2        0.000000000000     0.000000000000     0.000009345847

*** tstop() called on Joses-MacBook-Pro-2.local at Thu Jul 17 12:48:30 2025
Module time:
	user time   =       0.52 seconds =       0.01 minutes
	system time =       1.11 seconds =       0.02 minutes
	total time  =          1 seconds =       0.02 minutes
Total time:
	user time   =      63.48 seconds =       1.06 minutes
	system time =      62.86 seconds =       1.05 minutes
	total time  =         13 seconds =       0.22 minutes

    			-----------------------------------------

    			 OPTKING 3.0: for geometry optimizations

    			     By R.A. King, Bethel University

    			        with contributions from

    			    A.V. Copan, J. Cayton, A. Heide

    			-----------------------------------------

	                            ===> Fragment 1 <==

	 Z (Atomic Numbers)          Masses                          Geom
	       3.000000             7.016003          0.00000000  0.00000000  4.78033753
	       7.000000            14.003074          0.00000000  0.00000000 -2.39510728

	 - Coordinate -           - BOHR/RAD -       - ANG/DEG -
	 R(1,2)           =         7.175445           3.797082

	        --- Internal Coordinate Step in ANG or DEG, aJ/ANG or AJ/DEG ---
	-------------------------------------------------------------------------------
	           Coordinate      Previous         Force          Change          New
	           ----------      --------        ------          ------        ------
	               R(1,2)       3.79708        0.00006        0.00067       3.79775
	-------------------------------------------------------------------------------

	                                 ==> Convergence Check <==

	Measures of convergence in internal coordinates in au.

	Criteria marked as inactive (o), active & met (*), and active & unmet ( ).

	----------------------------------------------------------------------------------------------
	   Step    Total Energy     Delta E     Max Force     RMS Force      Max Disp      RMS Disp
	----------------------------------------------------------------------------------------------
	  Convergence Criteria     1.00e-06 *    3.00e-04 *             o    1.20e-03 *             o
	----------------------------------------------------------------------------------------------
	    16     -61.32161557   -2.76e-07 *    7.51e-06 *    7.51e-06 o    1.26e-03      1.26e-03 o  ~
	----------------------------------------------------------------------------------------------

Next Geometry in Ang
	Fragment 1 (Ang)

	   Li   0.0000000000   0.0000000000   2.5299782989
	    N   0.0000000000   0.0000000000  -1.2677688109

    Final optimized geometry and variables:
    Molecular point group: c2v
    Full point group: C_inf_v

    Geometry (in Angstrom), charge = 1, multiplicity = 6:

    LI           0.000000000000     0.000000000000     2.529645678771
    N            0.000000000000     0.000000000000    -1.267436190798

    Psi4 stopped on: Thursday, 17 July 2025 12:48PM
    Psi4 wall time for execution: 0:00:12.79

*** Psi4 exiting successfully. Buy a developer a beer!
