                               Psi4 1.9.1 release

  ==> Input File <==

--------------------------------------------------------------------------
molecule {
1 6
Ar   0.00000        0.60000        0.00000
Ar   0.00000       -0.60000        0.00000
}

set {
basis              cc-pvdz
reference          uks
maxiter            500
geom_maxiter       500
DAMPING_PERCENTAGE 1
guess              SAP
}

optimize('b3lyp')
--------------------------------------------------------------------------

    Molecular point group: d2h
  Charge       = 1
  Multiplicity = 6
  Basis Set: CC-PVDZ
    Blend: CC-PVDZ
  Basis Set: (CC-PVDZ AUX)
    Blend: CC-PVDZ-JKFIT
  @DF-UKS Final Energy: -1051.89599277739194
    Total Energy =                      -1051.8959927773919389
 Dipole X            :          0.0000000            0.0000000            0.0000000
 Dipole Y            :          0.0000000            0.0000000            0.0000000
 Dipole Z            :          0.0000000            0.0000000            0.0000000
 Magnitude           :                                                    0.0000000
    Molecular point group: d2h
  Basis Set: CC-PVDZ
    Blend: CC-PVDZ
  Basis Set: (CC-PVDZ AUX)
    Blend: CC-PVDZ-JKFIT
  Basis Set: CC-PVDZ
    Blend: CC-PVDZ
  Basis Set: (CC-PVDZ AUX)
    Blend: CC-PVDZ-JKFIT
  @DF-UKS Final Energy: -1051.93695011036721
    Total Energy =                      -1051.9369501103672064
  Basis Set: CC-PVDZ
    Blend: CC-PVDZ
  Basis Set: (CC-PVDZ AUX)
    Blend: CC-PVDZ-JKFIT
  Basis Set: CC-PVDZ
    Blend: CC-PVDZ
  @DF-UKS Final Energy: -1052.01138221968654
    Total Energy =                      -1052.0113822196865385
  @DF-UKS Final Energy: -1052.24153804089610
    Total Energy =                      -1052.2415380408961028
  @DF-UKS Final Energy: -1052.61445490299957
    Total Energy =                      -1052.6144549029995687
  @DF-UKS Final Energy: -1052.72471178172941
    Total Energy =                      -1052.7247117817294111
  @DF-UKS Final Energy: -1052.77204666580656
    Total Energy =                      -1052.7720466658065561
  @DF-UKS Final Energy: -1052.79544697214465
    Total Energy =                      -1052.7954469721446458
  @DF-UKS Final Energy: -1052.80639504942383
    Total Energy =                      -1052.8063950494238270
  @DF-UKS Final Energy: -1052.81752335031888
    Total Energy =                      -1052.8175233503188792
  @DF-UKS Final Energy: -1052.82945067761784
    Total Energy =                      -1052.8294506776178423
  @DF-UKS Final Energy: -1052.83126997075078
    Total Energy =                      -1052.8312699707507818
  @DF-UKS Final Energy: -1052.83130496239482
    Total Energy =                      -1052.8313049623948245
  Basis Set: (CC-PVDZ AUX)
    Blend: CC-PVDZ-JKFIT
  Basis Set: CC-PVDZ
    Blend: CC-PVDZ
  Basis Set: (CC-PVDZ AUX)
    Blend: CC-PVDZ-JKFIT
  @DF-UKS Final Energy: -1052.83131260313962
    Total Energy =                      -1052.8313126031396223
  Basis Set: CC-PVDZ
    Blend: CC-PVDZ
  Basis Set: (CC-PVDZ AUX)
    Blend: CC-PVDZ-JKFIT
  Charge       = 1
  Multiplicity = 6
  Basis Set: CC-PVDZ
    Blend: CC-PVDZ
  Basis Set: (CC-PVDZ AUX)
    Blend: CC-PVDZ-JKFIT

    Orbital Energies [Eh]
    ---------------------

    Alpha Occupied:

       1B2u -115.585814     1Ag  -115.585814     2B2u  -11.596726
       2Ag   -11.596660     1B3u   -9.155520     1B1g   -9.155517
       1B1u   -9.152604     1B3g   -9.152583     3Ag    -9.150370
       3B2u   -9.150139     4Ag    -1.530851     4B2u   -1.349112
       5Ag    -0.989630     2B3u   -0.912387     2B1u   -0.908214
       2B1g   -0.806073     2B3g   -0.804238     5B2u   -0.640026
       6Ag     0.032428     3B1u    0.115521

    Alpha Virtual:

       3B3u    0.185551     6B2u    0.196600     3B1g    0.271861
       3B3g    0.274448     4B1u    0.278711     4B3u    0.278853
       7Ag     0.330339     1B2g    0.365270     8Ag     0.366097
       7B2u    0.420705     1Au     0.421477     8B2u    0.491065
       9Ag     0.525222     4B3g    0.632019     4B1g    0.649632
       9B2u    1.189289

    Beta Occupied:

       1Ag  -115.567541     1B2u -115.567540     2B2u  -11.578677
       2Ag   -11.578661     1B3u   -9.132495     1B1g   -9.132482
       3Ag    -9.124890     3B2u   -9.124717     1B1u   -9.122150
       1B3g   -9.122137     4Ag    -1.421141     4B2u   -1.222966
       5Ag    -0.864860     2B3u   -0.811353     2B1u   -0.790336

    Beta Virtual:

       2B1g   -0.645949     2B3g   -0.623516     5B2u   -0.458025
       6Ag     0.192368     3B3u    0.238403     6B2u    0.254191
       3B1u    0.259004     3B1g    0.316451     3B3g    0.329874
       4B3u    0.345890     4B1u    0.360067     7Ag     0.386018
       1B2g    0.459681     8Ag     0.459941     7B2u    0.519572
       1Au     0.520094     8B2u    0.581184     9Ag     0.606605
       4B1g    0.727587     4B3g    0.746057     9B2u    1.277188

    Final Occupation by Irrep:
             Ag   B1g   B2g   B3g    Au   B1u   B2u   B3u
    DOCC [     5,    1,    0,    1,    0,    2,    4,    2 ]
    SOCC [     1,    1,    0,    1,    0,    1,    1,    0 ]
    NA   [     6,    2,    0,    2,    0,    3,    5,    2 ]
    NB   [     5,    1,    0,    1,    0,    2,    4,    2 ]

  @DF-UKS Final Energy: -1052.83131339449324

   => Energetics <=

    Nuclear Repulsion Energy =             93.2727378950070261
    One-Electron Energy =               -1625.8317597341097098
    Two-Electron Energy =                 529.2352805563803031
    DFT Exchange-Correlation Energy =     -49.5075721117710117
    Empirical Dispersion Energy =           0.0000000000000000
    VV10 Nonlocal Energy =                  0.0000000000000000
    Total Energy =                      -1052.8313133944932360

  UHF NO Occupations:
  HONO-2 :    2B3g 1.0000000
  HONO-1 :    3B1u 1.0000000
  HONO-0 :    2B1g 1.0000000
  LUNO+0 :    3B3u 0.0007054
  LUNO+1 :    7 Ag 0.0002917
  LUNO+2 :    8 Ag 0.0001224
  LUNO+3 :    6B2u 0.0000979

Computation Completed

Properties will be evaluated at   0.000000,   0.000000,   0.000000 [a0]

Properties computed using the SCF density matrix

 Multipole Moments:

 ------------------------------------------------------------------------------------
     Multipole            Electronic (a.u.)      Nuclear  (a.u.)        Total (a.u.)
 ------------------------------------------------------------------------------------

 L = 1.  Multiply by 2.5417464519 to convert [e a0] to [Debye]
 Dipole X            :          0.0000000            0.0000000            0.0000000
 Dipole Y            :          0.0000000            0.0000000            0.0000000
 Dipole Z            :          0.0000000            0.0000000            0.0000000
 Magnitude           :                                                    0.0000000

 ------------------------------------------------------------------------------------

*** tstop() called on Joses-MacBook-Pro-2.local at Thu Jul 17 16:03:07 2025
Module time:
	user time   =       6.82 seconds =       0.11 minutes
	system time =       2.06 seconds =       0.03 minutes
	total time  =          1 seconds =       0.02 minutes
Total time:
	user time   =     166.63 seconds =       2.78 minutes
	system time =      47.39 seconds =       0.79 minutes
	total time  =         21 seconds =       0.35 minutes

*** tstart() called on Joses-MacBook-Pro-2.local
*** at Thu Jul 17 16:03:07 2025

         ------------------------------------------------------------
                                   SCF GRAD
                          Rob Parrish, Justin Turney,
                       Andy Simmonett, and Alex Sokolov
         ------------------------------------------------------------

  ==> Geometry <==

    Molecular point group: d2h
    Full point group: D_inf_h

    Geometry (in Angstrom), charge = 1, multiplicity = 6:

       Center              X                  Y                   Z               Mass
    ------------   -----------------  -----------------  -----------------  -----------------
         AR          -0.000000000000     0.919097155967     0.000000000000    39.962383123700
         AR           0.000000000000    -0.919097155967     0.000000000000    39.962383123700

  Nuclear repulsion =   93.272737895007026

  ==> Basis Set <==

  Basis Set: CC-PVDZ
    Blend: CC-PVDZ
    Number of shells: 16
    Number of basis functions: 36
    Number of Cartesian functions: 38
    Spherical Harmonics?: true
    Max angular momentum: 2

  ==> DFJKGrad: Density-Fitted SCF Gradients <==

    Gradient:                    1
    J tasked:                  Yes
    K tasked:                  Yes
    wK tasked:                  No
    OpenMP threads:              1
    Integrals threads:           1
    Memory [MiB]:              375
    Schwarz Cutoff:          1E-12
    Fitting Condition:       1E-10

   => Auxiliary Basis Set <=

  Basis Set: (CC-PVDZ AUX)
    Blend: CC-PVDZ-JKFIT
    Number of shells: 72
    Number of basis functions: 224
    Number of Cartesian functions: 260
    Spherical Harmonics?: true
    Max angular momentum: 3

  ==> DFT Potential <==

   => LibXC <=

    Version 6.2.2
    S. Lehtola, C. Steigemann, M. J.T. Oliveira, and M. A.L. Marques.,  SoftwareX 7, 1â€“5 (2018) (10.1016/j.softx.2017.11.002)

   => Composite Functional: B3LYP <=

    B3LYP Hyb-GGA Exchange-Correlation Functional

    P. J. Stephens, F. J. Devlin, C. F. Chabalowski, and M. J. Frisch.,  J. Phys. Chem. 98, 11623 (1994) (10.1021/j100096a001)

    Deriv               =              1
    GGA                 =           TRUE
    Meta                =          FALSE

    Exchange Hybrid     =           TRUE
    MP2 Hybrid          =          FALSE

   => Exchange Functionals <=

    0.0800   Slater exchange
    0.7200         Becke 88

   => Exact (HF) Exchange <=

    0.2000               HF

   => Correlation Functionals <=

    0.1900   Vosko, Wilk & Nusair (VWN5_RPA)
    0.8100   Lee, Yang & Parr

   => LibXC Density Thresholds  <==

    XC_HYB_GGA_XC_B3LYP:  1.00E-15

   => Molecular Quadrature <=

    Radial Scheme          =       TREUTLER
    Pruning Scheme         =           NONE
    Nuclear Scheme         =       TREUTLER

    Blocking Scheme        =         OCTREE
    BS radius alpha        =              1
    Pruning alpha          =              1
    Radial Points          =             75
    Spherical Points       =            302
    Total Points           =          39072
    Total Blocks           =            364
    Max Points             =            256
    Max Functions          =             36
    Weights Tolerance      =       1.00E-15

  -Total Gradient:
     Atom            X                  Y                   Z
    ------   -----------------  -----------------  -----------------
       1        0.000000000000    -0.000008626821    -0.000000000000
       2       -0.000000000000     0.000008626821    -0.000000000000

*** tstop() called on Joses-MacBook-Pro-2.local at Thu Jul 17 16:03:07 2025
Module time:
	user time   =       2.10 seconds =       0.03 minutes
	system time =       1.63 seconds =       0.03 minutes
	total time  =          0 seconds =       0.00 minutes
Total time:
	user time   =     168.74 seconds =       2.81 minutes
	system time =      49.02 seconds =       0.82 minutes
	total time  =         21 seconds =       0.35 minutes

    			-----------------------------------------

    			 OPTKING 3.0: for geometry optimizations

    			     By R.A. King, Bethel University

    			        with contributions from

    			    A.V. Copan, J. Cayton, A. Heide

    			-----------------------------------------

	                            ===> Fragment 1 <==

	 Z (Atomic Numbers)          Masses                          Geom
	      18.000000            39.962383         -0.00000000  1.73684191  0.00000000
	      18.000000            39.962383          0.00000000 -1.73684191  0.00000000

	 - Coordinate -           - BOHR/RAD -       - ANG/DEG -
	 R(1,2)           =         3.473684           1.838194

	        --- Internal Coordinate Step in ANG or DEG, aJ/ANG or AJ/DEG ---
	-------------------------------------------------------------------------------
	           Coordinate      Previous         Force          Change          New
	           ----------      --------        ------          ------        ------
	               R(1,2)       1.83819        0.00007        0.00001       1.83820
	-------------------------------------------------------------------------------

	                                 ==> Convergence Check <==

	Measures of convergence in internal coordinates in au.

	Criteria marked as inactive (o), active & met (*), and active & unmet ( ).

	----------------------------------------------------------------------------------------------
	   Step    Total Energy     Delta E     Max Force     RMS Force      Max Disp      RMS Disp
	----------------------------------------------------------------------------------------------
	  Convergence Criteria     1.00e-06 *    3.00e-04 *             o    1.20e-03 *             o
	----------------------------------------------------------------------------------------------
	    15   -1052.83131339   -7.91e-07 *    8.63e-06 *    8.63e-06 o    1.48e-05 *    1.48e-05 o  ~
	----------------------------------------------------------------------------------------------

Next Geometry in Ang
	Fragment 1 (Ang)

	   Ar  -0.0000000000   0.9191010635   0.0000000000
	   Ar   0.0000000000  -0.9191010635   0.0000000000

    Final optimized geometry and variables:
    Molecular point group: d2h
    Full point group: D_inf_h

    Geometry (in Angstrom), charge = 1, multiplicity = 6:

    AR          -0.000000000000     0.919097155967     0.000000000000
    AR           0.000000000000    -0.919097155967     0.000000000000

    Psi4 stopped on: Thursday, 17 July 2025 04:03PM
    Psi4 wall time for execution: 0:00:21.20

*** Psi4 exiting successfully. Buy a developer a beer!
