                               Psi4 1.9.1 release

  ==> Input File <==

--------------------------------------------------------------------------
molecule {
1 6
Si   0.00000        0.60000        0.00000
Ar   0.00000       -0.60000        0.00000
}

set {
basis              cc-pvdz
reference          uks
maxiter            500
geom_maxiter       500
DAMPING_PERCENTAGE 1
guess              SAP
}

optimize('b3lyp')
--------------------------------------------------------------------------

    Molecular point group: c2v
  Charge       = 1
  Multiplicity = 6
  Basis Set: CC-PVDZ
    Blend: CC-PVDZ
  Basis Set: (CC-PVDZ AUX)
    Blend: CC-PVDZ-JKFIT
  @DF-UKS Final Energy:  -814.48414488669209
    Total Energy =                       -814.4841448866920928
 Dipole X            :          0.0000000            0.0000000            0.0000000
 Dipole Y            :          0.0000000            0.0000000            0.0000000
 Dipole Z            :         -3.1564529            1.8654469           -1.2910061
 Magnitude           :                                                    1.2910061
    Molecular point group: c2v
  Basis Set: CC-PVDZ
    Blend: CC-PVDZ
  Basis Set: (CC-PVDZ AUX)
    Blend: CC-PVDZ-JKFIT
  Basis Set: CC-PVDZ
    Blend: CC-PVDZ
  Basis Set: (CC-PVDZ AUX)
    Blend: CC-PVDZ-JKFIT
  @DF-UKS Final Energy:  -814.52190568746778
    Total Energy =                       -814.5219056874676653
  Basis Set: CC-PVDZ
    Blend: CC-PVDZ
  Basis Set: (CC-PVDZ AUX)
    Blend: CC-PVDZ-JKFIT
  Basis Set: CC-PVDZ
    Blend: CC-PVDZ
  @DF-UKS Final Energy:  -814.59220163466023
    Total Energy =                       -814.5922016346601140
  @DF-UKS Final Energy:  -814.82327606933018
    Total Energy =                       -814.8232760693301771
  @DF-UKS Final Energy:  -815.35266063223298
    Total Energy =                       -815.3526606322329826
  @DF-UKS Final Energy:  -815.57514965127211
    Total Energy =                       -815.5751496512721133
  @DF-UKS Final Energy:  -815.77354524663440
    Total Energy =                       -815.7735452466343986
  @DF-UKS Final Energy:  -815.94628382044539
    Total Energy =                       -815.9462838204452737
  @DF-UKS Final Energy:  -816.06272823226163
    Total Energy =                       -816.0627282322616338
  @DF-UKS Final Energy:  -816.08136198805732
    Total Energy =                       -816.0813619880572105
  @DF-UKS Final Energy:  -816.12282343378922
    Total Energy =                       -816.1228234337891081
  @DF-UKS Final Energy:  -816.15419164056755
    Total Energy =                       -816.1541916405676602
  @DF-UKS Final Energy:  -816.17079086328818
    Total Energy =                       -816.1707908632881754
  @DF-UKS Final Energy:  -816.17931375971534
    Total Energy =                       -816.1793137597153418
  @DF-UKS Final Energy:  -816.18348022077998
    Total Energy =                       -816.1834802207800976
  @DF-UKS Final Energy:  -816.18539335501964
    Total Energy =                       -816.1853933550196416
  @DF-UKS Final Energy:  -816.18619525562599
    Total Energy =                       -816.1861952556259894
  @DF-UKS Final Energy:  -816.18648334710394
    Total Energy =                       -816.1864833471039447
  @DF-UKS Final Energy:  -816.18656181374536
    Total Energy =                       -816.1865618137453566
  @DF-UKS Final Energy:  -816.18657326905850
    Total Energy =                       -816.1865732690584991
  Basis Set: (CC-PVDZ AUX)
    Blend: CC-PVDZ-JKFIT
  Basis Set: CC-PVDZ
    Blend: CC-PVDZ
  Basis Set: (CC-PVDZ AUX)
    Blend: CC-PVDZ-JKFIT
  @DF-UKS Final Energy:  -816.18657540924733
    Total Energy =                       -816.1865754092473253
  Basis Set: CC-PVDZ
    Blend: CC-PVDZ
  Basis Set: (CC-PVDZ AUX)
    Blend: CC-PVDZ-JKFIT
  Charge       = 1
  Multiplicity = 6
  Basis Set: CC-PVDZ
    Blend: CC-PVDZ
  Basis Set: (CC-PVDZ AUX)
    Blend: CC-PVDZ-JKFIT

    Orbital Energies [Eh]
    ---------------------

    Alpha Occupied:

       1A1  -115.626025     2A1   -66.341458     3A1   -11.652290
       4A1    -9.225147     1B2    -9.194911     1B1    -9.194911
       5A1    -5.485507     6A1    -3.845711     2B2    -3.845233
       2B1    -3.845233     7A1    -1.448083     8A1    -0.926077
       3B2    -0.859994     3B1    -0.859994     9A1    -0.639669
      10A1    -0.363579     4B2    -0.353113     4B1    -0.353113

    Alpha Virtual:

      11A1     0.049567    12A1     0.131790     5B2     0.148888
       5B1     0.148888    13A1     0.164811     6B2     0.170898
       6B1     0.170898     1A2     0.176089    14A1     0.176093
       7B2     0.230832     7B1     0.230832    15A1     0.250358
      16A1     0.325112     8B2     0.344984     8B1     0.344984
      17A1     0.382300    18A1     0.395545     2A2     0.395551

    Beta Occupied:

       1A1  -115.617060     2A1   -66.325371     3A1   -11.643729
       4A1    -9.196753     1B2    -9.189743     1B1    -9.189743
       5A1    -5.464474     6A1    -3.823509     2B2    -3.822500
       2B1    -3.822500     7A1    -1.385103     3B2    -0.840251
       3B1    -0.840251

    Beta Virtual:

       8A1    -0.734307     9A1    -0.410328    10A1    -0.178495
       4B1    -0.164483     4B2    -0.164483    11A1     0.118613
      12A1     0.205431     5B2     0.213377     5B1     0.213377
       6B2     0.248693     6B1     0.248693    13A1     0.276400
       7B2     0.315336     7B1     0.315336    14A1     0.319889
       1A2     0.319915    15A1     0.320972    16A1     0.400385
      17A1     0.405816     2A2     0.405822     8B2     0.412180
       8B1     0.412180    18A1     0.436683

    Final Occupation by Irrep:
             A1    A2    B1    B2
    DOCC [     7,    0,    3,    3 ]
    SOCC [     3,    0,    1,    1 ]
    NA   [    10,    0,    4,    4 ]
    NB   [     7,    0,    3,    3 ]

  @DF-UKS Final Energy:  -816.18657554214155

   => Energetics <=

    Nuclear Repulsion Energy =             32.5000415522977306
    One-Electron Energy =               -1182.7469790664379161
    Two-Electron Energy =                 375.4236268661825875
    DFT Exchange-Correlation Energy =     -41.3632648941838852
    Empirical Dispersion Energy =           0.0000000000000000
    VV10 Nonlocal Energy =                  0.0000000000000000
    Total Energy =                       -816.1865755421415543

  UHF NO Occupations:
  HONO-2 :    4 B1 1.0000000
  HONO-1 :    4 B2 1.0000000
  HONO-0 :   10 A1 1.0000000
  LUNO+0 :   11 A1 0.0008205
  LUNO+1 :    5 B1 0.0000260
  LUNO+2 :    5 B2 0.0000260
  LUNO+3 :   12 A1 0.0000002

Computation Completed

Properties will be evaluated at   0.000000,   0.000000,   0.000000 [a0]

Properties computed using the SCF density matrix

 Multipole Moments:

 ------------------------------------------------------------------------------------
     Multipole            Electronic (a.u.)      Nuclear  (a.u.)        Total (a.u.)
 ------------------------------------------------------------------------------------

 L = 1.  Multiply by 2.5417464519 to convert [e a0] to [Debye]
 Dipole X            :          0.0000000            0.0000000            0.0000000
 Dipole Y            :          0.0000000            0.0000000            0.0000000
 Dipole Z            :         -9.2682832            6.3785123           -2.8897710
 Magnitude           :                                                    2.8897710

 ------------------------------------------------------------------------------------

*** tstop() called on Joses-MacBook-Pro-2.local at Thu Jul 17 15:44:29 2025
Module time:
	user time   =       5.16 seconds =       0.09 minutes
	system time =       2.13 seconds =       0.04 minutes
	total time  =          1 seconds =       0.02 minutes
Total time:
	user time   =     241.33 seconds =       4.02 minutes
	system time =      70.69 seconds =       1.18 minutes
	total time  =         30 seconds =       0.50 minutes

*** tstart() called on Joses-MacBook-Pro-2.local
*** at Thu Jul 17 15:44:29 2025

         ------------------------------------------------------------
                                   SCF GRAD
                          Rob Parrish, Justin Turney,
                       Andy Simmonett, and Alex Sokolov
         ------------------------------------------------------------

  ==> Geometry <==

    Molecular point group: c2v
    Full point group: C_inf_v

    Geometry (in Angstrom), charge = 1, multiplicity = 6:

       Center              X                  Y                   Z               Mass
    ------------   -----------------  -----------------  -----------------  -----------------
         SI           0.000000000000     0.000000000000     2.413503910404    27.976926534650
         AR           0.000000000000     0.000000000000    -1.689649523239    39.962383123700

  Nuclear repulsion =   32.500041552297731

  ==> Basis Set <==

  Basis Set: CC-PVDZ
    Blend: CC-PVDZ
    Number of shells: 16
    Number of basis functions: 36
    Number of Cartesian functions: 38
    Spherical Harmonics?: true
    Max angular momentum: 2

  ==> DFJKGrad: Density-Fitted SCF Gradients <==

    Gradient:                    1
    J tasked:                  Yes
    K tasked:                  Yes
    wK tasked:                  No
    OpenMP threads:              1
    Integrals threads:           1
    Memory [MiB]:              375
    Schwarz Cutoff:          1E-12
    Fitting Condition:       1E-10

   => Auxiliary Basis Set <=

  Basis Set: (CC-PVDZ AUX)
    Blend: CC-PVDZ-JKFIT
    Number of shells: 72
    Number of basis functions: 224
    Number of Cartesian functions: 260
    Spherical Harmonics?: true
    Max angular momentum: 3

  ==> DFT Potential <==

   => LibXC <=

    Version 6.2.2
    S. Lehtola, C. Steigemann, M. J.T. Oliveira, and M. A.L. Marques.,  SoftwareX 7, 1â€“5 (2018) (10.1016/j.softx.2017.11.002)

   => Composite Functional: B3LYP <=

    B3LYP Hyb-GGA Exchange-Correlation Functional

    P. J. Stephens, F. J. Devlin, C. F. Chabalowski, and M. J. Frisch.,  J. Phys. Chem. 98, 11623 (1994) (10.1021/j100096a001)

    Deriv               =              1
    GGA                 =           TRUE
    Meta                =          FALSE

    Exchange Hybrid     =           TRUE
    MP2 Hybrid          =          FALSE

   => Exchange Functionals <=

    0.0800   Slater exchange
    0.7200         Becke 88

   => Exact (HF) Exchange <=

    0.2000               HF

   => Correlation Functionals <=

    0.1900   Vosko, Wilk & Nusair (VWN5_RPA)
    0.8100   Lee, Yang & Parr

   => LibXC Density Thresholds  <==

    XC_HYB_GGA_XC_B3LYP:  1.00E-15

   => Molecular Quadrature <=

    Radial Scheme          =       TREUTLER
    Pruning Scheme         =           NONE
    Nuclear Scheme         =       TREUTLER

    Blocking Scheme        =         OCTREE
    BS radius alpha        =              1
    Pruning alpha          =              1
    Radial Points          =             75
    Spherical Points       =            302
    Total Points           =          41773
    Total Blocks           =            420
    Max Points             =            256
    Max Functions          =             36
    Weights Tolerance      =       1.00E-15

  -Total Gradient:
     Atom            X                  Y                   Z
    ------   -----------------  -----------------  -----------------
       1        0.000000000000     0.000000000000    -0.000008074287
       2        0.000000000000    -0.000000000000     0.000004270208

*** tstop() called on Joses-MacBook-Pro-2.local at Thu Jul 17 15:44:29 2025
Module time:
	user time   =       2.24 seconds =       0.04 minutes
	system time =       1.11 seconds =       0.02 minutes
	total time  =          0 seconds =       0.00 minutes
Total time:
	user time   =     243.57 seconds =       4.06 minutes
	system time =      71.80 seconds =       1.20 minutes
	total time  =         30 seconds =       0.50 minutes

    			-----------------------------------------

    			 OPTKING 3.0: for geometry optimizations

    			     By R.A. King, Bethel University

    			        with contributions from

    			    A.V. Copan, J. Cayton, A. Heide

    			-----------------------------------------

	                            ===> Fragment 1 <==

	 Z (Atomic Numbers)          Masses                          Geom
	      14.000000            27.976927          0.00000000  0.00000000  4.56086139
	      18.000000            39.962383          0.00000000  0.00000000 -3.19297485

	 - Coordinate -           - BOHR/RAD -       - ANG/DEG -
	 R(1,2)           =         7.753836           4.103153

	        --- Internal Coordinate Step in ANG or DEG, aJ/ANG or AJ/DEG ---
	-------------------------------------------------------------------------------
	           Coordinate      Previous         Force          Change          New
	           ----------      --------        ------          ------        ------
	               R(1,2)       4.10315        0.00005        0.00143       4.10458
	-------------------------------------------------------------------------------

	                                 ==> Convergence Check <==

	Measures of convergence in internal coordinates in au.

	Criteria marked as inactive (o), active & met (*), and active & unmet ( ).

	----------------------------------------------------------------------------------------------
	   Step    Total Energy     Delta E     Max Force     RMS Force      Max Disp      RMS Disp
	----------------------------------------------------------------------------------------------
	  Convergence Criteria     1.00e-06 *    3.00e-04 *             o    1.20e-03 *             o
	----------------------------------------------------------------------------------------------
	    22    -816.18657554   -1.33e-07 *    6.17e-06 *    6.17e-06 o    2.70e-03      2.70e-03 o  ~
	----------------------------------------------------------------------------------------------

Next Geometry in Ang
	Fragment 1 (Ang)

	   Si   0.0000000000   0.0000000000   2.4142190263
	   Ar   0.0000000000   0.0000000000  -1.6903646391

    Final optimized geometry and variables:
    Molecular point group: c2v
    Full point group: C_inf_v

    Geometry (in Angstrom), charge = 1, multiplicity = 6:

    SI           0.000000000000     0.000000000000     2.413503910404
    AR           0.000000000000     0.000000000000    -1.689649523239

    Psi4 stopped on: Thursday, 17 July 2025 03:44PM
    Psi4 wall time for execution: 0:00:30.39

*** Psi4 exiting successfully. Buy a developer a beer!
