                               Psi4 1.9.1 release

  ==> Input File <==

--------------------------------------------------------------------------
molecule {
1 6
Mg   0.00000        0.60000        0.00000
Ar   0.00000       -0.60000        0.00000
}

set {
basis              cc-pvdz
reference          uks
maxiter            500
geom_maxiter       500
DAMPING_PERCENTAGE 1
guess              SAP
}

optimize('b3lyp')
--------------------------------------------------------------------------

    Molecular point group: c2v
  Charge       = 1
  Multiplicity = 6
  Basis Set: CC-PVDZ
    Blend: CC-PVDZ
  Basis Set: (CC-PVDZ AUX)
    Blend: CC-PVDZ-JKFIT + DEF2-UNIVERSAL-JKFIT
  @DF-UKS Final Energy:  -724.92379040542289
    Total Energy =                       -724.9237904054228920
 Dipole X            :          0.0000000            0.0000000            0.0000000
 Dipole Y            :          0.0000000            0.0000000            0.0000000
 Dipole Z            :         -3.4241040            1.6956924           -1.7284116
 Magnitude           :                                                    1.7284116
    Molecular point group: c2v
  Basis Set: CC-PVDZ
    Blend: CC-PVDZ
  Basis Set: (CC-PVDZ AUX)
    Blend: CC-PVDZ-JKFIT + DEF2-UNIVERSAL-JKFIT
  Basis Set: CC-PVDZ
    Blend: CC-PVDZ
  Basis Set: (CC-PVDZ AUX)
    Blend: CC-PVDZ-JKFIT + DEF2-UNIVERSAL-JKFIT
  @DF-UKS Final Energy:  -724.95174183240351
    Total Energy =                       -724.9517418324035134
  Basis Set: CC-PVDZ
    Blend: CC-PVDZ
  Basis Set: (CC-PVDZ AUX)
    Blend: CC-PVDZ-JKFIT + DEF2-UNIVERSAL-JKFIT
  Basis Set: CC-PVDZ
    Blend: CC-PVDZ
  @DF-UKS Final Energy:  -725.00467020703206
    Total Energy =                       -725.0046702070320634
  @DF-UKS Final Energy:  -725.18649499660864
    Total Energy =                       -725.1864949966086442
  @DF-UKS Final Energy:  -725.72474686499288
    Total Energy =                       -725.7247468649928805
  @DF-UKS Final Energy:  -725.92452752431655
    Total Energy =                       -725.9245275243165452
  @DF-UKS Final Energy:  -726.05927626268738
    Total Energy =                       -726.0592762626874901
  @DF-UKS Final Energy:  -726.15131619001556
    Total Energy =                       -726.1513161900155637
  @DF-UKS Final Energy:  -726.20666597508944
    Total Energy =                       -726.2066659750894360
  @DF-UKS Final Energy:  -726.23579934732959
    Total Energy =                       -726.2357993473295892
  @DF-UKS Final Energy:  -726.24708737344099
    Total Energy =                       -726.2470873734411043
  @DF-UKS Final Energy:  -726.24981853807981
    Total Energy =                       -726.2498185380796940
  @DF-UKS Final Energy:  -726.25011664719477
    Total Energy =                       -726.2501166471946590
  Basis Set: (CC-PVDZ AUX)
    Blend: CC-PVDZ-JKFIT + DEF2-UNIVERSAL-JKFIT
  Basis Set: CC-PVDZ
    Blend: CC-PVDZ
  Basis Set: (CC-PVDZ AUX)
    Blend: CC-PVDZ-JKFIT + DEF2-UNIVERSAL-JKFIT
  @DF-UKS Final Energy:  -726.25012494837415
    Total Energy =                       -726.2501249483741503
  Basis Set: CC-PVDZ
    Blend: CC-PVDZ
  Basis Set: (CC-PVDZ AUX)
    Blend: CC-PVDZ-JKFIT + DEF2-UNIVERSAL-JKFIT
  Charge       = 1
  Multiplicity = 6
  Basis Set: CC-PVDZ
    Blend: CC-PVDZ
  Basis Set: (CC-PVDZ AUX)
    Blend: CC-PVDZ-JKFIT + DEF2-UNIVERSAL-JKFIT

    Orbital Energies [Eh]
    ---------------------

    Alpha Occupied:

       1A1  -115.991268     2A1   -46.978546     3A1   -11.994016
       4A1    -9.562127     1B2    -9.561833     1B1    -9.529514
       5A1    -3.266497     6A1    -2.014007     2B2    -2.008456
       2B1    -2.008349     7A1    -1.738868     8A1    -1.179109
       3B2    -1.177163     3B1    -1.107978     9A1    -0.413356
       4B2    -0.249466     4B1    -0.245188

    Alpha Virtual:

      10A1    -0.202819    11A1    -0.155295     5B2    -0.009350
      12A1    -0.005790     5B1    -0.000747    13A1     0.015367
       6B2     0.022514     6B1     0.043220     7B2     0.060813
       7B1     0.097373     1A2     0.102724    14A1     0.105041
      15A1     0.143034    16A1     0.151714     2A2     0.151783
      17A1     0.203547     8B2     0.216613     8B1     0.233661
      18A1     0.549079

    Beta Occupied:

       1A1  -115.970863     2A1   -46.973399     3A1   -11.974438
       4A1    -9.525061     1B2    -9.524390     1B1    -9.517034
       5A1    -3.258506     6A1    -2.008310     2B2    -1.999833
       2B1    -1.999620     7A1    -1.603112     3B1    -1.061871

    Beta Virtual:

       8A1    -0.950801     3B2    -0.948561     9A1    -0.277324
      10A1    -0.177482     4B2    -0.134461     4B1    -0.134301
      11A1    -0.090047    12A1     0.027944     5B2     0.046673
       5B1     0.047147    13A1     0.073005     6B1     0.084222
       6B2     0.086003     7B1     0.150067     7B2     0.158267
       1A2     0.185106    14A1     0.188598    15A1     0.191728
       2A2     0.231507    16A1     0.232058    17A1     0.285693
       8B1     0.291932     8B2     0.296703    18A1     0.603918

    Final Occupation by Irrep:
             A1    A2    B1    B2
    DOCC [     7,    0,    3,    2 ]
    SOCC [     2,    0,    1,    2 ]
    NA   [     9,    0,    4,    4 ]
    NB   [     7,    0,    3,    2 ]

  @DF-UKS Final Energy:  -726.25012512415651

   => Energetics <=

    Nuclear Repulsion Energy =             41.0312058780335249
    One-Electron Energy =               -1073.3123209598832091
    Two-Electron Energy =                 343.7161574491038891
    DFT Exchange-Correlation Energy =     -37.6851674914106169
    Empirical Dispersion Energy =           0.0000000000000000
    VV10 Nonlocal Energy =                  0.0000000000000000
    Total Energy =                       -726.2501251241565114

  UHF NO Occupations:
  HONO-2 :    4 B1 1.0000000
  HONO-1 :    4 B2 1.0000000
  HONO-0 :    9 A1 1.0000000
  LUNO+0 :   10 A1 0.0009419
  LUNO+1 :    5 B1 0.0001159
  LUNO+2 :   11 A1 0.0000012
  LUNO+3 :    5 B2 0.0000010

Computation Completed

Properties will be evaluated at   0.000000,   0.000000,   0.000000 [a0]

Properties computed using the SCF density matrix

 Multipole Moments:

 ------------------------------------------------------------------------------------
     Multipole            Electronic (a.u.)      Nuclear  (a.u.)        Total (a.u.)
 ------------------------------------------------------------------------------------

 L = 1.  Multiply by 2.5417464519 to convert [e a0] to [Debye]
 Dipole X            :          0.0000000            0.0000000            0.0000000
 Dipole Y            :          0.0000000            0.0000000            0.0000000
 Dipole Z            :         -8.1965173            3.9364653           -4.2600520
 Magnitude           :                                                    4.2600520

 ------------------------------------------------------------------------------------

*** tstop() called on Joses-MacBook-Pro-2.local at Thu Jul 17 15:14:38 2025
Module time:
	user time   =       6.92 seconds =       0.12 minutes
	system time =       2.44 seconds =       0.04 minutes
	total time  =          1 seconds =       0.02 minutes
Total time:
	user time   =     181.42 seconds =       3.02 minutes
	system time =      53.29 seconds =       0.89 minutes
	total time  =         23 seconds =       0.38 minutes

*** tstart() called on Joses-MacBook-Pro-2.local
*** at Thu Jul 17 15:14:38 2025

         ------------------------------------------------------------
                                   SCF GRAD
                          Rob Parrish, Justin Turney,
                       Andy Simmonett, and Alex Sokolov
         ------------------------------------------------------------

  ==> Geometry <==

    Molecular point group: c2v
    Full point group: C_inf_v

    Geometry (in Angstrom), charge = 1, multiplicity = 6:

       Center              X                  Y                   Z               Mass
    ------------   -----------------  -----------------  -----------------  -----------------
         MG           0.000000000000     0.000000000000     1.740880346000    23.985041697000
         AR           0.000000000000     0.000000000000    -1.044859801255    39.962383123700

  Nuclear repulsion =   41.031205878033525

  ==> Basis Set <==

  Basis Set: CC-PVDZ
    Blend: CC-PVDZ
    Number of shells: 16
    Number of basis functions: 36
    Number of Cartesian functions: 38
    Spherical Harmonics?: true
    Max angular momentum: 2

  ==> DFJKGrad: Density-Fitted SCF Gradients <==

    Gradient:                    1
    J tasked:                  Yes
    K tasked:                  Yes
    wK tasked:                  No
    OpenMP threads:              1
    Integrals threads:           1
    Memory [MiB]:              375
    Schwarz Cutoff:          1E-12
    Fitting Condition:       1E-10

   => Auxiliary Basis Set <=

  Basis Set: (CC-PVDZ AUX)
    Blend: CC-PVDZ-JKFIT + DEF2-UNIVERSAL-JKFIT
    Number of shells: 70
    Number of basis functions: 224
    Number of Cartesian functions: 267
    Spherical Harmonics?: true
    Max angular momentum: 4

  ==> DFT Potential <==

   => LibXC <=

    Version 6.2.2
    S. Lehtola, C. Steigemann, M. J.T. Oliveira, and M. A.L. Marques.,  SoftwareX 7, 1â€“5 (2018) (10.1016/j.softx.2017.11.002)

   => Composite Functional: B3LYP <=

    B3LYP Hyb-GGA Exchange-Correlation Functional

    P. J. Stephens, F. J. Devlin, C. F. Chabalowski, and M. J. Frisch.,  J. Phys. Chem. 98, 11623 (1994) (10.1021/j100096a001)

    Deriv               =              1
    GGA                 =           TRUE
    Meta                =          FALSE

    Exchange Hybrid     =           TRUE
    MP2 Hybrid          =          FALSE

   => Exchange Functionals <=

    0.0800   Slater exchange
    0.7200         Becke 88

   => Exact (HF) Exchange <=

    0.2000               HF

   => Correlation Functionals <=

    0.1900   Vosko, Wilk & Nusair (VWN5_RPA)
    0.8100   Lee, Yang & Parr

   => LibXC Density Thresholds  <==

    XC_HYB_GGA_XC_B3LYP:  1.00E-15

   => Molecular Quadrature <=

    Radial Scheme          =       TREUTLER
    Pruning Scheme         =           NONE
    Nuclear Scheme         =       TREUTLER

    Blocking Scheme        =         OCTREE
    BS radius alpha        =              1
    Pruning alpha          =              1
    Radial Points          =             75
    Spherical Points       =            302
    Total Points           =          43027
    Total Blocks           =            418
    Max Points             =            255
    Max Functions          =             36
    Weights Tolerance      =       1.00E-15

  -Total Gradient:
     Atom            X                  Y                   Z
    ------   -----------------  -----------------  -----------------
       1        0.000000000000    -0.000000000000     0.000019873493
       2       -0.000000000000    -0.000000000000     0.000072262851

*** tstop() called on Joses-MacBook-Pro-2.local at Thu Jul 17 15:14:38 2025
Module time:
	user time   =       2.79 seconds =       0.05 minutes
	system time =       1.22 seconds =       0.02 minutes
	total time  =          0 seconds =       0.00 minutes
Total time:
	user time   =     184.22 seconds =       3.07 minutes
	system time =      54.51 seconds =       0.91 minutes
	total time  =         23 seconds =       0.38 minutes

    			-----------------------------------------

    			 OPTKING 3.0: for geometry optimizations

    			     By R.A. King, Bethel University

    			        with contributions from

    			    A.V. Copan, J. Cayton, A. Heide

    			-----------------------------------------

	                            ===> Fragment 1 <==

	 Z (Atomic Numbers)          Masses                          Geom
	      12.000000            23.985042          0.00000000  0.00000000  3.28978707
	      18.000000            39.962383          0.00000000  0.00000000 -1.97449886

	 - Coordinate -           - BOHR/RAD -       - ANG/DEG -
	 R(1,2)           =         5.264286           2.785740

	        --- Internal Coordinate Step in ANG or DEG, aJ/ANG or AJ/DEG ---
	-------------------------------------------------------------------------------
	           Coordinate      Previous         Force          Change          New
	           ----------      --------        ------          ------        ------
	               R(1,2)       2.78574        0.00022        0.00024       2.78598
	-------------------------------------------------------------------------------

	                                 ==> Convergence Check <==

	Measures of convergence in internal coordinates in au.

	Criteria marked as inactive (o), active & met (*), and active & unmet ( ).

	----------------------------------------------------------------------------------------------
	   Step    Total Energy     Delta E     Max Force     RMS Force      Max Disp      RMS Disp
	----------------------------------------------------------------------------------------------
	  Convergence Criteria     1.00e-06 *    3.00e-04 *             o    1.20e-03 *             o
	----------------------------------------------------------------------------------------------
	    15    -726.25012512   -1.76e-07 *    2.62e-05 *    2.62e-05 o    4.54e-04 *    4.54e-04 o  ~
	----------------------------------------------------------------------------------------------

Next Geometry in Ang
	Fragment 1 (Ang)

	   Mg   0.0000000000   0.0000000000   1.7410005376
	   Ar   0.0000000000   0.0000000000  -1.0449799929

    Final optimized geometry and variables:
    Molecular point group: c2v
    Full point group: C_inf_v

    Geometry (in Angstrom), charge = 1, multiplicity = 6:

    MG           0.000000000000     0.000000000000     1.740880346000
    AR           0.000000000000     0.000000000000    -1.044859801255

    Psi4 stopped on: Thursday, 17 July 2025 03:14PM
    Psi4 wall time for execution: 0:00:23.21

*** Psi4 exiting successfully. Buy a developer a beer!
