                               Psi4 1.9.1 release

  ==> Input File <==

--------------------------------------------------------------------------
molecule {
1 6
Mg   0.00000        0.60000        0.00000
S   0.00000       -0.60000        0.00000
}

set {
basis              cc-pvdz
reference          uks
maxiter            500
geom_maxiter       500
DAMPING_PERCENTAGE 1
guess              SAP
}

optimize('b3lyp')
--------------------------------------------------------------------------

    Molecular point group: c2v
  Charge       = 1
  Multiplicity = 6
  Basis Set: CC-PVDZ
    Blend: CC-PVDZ
  Basis Set: (CC-PVDZ AUX)
    Blend: CC-PVDZ-JKFIT + DEF2-UNIVERSAL-JKFIT
  @DF-UKS Final Energy:  -596.30751795906849
    Total Energy =                       -596.3075179590684911
 Dipole X            :          0.0000000            0.0000000            0.0000000
 Dipole Y            :          0.0000000            0.0000000            0.0000000
 Dipole Z            :         -1.4685349           -0.0038828           -1.4724177
 Magnitude           :                                                    1.4724177
    Molecular point group: c2v
  Basis Set: CC-PVDZ
    Blend: CC-PVDZ
  Basis Set: (CC-PVDZ AUX)
    Blend: CC-PVDZ-JKFIT + DEF2-UNIVERSAL-JKFIT
  Basis Set: CC-PVDZ
    Blend: CC-PVDZ
  Basis Set: (CC-PVDZ AUX)
    Blend: CC-PVDZ-JKFIT + DEF2-UNIVERSAL-JKFIT
  @DF-UKS Final Energy:  -596.32992663676373
    Total Energy =                       -596.3299266367638438
  Basis Set: CC-PVDZ
    Blend: CC-PVDZ
  Basis Set: (CC-PVDZ AUX)
    Blend: CC-PVDZ-JKFIT + DEF2-UNIVERSAL-JKFIT
  Basis Set: CC-PVDZ
    Blend: CC-PVDZ
  @DF-UKS Final Energy:  -596.37295096276739
    Total Energy =                       -596.3729509627675043
  @DF-UKS Final Energy:  -596.52638781700045
    Total Energy =                       -596.5263878170004546
  @DF-UKS Final Energy:  -597.11549166330212
    Total Energy =                       -597.1154916633021230
  @DF-UKS Final Energy:  -597.35920764093760
    Total Energy =                       -597.3592076409375977
  @DF-UKS Final Energy:  -597.49693407953600
    Total Energy =                       -597.4969340795360040
  @DF-UKS Final Energy:  -597.57950952910721
    Total Energy =                       -597.5795095291072130
  @DF-UKS Final Energy:  -597.63334583871347
    Total Energy =                       -597.6333458387134669
  @DF-UKS Final Energy:  -597.67000853788443
    Total Energy =                       -597.6700085378844278
  @DF-UKS Final Energy:  -597.69434010568705
    Total Energy =                       -597.6943401056870471
  @DF-UKS Final Energy:  -597.69599056209336
    Total Energy =                       -597.6959905620934705
  @DF-UKS Final Energy:  -597.71106077711897
    Total Energy =                       -597.7110607771189734
  @DF-UKS Final Energy:  -597.71157930327524
    Total Energy =                       -597.7115793032753572
  @DF-UKS Final Energy:  -597.71897314292721
    Total Energy =                       -597.7189731429272115
  @DF-UKS Final Energy:  -597.71912505930675
    Total Energy =                       -597.7191250593067480
  @DF-UKS Final Energy:  -597.72273683081573
    Total Energy =                       -597.7227368308157338
  @DF-UKS Final Energy:  -597.72278008006958
    Total Energy =                       -597.7227800800695832
  @DF-UKS Final Energy:  -597.72457740346681
    Total Energy =                       -597.7245774034668102
  @DF-UKS Final Energy:  -597.72458991549593
    Total Energy =                       -597.7245899154959261
  @DF-UKS Final Energy:  -597.72607510204114
    Total Energy =                       -597.7260751020412499
  @DF-UKS Final Energy:  -597.72607636874261
    Total Energy =                       -597.7260763687424969
  @DF-UKS Final Energy:  -597.72640973972102
    Total Energy =                       -597.7264097397211344
  @DF-UKS Final Energy:  -597.72641028584133
    Total Energy =                       -597.7264102858413253
  @DF-UKS Final Energy:  -597.72641082362372
    Total Energy =                       -597.7264108236237234
  @DF-UKS Final Energy:  -597.72641136069331
    Total Energy =                       -597.7264113606933051
  @DF-UKS Final Energy:  -597.72641189709714
    Total Energy =                       -597.7264118970971367
  @DF-UKS Final Energy:  -597.72641243279713
    Total Energy =                       -597.7264124327971331
  @DF-UKS Final Energy:  -597.72641296783638
    Total Energy =                       -597.7264129678363815
  @DF-UKS Final Energy:  -597.72641350216395
    Total Energy =                       -597.7264135021639504
  @DF-UKS Final Energy:  -597.72641403570901
    Total Energy =                       -597.7264140357090128
  @DF-UKS Final Energy:  -597.72641456864960
    Total Energy =                       -597.7264145686497159
  @DF-UKS Final Energy:  -597.72641510090921
    Total Energy =                       -597.7264151009092075
  @DF-UKS Final Energy:  -597.72641563248897
    Total Energy =                       -597.7264156324888518
  @DF-UKS Final Energy:  -597.72641616334181
    Total Energy =                       -597.7264161633418098
  @DF-UKS Final Energy:  -597.72641669357699
    Total Energy =                       -597.7264166935768799
  @DF-UKS Final Energy:  -597.72641722304922
    Total Energy =                       -597.7264172230492250
  @DF-UKS Final Energy:  -597.72641775194870
    Total Energy =                       -597.7264177519485884
  Basis Set: (CC-PVDZ AUX)
    Blend: CC-PVDZ-JKFIT + DEF2-UNIVERSAL-JKFIT
  Basis Set: CC-PVDZ
    Blend: CC-PVDZ
  Basis Set: (CC-PVDZ AUX)
    Blend: CC-PVDZ-JKFIT + DEF2-UNIVERSAL-JKFIT
  @DF-UKS Final Energy:  -597.72641828010819
    Total Energy =                       -597.7264182801081915
  Basis Set: CC-PVDZ
    Blend: CC-PVDZ
  Basis Set: (CC-PVDZ AUX)
    Blend: CC-PVDZ-JKFIT + DEF2-UNIVERSAL-JKFIT
  Charge       = 1
  Multiplicity = 6
  Basis Set: CC-PVDZ
    Blend: CC-PVDZ
  Basis Set: (CC-PVDZ AUX)
    Blend: CC-PVDZ-JKFIT + DEF2-UNIVERSAL-JKFIT

    Orbital Energies [Eh]
    ---------------------

    Alpha Occupied:

       1A1   -89.373585     2A1   -46.977522     3A1    -8.425253
       4A1    -6.390115     1B2    -6.390112     1B1    -6.390107
       5A1    -3.256586     6A1    -2.000970     2B2    -2.000850
       2B1    -1.997802     7A1    -1.128705     8A1    -0.699924
       3B2    -0.699819     3B1    -0.699689     9A1    -0.340219
       4B1    -0.198418

    Alpha Virtual:

      10A1    -0.159278     4B2    -0.148439    11A1    -0.025516
      12A1     0.035383     5B1     0.040402     5B2     0.050046
      13A1     0.123595     6B2     0.144826     6B1     0.145046
      14A1     0.150497     1A2     0.151409    15A1     0.151443
       7B2     0.151534     7B1     0.151605     8B1     0.175309
      16A1     0.175957     2A2     0.178332    17A1     0.183795
       8B2     0.187159    18A1     0.190105

    Beta Occupied:

       1A1   -89.354797     2A1   -46.973286     3A1    -8.406294
       4A1    -6.361817     1B2    -6.361817     1B1    -6.361803
       5A1    -3.249499     6A1    -1.996694     2B2    -1.996631
       2B1    -1.988895     7A1    -0.981609

    Beta Virtual:

       8A1    -0.515935     3B2    -0.515682     3B1    -0.515518
       9A1    -0.233448    10A1    -0.118643     4B2    -0.106664
       4B1    -0.086773    11A1     0.007294    12A1     0.060356
       5B2     0.072797     5B1     0.089141    13A1     0.171776
       6B2     0.193954     6B1     0.194349    14A1     0.218261
       7B2     0.222116    15A1     0.227772     7B1     0.243209
       1A2     0.245526    16A1     0.251964     8B2     0.269988
       2A2     0.270012    17A1     0.270046     8B1     0.270098
      18A1     0.272756

    Final Occupation by Irrep:
             A1    A2    B1    B2
    DOCC [     7,    0,    2,    2 ]
    SOCC [     2,    0,    2,    1 ]
    NA   [     9,    0,    4,    3 ]
    NB   [     7,    0,    2,    2 ]

  @DF-UKS Final Energy:  -597.72667120021288

   => Energetics <=

    Nuclear Repulsion Energy =             18.2170061239427454
    One-Electron Energy =                -856.9100027850871584
    Two-Electron Energy =                 274.6235555707013987
    DFT Exchange-Correlation Energy =     -33.6572301097697988
    Empirical Dispersion Energy =           0.0000000000000000
    VV10 Nonlocal Energy =                  0.0000000000000000
    Total Energy =                       -597.7266712002127633

  UHF NO Occupations:
  HONO-2 :    8 A1 1.0000000
  HONO-1 :    4 B1 1.0000000
  HONO-0 :    9 A1 1.0000000
  LUNO+0 :   10 A1 0.0001947
  LUNO+1 :   11 A1 0.0000009
  LUNO+2 :    4 B2 0.0000008
  LUNO+3 :    5 B1 0.0000003

Computation Completed

Properties will be evaluated at   0.000000,   0.000000,   0.000000 [a0]

Properties computed using the SCF density matrix

 Multipole Moments:

 ------------------------------------------------------------------------------------
     Multipole            Electronic (a.u.)      Nuclear  (a.u.)        Total (a.u.)
 ------------------------------------------------------------------------------------

 L = 1.  Multiply by 2.5417464519 to convert [e a0] to [Debye]
 Dipole X            :          0.0000000            0.0000000            0.0000000
 Dipole Y            :          0.0000000            0.0000000            0.0000000
 Dipole Z            :         -4.0873081           -0.0180465           -4.1053547
 Magnitude           :                                                    4.1053547

 ------------------------------------------------------------------------------------

*** tstop() called on Joses-MacBook-Pro-2.local at Thu Jul 17 15:09:59 2025
Module time:
	user time   =       6.60 seconds =       0.11 minutes
	system time =       2.25 seconds =       0.04 minutes
	total time  =          1 seconds =       0.02 minutes
Total time:
	user time   =     524.37 seconds =       8.74 minutes
	system time =     188.96 seconds =       3.15 minutes
	total time  =         68 seconds =       1.13 minutes

*** tstart() called on Joses-MacBook-Pro-2.local
*** at Thu Jul 17 15:09:59 2025

         ------------------------------------------------------------
                                   SCF GRAD
                          Rob Parrish, Justin Turney,
                       Andy Simmonett, and Alex Sokolov
         ------------------------------------------------------------

  ==> Geometry <==

    Molecular point group: c2v
    Full point group: C_inf_v

    Geometry (in Angstrom), charge = 1, multiplicity = 6:

       Center              X                  Y                   Z               Mass
    ------------   -----------------  -----------------  -----------------  -----------------
         MG           0.000000000000     0.000000000000     3.186697425076    23.985041697000
         S            0.000000000000     0.000000000000    -2.390619931979    31.972071174400

  Nuclear repulsion =   18.217006123942745

  ==> Basis Set <==

  Basis Set: CC-PVDZ
    Blend: CC-PVDZ
    Number of shells: 16
    Number of basis functions: 36
    Number of Cartesian functions: 38
    Spherical Harmonics?: true
    Max angular momentum: 2

  ==> DFJKGrad: Density-Fitted SCF Gradients <==

    Gradient:                    1
    J tasked:                  Yes
    K tasked:                  Yes
    wK tasked:                  No
    OpenMP threads:              1
    Integrals threads:           1
    Memory [MiB]:              375
    Schwarz Cutoff:          1E-12
    Fitting Condition:       1E-10

   => Auxiliary Basis Set <=

  Basis Set: (CC-PVDZ AUX)
    Blend: CC-PVDZ-JKFIT + DEF2-UNIVERSAL-JKFIT
    Number of shells: 70
    Number of basis functions: 224
    Number of Cartesian functions: 267
    Spherical Harmonics?: true
    Max angular momentum: 4

  ==> DFT Potential <==

   => LibXC <=

    Version 6.2.2
    S. Lehtola, C. Steigemann, M. J.T. Oliveira, and M. A.L. Marques.,  SoftwareX 7, 1â€“5 (2018) (10.1016/j.softx.2017.11.002)

   => Composite Functional: B3LYP <=

    B3LYP Hyb-GGA Exchange-Correlation Functional

    P. J. Stephens, F. J. Devlin, C. F. Chabalowski, and M. J. Frisch.,  J. Phys. Chem. 98, 11623 (1994) (10.1021/j100096a001)

    Deriv               =              1
    GGA                 =           TRUE
    Meta                =          FALSE

    Exchange Hybrid     =           TRUE
    MP2 Hybrid          =          FALSE

   => Exchange Functionals <=

    0.0800   Slater exchange
    0.7200         Becke 88

   => Exact (HF) Exchange <=

    0.2000               HF

   => Correlation Functionals <=

    0.1900   Vosko, Wilk & Nusair (VWN5_RPA)
    0.8100   Lee, Yang & Parr

   => LibXC Density Thresholds  <==

    XC_HYB_GGA_XC_B3LYP:  1.00E-15

   => Molecular Quadrature <=

    Radial Scheme          =       TREUTLER
    Pruning Scheme         =           NONE
    Nuclear Scheme         =       TREUTLER

    Blocking Scheme        =         OCTREE
    BS radius alpha        =              1
    Pruning alpha          =              1
    Radial Points          =             75
    Spherical Points       =            302
    Total Points           =          43161
    Total Blocks           =            454
    Max Points             =            256
    Max Functions          =             36
    Weights Tolerance      =       1.00E-15

  -Total Gradient:
     Atom            X                  Y                   Z
    ------   -----------------  -----------------  -----------------
       1        0.000000000000     0.000000000000    -0.000281862382
       2       -0.000000000000     0.000000000000     0.000277950591

*** tstop() called on Joses-MacBook-Pro-2.local at Thu Jul 17 15:09:59 2025
Module time:
	user time   =       2.22 seconds =       0.04 minutes
	system time =       1.76 seconds =       0.03 minutes
	total time  =          0 seconds =       0.00 minutes
Total time:
	user time   =     526.59 seconds =       8.78 minutes
	system time =     190.72 seconds =       3.18 minutes
	total time  =         68 seconds =       1.13 minutes

    			-----------------------------------------

    			 OPTKING 3.0: for geometry optimizations

    			     By R.A. King, Bethel University

    			        with contributions from

    			    A.V. Copan, J. Cayton, A. Heide

    			-----------------------------------------

	                            ===> Fragment 1 <==

	 Z (Atomic Numbers)          Masses                          Geom
	      12.000000            23.985042          0.00000000  0.00000000  6.02198538
	      16.000000            31.972071          0.00000000  0.00000000 -4.51761694

	 - Coordinate -           - BOHR/RAD -       - ANG/DEG -
	 R(1,2)           =        10.539602           5.577317

	        --- Internal Coordinate Step in ANG or DEG, aJ/ANG or AJ/DEG ---
	-------------------------------------------------------------------------------
	           Coordinate      Previous         Force          Change          New
	           ----------      --------        ------          ------        ------
	               R(1,2)       5.57732        0.00231        0.00055       5.57787
	-------------------------------------------------------------------------------

	                                 ==> Convergence Check <==

	Measures of convergence in internal coordinates in au.

	Criteria marked as inactive (o), active & met (*), and active & unmet ( ).

	----------------------------------------------------------------------------------------------
	   Step    Total Energy     Delta E     Max Force     RMS Force      Max Disp      RMS Disp
	----------------------------------------------------------------------------------------------
	  Convergence Criteria     1.00e-06 *    3.00e-04 *             o    1.20e-03 *             o
	----------------------------------------------------------------------------------------------
	    51    -597.72667120   -2.53e-04      2.80e-04 *    2.80e-04 o    1.04e-03 *    1.04e-03 o  ~
	----------------------------------------------------------------------------------------------

Next Geometry in Ang
	Fragment 1 (Ang)

	   Mg   0.0000000000   0.0000000000   3.1869736064
	    S   0.0000000000   0.0000000000  -2.3908961133

    Final optimized geometry and variables:
    Molecular point group: c2v
    Full point group: C_inf_v

    Geometry (in Angstrom), charge = 1, multiplicity = 6:

    MG           0.000000000000     0.000000000000     3.186697425076
    S            0.000000000000     0.000000000000    -2.390619931979

    Psi4 stopped on: Thursday, 17 July 2025 03:09PM
    Psi4 wall time for execution: 0:01:08.92

*** Psi4 exiting successfully. Buy a developer a beer!
