                               Psi4 1.9.1 release

  ==> Input File <==

--------------------------------------------------------------------------
molecule {
1 6
Be   0.00000        0.60000        0.00000
Be   0.00000       -0.60000        0.00000
}

set {
basis              cc-pvdz
reference          uks
maxiter            500
geom_maxiter       500
DAMPING_PERCENTAGE 1
guess              SAP
}

optimize('b3lyp')
--------------------------------------------------------------------------

    Molecular point group: d2h
  Charge       = 1
  Multiplicity = 6
  Basis Set: CC-PVDZ
    Blend: CC-PVDZ
  Basis Set: (CC-PVDZ AUX)
    Blend: DEF2-UNIVERSAL-JKFIT
  @DF-UKS Final Energy:   -24.58445014209473
    Total Energy =                        -24.5844501420947310
 Dipole X            :          0.0000000            0.0000000            0.0000000
 Dipole Y            :          0.0000000            0.0000000            0.0000000
 Dipole Z            :          0.0000000            0.0000000            0.0000000
 Magnitude           :                                                    0.0000000
    Molecular point group: d2h
  Basis Set: CC-PVDZ
    Blend: CC-PVDZ
  Basis Set: (CC-PVDZ AUX)
    Blend: DEF2-UNIVERSAL-JKFIT
  Basis Set: CC-PVDZ
    Blend: CC-PVDZ
  Basis Set: (CC-PVDZ AUX)
    Blend: DEF2-UNIVERSAL-JKFIT
  @DF-UKS Final Energy:   -24.72734644249473
    Total Energy =                        -24.7273464424947313
  Basis Set: CC-PVDZ
    Blend: CC-PVDZ
  Basis Set: (CC-PVDZ AUX)
    Blend: DEF2-UNIVERSAL-JKFIT
  Basis Set: CC-PVDZ
    Blend: CC-PVDZ
  @DF-UKS Final Energy:   -24.76922635011498
    Total Energy =                        -24.7692263501149768
  @DF-UKS Final Energy:   -24.78729102871694
    Total Energy =                        -24.7872910287169432
  @DF-UKS Final Energy:   -24.79288774916218
    Total Energy =                        -24.7928877491621869
  @DF-UKS Final Energy:   -24.79394929873414
    Total Energy =                        -24.7939492987341374
  @DF-UKS Final Energy:   -24.79422501040644
    Total Energy =                        -24.7942250104064392
  @DF-UKS Final Energy:   -24.79425382095279
    Total Energy =                        -24.7942538209527896
  Basis Set: (CC-PVDZ AUX)
    Blend: DEF2-UNIVERSAL-JKFIT
  Basis Set: CC-PVDZ
    Blend: CC-PVDZ
  Basis Set: (CC-PVDZ AUX)
    Blend: DEF2-UNIVERSAL-JKFIT
  @DF-UKS Final Energy:   -24.79425702941997
    Total Energy =                        -24.7942570294199669
  Basis Set: CC-PVDZ
    Blend: CC-PVDZ
  Basis Set: (CC-PVDZ AUX)
    Blend: DEF2-UNIVERSAL-JKFIT
  Charge       = 1
  Multiplicity = 6
  Basis Set: CC-PVDZ
    Blend: CC-PVDZ
  Basis Set: (CC-PVDZ AUX)
    Blend: DEF2-UNIVERSAL-JKFIT

    Orbital Energies [Eh]
    ---------------------

    Alpha Occupied:

       1Ag    -5.212628     1B2u   -5.211989     2Ag    -0.754689
       2B2u   -0.514541     1B3u   -0.500391     1B1u   -0.500391

    Alpha Virtual:

       3Ag    -0.429995     1B3g   -0.314557     1B1g   -0.314557
       3B2u   -0.096886     2B3u   -0.064891     2B1u   -0.064891
       4Ag    -0.060871     5Ag    -0.046412     4B2u   -0.031515
       2B1g   -0.012474     2B3g   -0.012474     1B2g    0.106651
       6Ag     0.106651     3B3u    0.152588     3B1u    0.152588
       5B2u    0.159983     1Au     0.279565     6B2u    0.279566
       7Ag     0.420970     3B1g    0.482241     3B3g    0.482241
       7B2u    0.637614

    Beta Occupied:

       1Ag    -4.800525

    Beta Virtual:

       1B2u   -4.743450     2Ag    -0.500664     2B2u   -0.345160
       1B1u   -0.308717     1B3u   -0.308717     3Ag    -0.306458
       1B3g   -0.192475     1B1g   -0.192475     3B2u   -0.038525
       2B1u   -0.030517     2B3u   -0.030517     4Ag    -0.019169
       5Ag    -0.001621     2B1g    0.024480     2B3g    0.024480
       4B2u    0.031861     5B2u    0.213416     1B2g    0.225864
       6Ag     0.227680     3B1u    0.277175     3B3u    0.277175
       1Au     0.385682     6B2u    0.386698     7Ag     0.516964
       3B3g    0.578382     3B1g    0.578382     7B2u    0.719163

    Final Occupation by Irrep:
             Ag   B1g   B2g   B3g    Au   B1u   B2u   B3u
    DOCC [     1,    0,    0,    0,    0,    0,    0,    0 ]
    SOCC [     1,    0,    0,    0,    0,    1,    2,    1 ]
    NA   [     2,    0,    0,    0,    0,    1,    2,    1 ]
    NB   [     1,    0,    0,    0,    0,    0,    0,    0 ]

  @DF-UKS Final Energy:   -24.79425742901257

   => Energetics <=

    Nuclear Repulsion Energy =              4.5178717930091068
    One-Electron Energy =                 -38.5296875742970215
    Two-Electron Energy =                  12.8190330590552684
    DFT Exchange-Correlation Energy =      -3.6014747067799240
    Empirical Dispersion Energy =           0.0000000000000000
    VV10 Nonlocal Energy =                  0.0000000000000000
    Total Energy =                        -24.7942574290125712

  UHF NO Occupations:
  HONO-2 :    2B2u 1.0000000
  HONO-1 :    1B2u 1.0000000
  HONO-0 :    2 Ag 1.0000000
  LUNO+0 :    3 Ag 0.0000162
  LUNO+1 :    2B3u 0.0000000
  LUNO+2 :    4 Ag 0.0000000
  LUNO+3 :    2B1u 0.0000000

Computation Completed

Properties will be evaluated at   0.000000,   0.000000,   0.000000 [a0]

Properties computed using the SCF density matrix

 Multipole Moments:

 ------------------------------------------------------------------------------------
     Multipole            Electronic (a.u.)      Nuclear  (a.u.)        Total (a.u.)
 ------------------------------------------------------------------------------------

 L = 1.  Multiply by 2.5417464519 to convert [e a0] to [Debye]
 Dipole X            :          0.0000000            0.0000000            0.0000000
 Dipole Y            :          0.0000000            0.0000000            0.0000000
 Dipole Z            :          0.0000000            0.0000000            0.0000000
 Magnitude           :                                                    0.0000000

 ------------------------------------------------------------------------------------

*** tstop() called on Joses-MacBook-Pro-2.local at Thu Jul 17 12:59:16 2025
Module time:
	user time   =       1.80 seconds =       0.03 minutes
	system time =       2.91 seconds =       0.05 minutes
	total time  =          1 seconds =       0.02 minutes
Total time:
	user time   =      29.96 seconds =       0.50 minutes
	system time =      43.54 seconds =       0.73 minutes
	total time  =          7 seconds =       0.12 minutes

*** tstart() called on Joses-MacBook-Pro-2.local
*** at Thu Jul 17 12:59:16 2025

         ------------------------------------------------------------
                                   SCF GRAD
                          Rob Parrish, Justin Turney,
                       Andy Simmonett, and Alex Sokolov
         ------------------------------------------------------------

  ==> Geometry <==

    Molecular point group: d2h
    Full point group: D_inf_h

    Geometry (in Angstrom), charge = 1, multiplicity = 6:

       Center              X                  Y                   Z               Mass
    ------------   -----------------  -----------------  -----------------  -----------------
         BE          -0.000000000000     0.937038030143     0.000000000000     9.012183065000
         BE           0.000000000000    -0.937038030143     0.000000000000     9.012183065000

  Nuclear repulsion =    4.517871793009107

  ==> Basis Set <==

  Basis Set: CC-PVDZ
    Blend: CC-PVDZ
    Number of shells: 12
    Number of basis functions: 28
    Number of Cartesian functions: 30
    Spherical Harmonics?: true
    Max angular momentum: 2

  ==> DFJKGrad: Density-Fitted SCF Gradients <==

    Gradient:                    1
    J tasked:                  Yes
    K tasked:                  Yes
    wK tasked:                  No
    OpenMP threads:              1
    Integrals threads:           1
    Memory [MiB]:              375
    Schwarz Cutoff:          1E-12
    Fitting Condition:       1E-10

   => Auxiliary Basis Set <=

  Basis Set: (CC-PVDZ AUX)
    Blend: DEF2-UNIVERSAL-JKFIT
    Number of shells: 34
    Number of basis functions: 102
    Number of Cartesian functions: 120
    Spherical Harmonics?: true
    Max angular momentum: 3

  ==> DFT Potential <==

   => LibXC <=

    Version 6.2.2
    S. Lehtola, C. Steigemann, M. J.T. Oliveira, and M. A.L. Marques.,  SoftwareX 7, 1â€“5 (2018) (10.1016/j.softx.2017.11.002)

   => Composite Functional: B3LYP <=

    B3LYP Hyb-GGA Exchange-Correlation Functional

    P. J. Stephens, F. J. Devlin, C. F. Chabalowski, and M. J. Frisch.,  J. Phys. Chem. 98, 11623 (1994) (10.1021/j100096a001)

    Deriv               =              1
    GGA                 =           TRUE
    Meta                =          FALSE

    Exchange Hybrid     =           TRUE
    MP2 Hybrid          =          FALSE

   => Exchange Functionals <=

    0.0800   Slater exchange
    0.7200         Becke 88

   => Exact (HF) Exchange <=

    0.2000               HF

   => Correlation Functionals <=

    0.1900   Vosko, Wilk & Nusair (VWN5_RPA)
    0.8100   Lee, Yang & Parr

   => LibXC Density Thresholds  <==

    XC_HYB_GGA_XC_B3LYP:  1.00E-15

   => Molecular Quadrature <=

    Radial Scheme          =       TREUTLER
    Pruning Scheme         =           NONE
    Nuclear Scheme         =       TREUTLER

    Blocking Scheme        =         OCTREE
    BS radius alpha        =              1
    Pruning alpha          =              1
    Radial Points          =             75
    Spherical Points       =            302
    Total Points           =          42548
    Total Blocks           =            400
    Max Points             =            251
    Max Functions          =             28
    Weights Tolerance      =       1.00E-15

  -Total Gradient:
     Atom            X                  Y                   Z
    ------   -----------------  -----------------  -----------------
       1        0.000000000000    -0.000047654185     0.000000000000
       2       -0.000000000000     0.000047654185     0.000000000000

*** tstop() called on Joses-MacBook-Pro-2.local at Thu Jul 17 12:59:16 2025
Module time:
	user time   =       0.38 seconds =       0.01 minutes
	system time =       1.45 seconds =       0.02 minutes
	total time  =          0 seconds =       0.00 minutes
Total time:
	user time   =      30.34 seconds =       0.51 minutes
	system time =      45.00 seconds =       0.75 minutes
	total time  =          7 seconds =       0.12 minutes

    			-----------------------------------------

    			 OPTKING 3.0: for geometry optimizations

    			     By R.A. King, Bethel University

    			        with contributions from

    			    A.V. Copan, J. Cayton, A. Heide

    			-----------------------------------------

	                            ===> Fragment 1 <==

	 Z (Atomic Numbers)          Masses                          Geom
	       4.000000             9.012183         -0.00000000  1.77074525  0.00000000
	       4.000000             9.012183          0.00000000 -1.77074525  0.00000000

	 - Coordinate -           - BOHR/RAD -       - ANG/DEG -
	 R(1,2)           =         3.541490           1.874076

	        --- Internal Coordinate Step in ANG or DEG, aJ/ANG or AJ/DEG ---
	-------------------------------------------------------------------------------
	           Coordinate      Previous         Force          Change          New
	           ----------      --------        ------          ------        ------
	               R(1,2)       1.87408        0.00039        0.00026       1.87434
	-------------------------------------------------------------------------------

	                                 ==> Convergence Check <==

	Measures of convergence in internal coordinates in au.

	Criteria marked as inactive (o), active & met (*), and active & unmet ( ).

	----------------------------------------------------------------------------------------------
	   Step    Total Energy     Delta E     Max Force     RMS Force      Max Disp      RMS Disp
	----------------------------------------------------------------------------------------------
	  Convergence Criteria     1.00e-06 *    3.00e-04 *             o    1.20e-03 *             o
	----------------------------------------------------------------------------------------------
	    10     -24.79425743   -4.00e-07 *    4.77e-05 *    4.77e-05 o    4.99e-04 *    4.99e-04 o  ~
	----------------------------------------------------------------------------------------------

Next Geometry in Ang
	Fragment 1 (Ang)

	   Be  -0.0000000000   0.9371700543   0.0000000000
	   Be   0.0000000000  -0.9371700543   0.0000000000

    Final optimized geometry and variables:
    Molecular point group: d2h
    Full point group: D_inf_h

    Geometry (in Angstrom), charge = 1, multiplicity = 6:

    BE          -0.000000000000     0.937038030143     0.000000000000
    BE           0.000000000000    -0.937038030143     0.000000000000

    Psi4 stopped on: Thursday, 17 July 2025 12:59PM
    Psi4 wall time for execution: 0:00:07.77

*** Psi4 exiting successfully. Buy a developer a beer!
