                               Psi4 1.9.1 release

  ==> Input File <==

--------------------------------------------------------------------------
molecule {
1 6
Na   0.00000        0.60000        0.00000
P   0.00000       -0.60000        0.00000
}

set {
basis              cc-pvdz
reference          uks
maxiter            500
geom_maxiter       500
DAMPING_PERCENTAGE 1
guess              SAP
}

optimize('b3lyp')
--------------------------------------------------------------------------

    Molecular point group: c2v
  Charge       = 1
  Multiplicity = 6
  Basis Set: CC-PVDZ
    Blend: CC-PVDZ
  Basis Set: (CC-PVDZ AUX)
    Blend: CC-PVDZ-JKFIT + DEF2-UNIVERSAL-JKFIT
  @DF-UKS Final Energy:  -501.91486982762819
    Total Energy =                       -501.9148698276281948
 Dipole X            :          0.0000000            0.0000000            0.0000000
 Dipole Y            :          0.0000000            0.0000000            0.0000000
 Dipole Z            :         -1.1394936           -0.1737688           -1.3132624
 Magnitude           :                                                    1.3132624
    Molecular point group: c2v
  Basis Set: CC-PVDZ
    Blend: CC-PVDZ
  Basis Set: (CC-PVDZ AUX)
    Blend: CC-PVDZ-JKFIT + DEF2-UNIVERSAL-JKFIT
  Basis Set: CC-PVDZ
    Blend: CC-PVDZ
  Basis Set: (CC-PVDZ AUX)
    Blend: CC-PVDZ-JKFIT + DEF2-UNIVERSAL-JKFIT
  @DF-UKS Final Energy:  -501.92660694287366
    Total Energy =                       -501.9266069428736614
  Basis Set: CC-PVDZ
    Blend: CC-PVDZ
  Basis Set: (CC-PVDZ AUX)
    Blend: CC-PVDZ-JKFIT + DEF2-UNIVERSAL-JKFIT
  Basis Set: CC-PVDZ
    Blend: CC-PVDZ
  @DF-UKS Final Energy:  -501.94929197129585
    Total Energy =                       -501.9492919712958496
  @DF-UKS Final Energy:  -502.03186316306619
    Total Energy =                       -502.0318631630661912
  @DF-UKS Final Energy:  -502.40412851609415
    Total Energy =                       -502.4041285160941470
  @DF-UKS Final Energy:  -502.61255496721049
    Total Energy =                       -502.6125549672104853
  @DF-UKS Final Energy:  -502.74675671661004
    Total Energy =                       -502.7467567166100366
  @DF-UKS Final Energy:  -502.82130519657807
    Total Energy =                       -502.8213051965780664
  @DF-UKS Final Energy:  -502.86865202899639
    Total Energy =                       -502.8686520289963937
  @DF-UKS Final Energy:  -502.90299778748368
    Total Energy =                       -502.9029977874836845
  @DF-UKS Final Energy:  -502.90784281437317
    Total Energy =                       -502.9078428143731685
  @DF-UKS Final Energy:  -502.93687763234351
    Total Energy =                       -502.9368776323435100
  @DF-UKS Final Energy:  -502.93904945349323
    Total Energy =                       -502.9390494534932259
  @DF-UKS Final Energy:  -502.95614822987017
    Total Energy =                       -502.9561482298701662
  @DF-UKS Final Energy:  -502.95698990173418
    Total Energy =                       -502.9569899017341754
  @DF-UKS Final Energy:  -502.96573857276263
    Total Energy =                       -502.9657385727626888
  @DF-UKS Final Energy:  -502.96600406330504
    Total Energy =                       -502.9660040633050357
  @DF-UKS Final Energy:  -502.96995190004054
    Total Energy =                       -502.9699519000405417
  @DF-UKS Final Energy:  -502.97001578435800
    Total Energy =                       -502.9700157843580541
  @DF-UKS Final Energy:  -502.97143866452893
    Total Energy =                       -502.9714386645289323
  @DF-UKS Final Energy:  -502.97174960314237
    Total Energy =                       -502.9717496031423707
  @DF-UKS Final Energy:  -502.97180016836171
    Total Energy =                       -502.9718001683617103
  Basis Set: (CC-PVDZ AUX)
    Blend: CC-PVDZ-JKFIT + DEF2-UNIVERSAL-JKFIT
  Basis Set: CC-PVDZ
    Blend: CC-PVDZ
  Basis Set: (CC-PVDZ AUX)
    Blend: CC-PVDZ-JKFIT + DEF2-UNIVERSAL-JKFIT
  @DF-UKS Final Energy:  -502.97180256184924
    Total Energy =                       -502.9718025618492447
  Basis Set: CC-PVDZ
    Blend: CC-PVDZ
  Basis Set: (CC-PVDZ AUX)
    Blend: CC-PVDZ-JKFIT + DEF2-UNIVERSAL-JKFIT
  Charge       = 1
  Multiplicity = 6
  Basis Set: CC-PVDZ
    Blend: CC-PVDZ
  Basis Set: (CC-PVDZ AUX)
    Blend: CC-PVDZ-JKFIT + DEF2-UNIVERSAL-JKFIT

    Orbital Energies [Eh]
    ---------------------

    Alpha Occupied:

       1A1   -77.543921     2A1   -38.601100     3A1    -7.005934
       1B1    -5.170263     1B2    -5.170263     4A1    -5.170203
       5A1    -2.345702     2B1    -1.276593     2B2    -1.276593
       6A1    -1.276474     7A1    -0.970340     3B1    -0.602505
       3B2    -0.602505     8A1    -0.601607     9A1    -0.249038

    Alpha Virtual:

      10A1    -0.135894     4B1    -0.123310     4B2    -0.123310
      11A1    -0.071806    12A1    -0.022204     5B1    -0.020664
       5B2    -0.020664    13A1     0.019941     6B1     0.037485
       6B2     0.037485    14A1     0.054886     1A2     0.054886
      15A1     0.081823     2A2     0.081877     7B1     0.086449
       7B2     0.086449    16A1     0.092704    17A1     0.101765
       8B1     0.131249     8B2     0.131249    18A1     0.221933

    Beta Occupied:

       1A1   -77.519702     2A1   -38.599713     3A1    -6.976241
       1B1    -5.137114     1B2    -5.137114     4A1    -5.136884
       5A1    -2.342963     2B1    -1.274853     2B2    -1.274853
       6A1    -1.274413

    Beta Virtual:

       7A1    -0.686378     3B1    -0.363117     3B2    -0.363117
       8A1    -0.362339     9A1    -0.179696    10A1    -0.109574
       4B1    -0.098887     4B2    -0.098887    11A1    -0.041246
      12A1    -0.010767     5B1    -0.006853     5B2    -0.006853
      13A1     0.056727     6B1     0.067673     6B2     0.067673
       1A2     0.076696    14A1     0.076698    15A1     0.181013
       7B1     0.209066     7B2     0.209066    16A1     0.253706
      17A1     0.258216     2A2     0.258295     8B1     0.261250
       8B2     0.261250    18A1     0.307291

    Final Occupation by Irrep:
             A1    A2    B1    B2
    DOCC [     6,    0,    2,    2 ]
    SOCC [     3,    0,    1,    1 ]
    NA   [     9,    0,    3,    3 ]
    NB   [     6,    0,    2,    2 ]

  @DF-UKS Final Energy:  -502.97180258429955

   => Energetics <=

    Nuclear Repulsion Energy =             18.9562045216191883
    One-Electron Energy =                -729.8575494645058370
    Two-Electron Energy =                 238.0406268126365887
    DFT Exchange-Correlation Energy =     -30.1110844540494327
    Empirical Dispersion Energy =           0.0000000000000000
    VV10 Nonlocal Energy =                  0.0000000000000000
    Total Energy =                       -502.9718025842995530

  UHF NO Occupations:
  HONO-2 :    3 B2 1.0000000
  HONO-1 :    3 B1 1.0000000
  HONO-0 :    9 A1 1.0000000
  LUNO+0 :   10 A1 0.0000012
  LUNO+1 :    4 B2 0.0000007
  LUNO+2 :    4 B1 0.0000007
  LUNO+3 :    5 B2 0.0000001

Computation Completed

Properties will be evaluated at   0.000000,   0.000000,   0.000000 [a0]

Properties computed using the SCF density matrix

 Multipole Moments:

 ------------------------------------------------------------------------------------
     Multipole            Electronic (a.u.)      Nuclear  (a.u.)        Total (a.u.)
 ------------------------------------------------------------------------------------

 L = 1.  Multiply by 2.5417464519 to convert [e a0] to [Debye]
 Dipole X            :          0.0000000            0.0000000            0.0000000
 Dipole Y            :          0.0000000            0.0000000            0.0000000
 Dipole Z            :         -1.4020969           -0.6669975           -2.0690945
 Magnitude           :                                                    2.0690945

 ------------------------------------------------------------------------------------

*** tstop() called on Joses-MacBook-Pro-2.local at Thu Jul 17 14:57:18 2025
Module time:
	user time   =      14.54 seconds =       0.24 minutes
	system time =       4.24 seconds =       0.07 minutes
	total time  =          2 seconds =       0.03 minutes
Total time:
	user time   =     505.88 seconds =       8.43 minutes
	system time =     126.85 seconds =       2.11 minutes
	total time  =         63 seconds =       1.05 minutes

*** tstart() called on Joses-MacBook-Pro-2.local
*** at Thu Jul 17 14:57:18 2025

         ------------------------------------------------------------
                                   SCF GRAD
                          Rob Parrish, Justin Turney,
                       Andy Simmonett, and Alex Sokolov
         ------------------------------------------------------------

  ==> Geometry <==

    Molecular point group: c2v
    Full point group: C_inf_v

    Geometry (in Angstrom), charge = 1, multiplicity = 6:

       Center              X                  Y                   Z               Mass
    ------------   -----------------  -----------------  -----------------  -----------------
         NA           0.000000000000     0.000000000000     2.643792016254    22.989769282000
         P            0.000000000000     0.000000000000    -1.962311471444    30.973761998420

  Nuclear repulsion =   18.956204521619188

  ==> Basis Set <==

  Basis Set: CC-PVDZ
    Blend: CC-PVDZ
    Number of shells: 16
    Number of basis functions: 36
    Number of Cartesian functions: 38
    Spherical Harmonics?: true
    Max angular momentum: 2

  ==> DFJKGrad: Density-Fitted SCF Gradients <==

    Gradient:                    1
    J tasked:                  Yes
    K tasked:                  Yes
    wK tasked:                  No
    OpenMP threads:              1
    Integrals threads:           1
    Memory [MiB]:              375
    Schwarz Cutoff:          1E-12
    Fitting Condition:       1E-10

   => Auxiliary Basis Set <=

  Basis Set: (CC-PVDZ AUX)
    Blend: CC-PVDZ-JKFIT + DEF2-UNIVERSAL-JKFIT
    Number of shells: 70
    Number of basis functions: 224
    Number of Cartesian functions: 267
    Spherical Harmonics?: true
    Max angular momentum: 4

  ==> DFT Potential <==

   => LibXC <=

    Version 6.2.2
    S. Lehtola, C. Steigemann, M. J.T. Oliveira, and M. A.L. Marques.,  SoftwareX 7, 1â€“5 (2018) (10.1016/j.softx.2017.11.002)

   => Composite Functional: B3LYP <=

    B3LYP Hyb-GGA Exchange-Correlation Functional

    P. J. Stephens, F. J. Devlin, C. F. Chabalowski, and M. J. Frisch.,  J. Phys. Chem. 98, 11623 (1994) (10.1021/j100096a001)

    Deriv               =              1
    GGA                 =           TRUE
    Meta                =          FALSE

    Exchange Hybrid     =           TRUE
    MP2 Hybrid          =          FALSE

   => Exchange Functionals <=

    0.0800   Slater exchange
    0.7200         Becke 88

   => Exact (HF) Exchange <=

    0.2000               HF

   => Correlation Functionals <=

    0.1900   Vosko, Wilk & Nusair (VWN5_RPA)
    0.8100   Lee, Yang & Parr

   => LibXC Density Thresholds  <==

    XC_HYB_GGA_XC_B3LYP:  1.00E-15

   => Molecular Quadrature <=

    Radial Scheme          =       TREUTLER
    Pruning Scheme         =           NONE
    Nuclear Scheme         =       TREUTLER

    Blocking Scheme        =         OCTREE
    BS radius alpha        =              1
    Pruning alpha          =              1
    Radial Points          =             75
    Spherical Points       =            302
    Total Points           =          43921
    Total Blocks           =            465
    Max Points             =            256
    Max Functions          =             36
    Weights Tolerance      =       1.00E-15

  -Total Gradient:
     Atom            X                  Y                   Z
    ------   -----------------  -----------------  -----------------
       1        0.000000000000     0.000000000000     0.000003758603
       2       -0.000000000000     0.000000000000     0.000017602890

*** tstop() called on Joses-MacBook-Pro-2.local at Thu Jul 17 14:57:19 2025
Module time:
	user time   =       3.29 seconds =       0.05 minutes
	system time =       3.04 seconds =       0.05 minutes
	total time  =          1 seconds =       0.02 minutes
Total time:
	user time   =     509.17 seconds =       8.49 minutes
	system time =     129.90 seconds =       2.17 minutes
	total time  =         64 seconds =       1.07 minutes

    			-----------------------------------------

    			 OPTKING 3.0: for geometry optimizations

    			     By R.A. King, Bethel University

    			        with contributions from

    			    A.V. Copan, J. Cayton, A. Heide

    			-----------------------------------------

	                            ===> Fragment 1 <==

	 Z (Atomic Numbers)          Masses                          Geom
	      11.000000            22.989769          0.00000000  0.00000000  4.99604284
	      15.000000            30.973762          0.00000000  0.00000000 -3.70823125

	 - Coordinate -           - BOHR/RAD -       - ANG/DEG -
	 R(1,2)           =         8.704274           4.606103

	        --- Internal Coordinate Step in ANG or DEG, aJ/ANG or AJ/DEG ---
	-------------------------------------------------------------------------------
	           Coordinate      Previous         Force          Change          New
	           ----------      --------        ------          ------        ------
	               R(1,2)       4.60610        0.00006        0.00109       4.60719
	-------------------------------------------------------------------------------

	                                 ==> Convergence Check <==

	Measures of convergence in internal coordinates in au.

	Criteria marked as inactive (o), active & met (*), and active & unmet ( ).

	----------------------------------------------------------------------------------------------
	   Step    Total Energy     Delta E     Max Force     RMS Force      Max Disp      RMS Disp
	----------------------------------------------------------------------------------------------
	  Convergence Criteria     1.00e-06 *    3.00e-04 *             o    1.20e-03 *             o
	----------------------------------------------------------------------------------------------
	    24    -502.97180258   -2.25e-08 *    6.92e-06 *    6.92e-06 o    2.05e-03      2.05e-03 o  ~
	----------------------------------------------------------------------------------------------

Next Geometry in Ang
	Fragment 1 (Ang)

	   Na   0.0000000000   0.0000000000   2.6443349151
	    P   0.0000000000   0.0000000000  -1.9628543703

    Final optimized geometry and variables:
    Molecular point group: c2v
    Full point group: C_inf_v

    Geometry (in Angstrom), charge = 1, multiplicity = 6:

    NA           0.000000000000     0.000000000000     2.643792016254
    P            0.000000000000     0.000000000000    -1.962311471444

    Psi4 stopped on: Thursday, 17 July 2025 02:57PM
    Psi4 wall time for execution: 0:01:04.85

*** Psi4 exiting successfully. Buy a developer a beer!
