                               Psi4 1.9.1 release

  ==> Input File <==

--------------------------------------------------------------------------
molecule {
1 6
Na   0.00000        0.60000        0.00000
Cl   0.00000       -0.60000        0.00000
}

set {
basis              cc-pvdz
reference          uks
maxiter            500
geom_maxiter       500
DAMPING_PERCENTAGE 1
guess              SAP
}

optimize('b3lyp')
--------------------------------------------------------------------------

    Molecular point group: c2v
  Charge       = 1
  Multiplicity = 6
  Basis Set: CC-PVDZ
    Blend: CC-PVDZ
  Basis Set: (CC-PVDZ AUX)
    Blend: CC-PVDZ-JKFIT + DEF2-UNIVERSAL-JKFIT
  @DF-UKS Final Energy:  -620.26604416029807
    Total Energy =                       -620.2660441602980654
 Dipole X            :          0.0000000            0.0000000            0.0000000
 Dipole Y            :          0.0000000            0.0000000            0.0000000
 Dipole Z            :         -1.2133884           -0.2413546           -1.4547430
 Magnitude           :                                                    1.4547430
    Molecular point group: c2v
  Basis Set: CC-PVDZ
    Blend: CC-PVDZ
  Basis Set: (CC-PVDZ AUX)
    Blend: CC-PVDZ-JKFIT + DEF2-UNIVERSAL-JKFIT
  Basis Set: CC-PVDZ
    Blend: CC-PVDZ
  Basis Set: (CC-PVDZ AUX)
    Blend: CC-PVDZ-JKFIT + DEF2-UNIVERSAL-JKFIT
  @DF-UKS Final Energy:  -620.28398118549046
    Total Energy =                       -620.2839811854904610
  Basis Set: CC-PVDZ
    Blend: CC-PVDZ
  Basis Set: (CC-PVDZ AUX)
    Blend: CC-PVDZ-JKFIT + DEF2-UNIVERSAL-JKFIT
  Basis Set: CC-PVDZ
    Blend: CC-PVDZ
  @DF-UKS Final Energy:  -620.31839001223943
    Total Energy =                       -620.3183900122394334
  @DF-UKS Final Energy:  -620.44094147346846
    Total Energy =                       -620.4409414734684560
  @DF-UKS Final Energy:  -620.92143658198108
    Total Energy =                       -620.9214365819810837
  @DF-UKS Final Energy:  -621.11068320370759
    Total Energy =                       -621.1106832037075947
  @DF-UKS Final Energy:  -621.23193623127668
    Total Energy =                       -621.2319362312765634
  @DF-UKS Final Energy:  -621.30664111403939
    Total Energy =                       -621.3066411140393939
  @DF-UKS Final Energy:  -621.35423399994409
    Total Energy =                       -621.3542339999440856
  @DF-UKS Final Energy:  -621.38485314095340
    Total Energy =                       -621.3848531409533962
  @DF-UKS Final Energy:  -621.40050595319371
    Total Energy =                       -621.4005059531938286
  @DF-UKS Final Energy:  -621.40534851461814
    Total Energy =                       -621.4053485146181401
  @DF-UKS Final Energy:  -621.40604778843351
    Total Energy =                       -621.4060477884335114
  Basis Set: (CC-PVDZ AUX)
    Blend: CC-PVDZ-JKFIT + DEF2-UNIVERSAL-JKFIT
  Basis Set: CC-PVDZ
    Blend: CC-PVDZ
  Basis Set: (CC-PVDZ AUX)
    Blend: CC-PVDZ-JKFIT + DEF2-UNIVERSAL-JKFIT
  @DF-UKS Final Energy:  -621.40607639814993
    Total Energy =                       -621.4060763981498212
  Basis Set: CC-PVDZ
    Blend: CC-PVDZ
  Basis Set: (CC-PVDZ AUX)
    Blend: CC-PVDZ-JKFIT + DEF2-UNIVERSAL-JKFIT
  Charge       = 1
  Multiplicity = 6
  Basis Set: CC-PVDZ
    Blend: CC-PVDZ
  Basis Set: (CC-PVDZ AUX)
    Blend: CC-PVDZ-JKFIT + DEF2-UNIVERSAL-JKFIT

    Orbital Energies [Eh]
    ---------------------

    Alpha Occupied:

       1A1  -102.371949     2A1   -38.609036     3A1   -10.256121
       1B1    -8.020785     4A1    -8.020580     1B2    -8.019965
       5A1    -2.359297     6A1    -1.515660     7A1    -1.293612
       2B1    -1.290146     2B2    -1.288106     3B1    -1.002831
       8A1    -1.002144     3B2    -1.000398     9A1    -0.313414
       4B2    -0.211881

    Alpha Virtual:

       4B1    -0.164417    10A1    -0.164342    11A1    -0.116615
       5B2    -0.070259     5B1    -0.062922    12A1    -0.024711
      13A1    -0.010104     6B2    -0.000317     6B1     0.002362
       1A2     0.014950    14A1     0.018934     7B1     0.051165
       7B2     0.052369     2A2     0.056886    15A1     0.060300
      16A1     0.080091    17A1     0.134953     8B2     0.168134
       8B1     0.170538    18A1     0.469112

    Beta Occupied:

       1A1  -102.345946     2A1   -38.607096     3A1   -10.230548
       1B1    -7.983705     4A1    -7.983344     1B2    -7.981838
       5A1    -2.355848     6A1    -1.336135     7A1    -1.290332
       2B1    -1.288420     2B2    -1.283983

    Beta Virtual:

       3B1    -0.781278     8A1    -0.777671     3B2    -0.774153
       9A1    -0.218638    10A1    -0.148321     4B1    -0.126173
       4B2    -0.113784    11A1    -0.080861     5B1    -0.035077
       5B2    -0.026334    12A1    -0.017469     6B1     0.013798
       6B2     0.024471    13A1     0.035283     1A2     0.064615
      14A1     0.066915     7B1     0.134272     7B2     0.140256
      15A1     0.157974     2A2     0.184483    16A1     0.184589
      17A1     0.208844     8B1     0.247028     8B2     0.255591
      18A1     0.528336

    Final Occupation by Irrep:
             A1    A2    B1    B2
    DOCC [     7,    0,    2,    2 ]
    SOCC [     2,    0,    1,    2 ]
    NA   [     9,    0,    3,    4 ]
    NB   [     7,    0,    2,    2 ]

  @DF-UKS Final Energy:  -621.40607640395740

   => Energetics <=

    Nuclear Repulsion Energy =             32.8344291685795113
    One-Electron Energy =                -915.0475169307351280
    Two-Electron Energy =                 294.7541945895764002
    DFT Exchange-Correlation Energy =     -33.9471832313781334
    Empirical Dispersion Energy =           0.0000000000000000
    VV10 Nonlocal Energy =                  0.0000000000000000
    Total Energy =                       -621.4060764039573996

  UHF NO Occupations:
  HONO-2 :    3 B2 1.0000000
  HONO-1 :    9 A1 1.0000000
  HONO-0 :    4 B2 1.0000000
  LUNO+0 :   10 A1 0.0001923
  LUNO+1 :    5 B2 0.0000008
  LUNO+2 :    4 B1 0.0000007
  LUNO+3 :   11 A1 0.0000006

Computation Completed

Properties will be evaluated at   0.000000,   0.000000,   0.000000 [a0]

Properties computed using the SCF density matrix

 Multipole Moments:

 ------------------------------------------------------------------------------------
     Multipole            Electronic (a.u.)      Nuclear  (a.u.)        Total (a.u.)
 ------------------------------------------------------------------------------------

 L = 1.  Multiply by 2.5417464519 to convert [e a0] to [Debye]
 Dipole X            :          0.0000000            0.0000000            0.0000000
 Dipole Y            :          0.0000000            0.0000000            0.0000000
 Dipole Z            :         -2.7480648           -0.6061605           -3.3542253
 Magnitude           :                                                    3.3542253

 ------------------------------------------------------------------------------------

*** tstop() called on Joses-MacBook-Pro-2.local at Thu Jul 17 15:01:14 2025
Module time:
	user time   =       6.89 seconds =       0.11 minutes
	system time =       2.28 seconds =       0.04 minutes
	total time  =          1 seconds =       0.02 minutes
Total time:
	user time   =     176.56 seconds =       2.94 minutes
	system time =      47.30 seconds =       0.79 minutes
	total time  =         21 seconds =       0.35 minutes

*** tstart() called on Joses-MacBook-Pro-2.local
*** at Thu Jul 17 15:01:14 2025

         ------------------------------------------------------------
                                   SCF GRAD
                          Rob Parrish, Justin Turney,
                       Andy Simmonett, and Alex Sokolov
         ------------------------------------------------------------

  ==> Geometry <==

    Molecular point group: c2v
    Full point group: C_inf_v

    Geometry (in Angstrom), charge = 1, multiplicity = 6:

       Center              X                  Y                   Z               Mass
    ------------   -----------------  -----------------  -----------------  -----------------
         NA           0.000000000000     0.000000000000     1.818346317289    22.989769282000
         CL           0.000000000000     0.000000000000    -1.195445635275    34.968852682000

  Nuclear repulsion =   32.834429168579511

  ==> Basis Set <==

  Basis Set: CC-PVDZ
    Blend: CC-PVDZ
    Number of shells: 16
    Number of basis functions: 36
    Number of Cartesian functions: 38
    Spherical Harmonics?: true
    Max angular momentum: 2

  ==> DFJKGrad: Density-Fitted SCF Gradients <==

    Gradient:                    1
    J tasked:                  Yes
    K tasked:                  Yes
    wK tasked:                  No
    OpenMP threads:              1
    Integrals threads:           1
    Memory [MiB]:              375
    Schwarz Cutoff:          1E-12
    Fitting Condition:       1E-10

   => Auxiliary Basis Set <=

  Basis Set: (CC-PVDZ AUX)
    Blend: CC-PVDZ-JKFIT + DEF2-UNIVERSAL-JKFIT
    Number of shells: 70
    Number of basis functions: 224
    Number of Cartesian functions: 267
    Spherical Harmonics?: true
    Max angular momentum: 4

  ==> DFT Potential <==

   => LibXC <=

    Version 6.2.2
    S. Lehtola, C. Steigemann, M. J.T. Oliveira, and M. A.L. Marques.,  SoftwareX 7, 1â€“5 (2018) (10.1016/j.softx.2017.11.002)

   => Composite Functional: B3LYP <=

    B3LYP Hyb-GGA Exchange-Correlation Functional

    P. J. Stephens, F. J. Devlin, C. F. Chabalowski, and M. J. Frisch.,  J. Phys. Chem. 98, 11623 (1994) (10.1021/j100096a001)

    Deriv               =              1
    GGA                 =           TRUE
    Meta                =          FALSE

    Exchange Hybrid     =           TRUE
    MP2 Hybrid          =          FALSE

   => Exchange Functionals <=

    0.0800   Slater exchange
    0.7200         Becke 88

   => Exact (HF) Exchange <=

    0.2000               HF

   => Correlation Functionals <=

    0.1900   Vosko, Wilk & Nusair (VWN5_RPA)
    0.8100   Lee, Yang & Parr

   => LibXC Density Thresholds  <==

    XC_HYB_GGA_XC_B3LYP:  1.00E-15

   => Molecular Quadrature <=

    Radial Scheme          =       TREUTLER
    Pruning Scheme         =           NONE
    Nuclear Scheme         =       TREUTLER

    Blocking Scheme        =         OCTREE
    BS radius alpha        =              1
    Pruning alpha          =              1
    Radial Points          =             75
    Spherical Points       =            302
    Total Points           =          43859
    Total Blocks           =            446
    Max Points             =            255
    Max Functions          =             36
    Weights Tolerance      =       1.00E-15

  -Total Gradient:
     Atom            X                  Y                   Z
    ------   -----------------  -----------------  -----------------
       1        0.000000000000     0.000000000000     0.000033116919
       2        0.000000000000     0.000000000000     0.000055675571

*** tstop() called on Joses-MacBook-Pro-2.local at Thu Jul 17 15:01:14 2025
Module time:
	user time   =       2.29 seconds =       0.04 minutes
	system time =       1.71 seconds =       0.03 minutes
	total time  =          0 seconds =       0.00 minutes
Total time:
	user time   =     178.86 seconds =       2.98 minutes
	system time =      49.01 seconds =       0.82 minutes
	total time  =         21 seconds =       0.35 minutes

    			-----------------------------------------

    			 OPTKING 3.0: for geometry optimizations

    			     By R.A. King, Bethel University

    			        with contributions from

    			    A.V. Copan, J. Cayton, A. Heide

    			-----------------------------------------

	                            ===> Fragment 1 <==

	 Z (Atomic Numbers)          Masses                          Geom
	      11.000000            22.989769          0.00000000  0.00000000  3.43617654
	      17.000000            34.968853          0.00000000  0.00000000 -2.25906485

	 - Coordinate -           - BOHR/RAD -       - ANG/DEG -
	 R(1,2)           =         5.695241           3.013792

	        --- Internal Coordinate Step in ANG or DEG, aJ/ANG or AJ/DEG ---
	-------------------------------------------------------------------------------
	           Coordinate      Previous         Force          Change          New
	           ----------      --------        ------          ------        ------
	               R(1,2)       3.01379        0.00009        0.00017       3.01396
	-------------------------------------------------------------------------------

	                                 ==> Convergence Check <==

	Measures of convergence in internal coordinates in au.

	Criteria marked as inactive (o), active & met (*), and active & unmet ( ).

	----------------------------------------------------------------------------------------------
	   Step    Total Energy     Delta E     Max Force     RMS Force      Max Disp      RMS Disp
	----------------------------------------------------------------------------------------------
	  Convergence Criteria     1.00e-06 *    3.00e-04 *             o    1.20e-03 *             o
	----------------------------------------------------------------------------------------------
	    15    -621.40607640   -5.81e-09 *    1.13e-05 *    1.13e-05 o    3.23e-04 *    3.23e-04 o  ~
	----------------------------------------------------------------------------------------------

Next Geometry in Ang
	Fragment 1 (Ang)

	   Na   0.0000000000   0.0000000000   1.8184316846
	   Cl   0.0000000000   0.0000000000  -1.1955310026

    Final optimized geometry and variables:
    Molecular point group: c2v
    Full point group: C_inf_v

    Geometry (in Angstrom), charge = 1, multiplicity = 6:

    NA           0.000000000000     0.000000000000     1.818346317289
    CL           0.000000000000     0.000000000000    -1.195445635275

    Psi4 stopped on: Thursday, 17 July 2025 03:01PM
    Psi4 wall time for execution: 0:00:22.50

*** Psi4 exiting successfully. Buy a developer a beer!
