                               Psi4 1.9.1 release

  ==> Input File <==

--------------------------------------------------------------------------
molecule {
1 6
Al   0.00000        0.60000        0.00000
Al   0.00000       -0.60000        0.00000
}

set {
basis              cc-pvdz
reference          uks
maxiter            500
geom_maxiter       500
DAMPING_PERCENTAGE 1
guess              SAP
}

optimize('b3lyp')
--------------------------------------------------------------------------

    Molecular point group: d2h
  Charge       = 1
  Multiplicity = 6
  Basis Set: CC-PVDZ
    Blend: CC-PVDZ
  Basis Set: (CC-PVDZ AUX)
    Blend: CC-PVDZ-JKFIT
  @DF-UKS Final Energy:  -483.18841314506585
    Total Energy =                       -483.1884131450658515
 Dipole X            :          0.0000000            0.0000000            0.0000000
 Dipole Y            :          0.0000000            0.0000000            0.0000000
 Dipole Z            :          0.0000000            0.0000000            0.0000000
 Magnitude           :                                                    0.0000000
    Molecular point group: d2h
  Basis Set: CC-PVDZ
    Blend: CC-PVDZ
  Basis Set: (CC-PVDZ AUX)
    Blend: CC-PVDZ-JKFIT
  Basis Set: CC-PVDZ
    Blend: CC-PVDZ
  Basis Set: (CC-PVDZ AUX)
    Blend: CC-PVDZ-JKFIT
  @DF-UKS Final Energy:  -483.20205314130646
    Total Energy =                       -483.2020531413064646
  Basis Set: CC-PVDZ
    Blend: CC-PVDZ
  Basis Set: (CC-PVDZ AUX)
    Blend: CC-PVDZ-JKFIT
  Basis Set: CC-PVDZ
    Blend: CC-PVDZ
  @DF-UKS Final Energy:  -483.22845741135319
    Total Energy =                       -483.2284574113531903
  @DF-UKS Final Energy:  -483.32497129648380
    Total Energy =                       -483.3249712964837954
  @DF-UKS Final Energy:  -483.76580486118377
    Total Energy =                       -483.7658048611837671
  @DF-UKS Final Energy:  -484.03902258951382
    Total Energy =                       -484.0390225895138201
  @DF-UKS Final Energy:  -484.19983026678756
    Total Energy =                       -484.1998302667875578
  @DF-UKS Final Energy:  -484.27265305641748
    Total Energy =                       -484.2726530564174823
  @DF-UKS Final Energy:  -484.30510995955916
    Total Energy =                       -484.3051099595592177
  @DF-UKS Final Energy:  -484.31788724918067
    Total Energy =                       -484.3178872491805578
  @DF-UKS Final Energy:  -484.32184350757797
    Total Energy =                       -484.3218435075779666
  @DF-UKS Final Energy:  -484.32260976217464
    Total Energy =                       -484.3226097621746362
  @DF-UKS Final Energy:  -484.32266896161298
    Total Energy =                       -484.3226689616129761
  Basis Set: (CC-PVDZ AUX)
    Blend: CC-PVDZ-JKFIT
  Basis Set: CC-PVDZ
    Blend: CC-PVDZ
  Basis Set: (CC-PVDZ AUX)
    Blend: CC-PVDZ-JKFIT
  @DF-UKS Final Energy:  -484.32267376343657
    Total Energy =                       -484.3226737634365691
  Basis Set: CC-PVDZ
    Blend: CC-PVDZ
  Basis Set: (CC-PVDZ AUX)
    Blend: CC-PVDZ-JKFIT
  Charge       = 1
  Multiplicity = 6
  Basis Set: CC-PVDZ
    Blend: CC-PVDZ
  Basis Set: (CC-PVDZ AUX)
    Blend: CC-PVDZ-JKFIT

    Orbital Energies [Eh]
    ---------------------

    Alpha Occupied:

       1B2u  -56.354591     1Ag   -56.354591     2B2u   -4.432045
       2Ag    -4.432010     3Ag    -2.985265     1B3u   -2.984768
       1B1u   -2.984768     1B1g   -2.984728     1B3g   -2.984728
       3B2u   -2.984720     4Ag    -0.664728     4B2u   -0.534203
       5Ag    -0.409013     2B1u   -0.393903     2B3u   -0.393903

    Alpha Virtual:

       2B3g   -0.274179     2B1g   -0.274179     5B2u   -0.179877
       6Ag    -0.089711     3B3u   -0.047036     3B1u   -0.047036
       7Ag    -0.012675     1B2g   -0.009872     8Ag    -0.009872
       6B2u    0.002187     4B1u    0.016460     4B3u    0.016460
       3B3g    0.041060     3B1g    0.041060     1Au     0.066636
       7B2u    0.066637     8B2u    0.107110     9Ag     0.173899
       4B3g    0.194007     4B1g    0.194007     9B2u    0.381641

    Beta Occupied:

       1B2u  -56.345590     1Ag   -56.345589     2B2u   -4.418833
       2Ag    -4.418747     1B3u   -2.972854     1B1u   -2.972854
       1B1g   -2.972832     1B3g   -2.972832     3Ag    -2.971669
       3B2u   -2.971249

    Beta Virtual:

       4Ag    -0.478833     4B2u   -0.380942     2B1u   -0.256824
       2B3u   -0.256824     5Ag    -0.251670     2B3g   -0.184807
       2B1g   -0.184807     5B2u   -0.104236     6Ag    -0.018060
       7Ag     0.034854     3B1u    0.035398     3B3u    0.035398
       6B2u    0.057398     4B3u    0.079660     4B1u    0.079660
       1B2g    0.080179     8Ag     0.080239     3B3g    0.082496
       3B1g    0.082496     7B2u    0.149729     1Au     0.149743
       8B2u    0.152399     9Ag     0.251379     4B3g    0.275987
       4B1g    0.275987     9B2u    0.446007

    Final Occupation by Irrep:
             Ag   B1g   B2g   B3g    Au   B1u   B2u   B3u
    DOCC [     3,    1,    0,    1,    0,    1,    3,    1 ]
    SOCC [     2,    0,    0,    0,    0,    1,    1,    1 ]
    NA   [     5,    1,    0,    1,    0,    2,    4,    2 ]
    NB   [     3,    1,    0,    1,    0,    1,    3,    1 ]

  @DF-UKS Final Energy:  -484.32267418032967

   => Energetics <=

    Nuclear Repulsion Energy =             33.8628977534549946
    One-Electron Energy =                -733.8787183452000136
    Two-Electron Energy =                 245.5017032039055209
    DFT Exchange-Correlation Energy =     -29.8085567924900765
    Empirical Dispersion Energy =           0.0000000000000000
    VV10 Nonlocal Energy =                  0.0000000000000000
    Total Energy =                       -484.3226741803296136

  UHF NO Occupations:
  HONO-2 :    4 Ag 1.0000000
  HONO-1 :    2B3u 1.0000000
  HONO-0 :    5 Ag 1.0000000
  LUNO+0 :    2B1g 0.0000011
  LUNO+1 :    2B3g 0.0000011
  LUNO+2 :    5B2u 0.0000007
  LUNO+3 :    3B3u 0.0000002

Computation Completed

Properties will be evaluated at   0.000000,   0.000000,   0.000000 [a0]

Properties computed using the SCF density matrix

 Multipole Moments:

 ------------------------------------------------------------------------------------
     Multipole            Electronic (a.u.)      Nuclear  (a.u.)        Total (a.u.)
 ------------------------------------------------------------------------------------

 L = 1.  Multiply by 2.5417464519 to convert [e a0] to [Debye]
 Dipole X            :          0.0000000            0.0000000            0.0000000
 Dipole Y            :          0.0000000            0.0000000            0.0000000
 Dipole Z            :          0.0000000            0.0000000            0.0000000
 Magnitude           :                                                    0.0000000

 ------------------------------------------------------------------------------------

*** tstop() called on Joses-MacBook-Pro-2.local at Thu Jul 17 15:15:42 2025
Module time:
	user time   =       4.94 seconds =       0.08 minutes
	system time =       2.07 seconds =       0.03 minutes
	total time  =          1 seconds =       0.02 minutes
Total time:
	user time   =     149.44 seconds =       2.49 minutes
	system time =      48.17 seconds =       0.80 minutes
	total time  =         19 seconds =       0.32 minutes

*** tstart() called on Joses-MacBook-Pro-2.local
*** at Thu Jul 17 15:15:42 2025

         ------------------------------------------------------------
                                   SCF GRAD
                          Rob Parrish, Justin Turney,
                       Andy Simmonett, and Alex Sokolov
         ------------------------------------------------------------

  ==> Geometry <==

    Molecular point group: d2h
    Full point group: D_inf_h

    Geometry (in Angstrom), charge = 1, multiplicity = 6:

       Center              X                  Y                   Z               Mass
    ------------   -----------------  -----------------  -----------------  -----------------
         AL          -0.000000000000     1.320485760763     0.000000000000    26.981538530000
         AL           0.000000000000    -1.320485760763     0.000000000000    26.981538530000

  Nuclear repulsion =   33.862897753454995

  ==> Basis Set <==

  Basis Set: CC-PVDZ
    Blend: CC-PVDZ
    Number of shells: 16
    Number of basis functions: 36
    Number of Cartesian functions: 38
    Spherical Harmonics?: true
    Max angular momentum: 2

  ==> DFJKGrad: Density-Fitted SCF Gradients <==

    Gradient:                    1
    J tasked:                  Yes
    K tasked:                  Yes
    wK tasked:                  No
    OpenMP threads:              1
    Integrals threads:           1
    Memory [MiB]:              375
    Schwarz Cutoff:          1E-12
    Fitting Condition:       1E-10

   => Auxiliary Basis Set <=

  Basis Set: (CC-PVDZ AUX)
    Blend: CC-PVDZ-JKFIT
    Number of shells: 72
    Number of basis functions: 224
    Number of Cartesian functions: 260
    Spherical Harmonics?: true
    Max angular momentum: 3

  ==> DFT Potential <==

   => LibXC <=

    Version 6.2.2
    S. Lehtola, C. Steigemann, M. J.T. Oliveira, and M. A.L. Marques.,  SoftwareX 7, 1â€“5 (2018) (10.1016/j.softx.2017.11.002)

   => Composite Functional: B3LYP <=

    B3LYP Hyb-GGA Exchange-Correlation Functional

    P. J. Stephens, F. J. Devlin, C. F. Chabalowski, and M. J. Frisch.,  J. Phys. Chem. 98, 11623 (1994) (10.1021/j100096a001)

    Deriv               =              1
    GGA                 =           TRUE
    Meta                =          FALSE

    Exchange Hybrid     =           TRUE
    MP2 Hybrid          =          FALSE

   => Exchange Functionals <=

    0.0800   Slater exchange
    0.7200         Becke 88

   => Exact (HF) Exchange <=

    0.2000               HF

   => Correlation Functionals <=

    0.1900   Vosko, Wilk & Nusair (VWN5_RPA)
    0.8100   Lee, Yang & Parr

   => LibXC Density Thresholds  <==

    XC_HYB_GGA_XC_B3LYP:  1.00E-15

   => Molecular Quadrature <=

    Radial Scheme          =       TREUTLER
    Pruning Scheme         =           NONE
    Nuclear Scheme         =       TREUTLER

    Blocking Scheme        =         OCTREE
    BS radius alpha        =              1
    Pruning alpha          =              1
    Radial Points          =             75
    Spherical Points       =            302
    Total Points           =          42376
    Total Blocks           =            398
    Max Points             =            249
    Max Functions          =             36
    Weights Tolerance      =       1.00E-15

  -Total Gradient:
     Atom            X                  Y                   Z
    ------   -----------------  -----------------  -----------------
       1        0.000000000000    -0.000061183759     0.000000000000
       2       -0.000000000000     0.000061183759     0.000000000000

*** tstop() called on Joses-MacBook-Pro-2.local at Thu Jul 17 15:15:42 2025
Module time:
	user time   =       3.17 seconds =       0.05 minutes
	system time =       0.72 seconds =       0.01 minutes
	total time  =          0 seconds =       0.00 minutes
Total time:
	user time   =     152.62 seconds =       2.54 minutes
	system time =      48.90 seconds =       0.81 minutes
	total time  =         19 seconds =       0.32 minutes

    			-----------------------------------------

    			 OPTKING 3.0: for geometry optimizations

    			     By R.A. King, Bethel University

    			        with contributions from

    			    A.V. Copan, J. Cayton, A. Heide

    			-----------------------------------------

	                            ===> Fragment 1 <==

	 Z (Atomic Numbers)          Masses                          Geom
	      13.000000            26.981539         -0.00000000  2.49535644  0.00000000
	      13.000000            26.981539          0.00000000 -2.49535644  0.00000000

	 - Coordinate -           - BOHR/RAD -       - ANG/DEG -
	 R(1,2)           =         4.990713           2.640972

	        --- Internal Coordinate Step in ANG or DEG, aJ/ANG or AJ/DEG ---
	-------------------------------------------------------------------------------
	           Coordinate      Previous         Force          Change          New
	           ----------      --------        ------          ------        ------
	               R(1,2)       2.64097        0.00050        0.00056       2.64153
	-------------------------------------------------------------------------------

	                                 ==> Convergence Check <==

	Measures of convergence in internal coordinates in au.

	Criteria marked as inactive (o), active & met (*), and active & unmet ( ).

	----------------------------------------------------------------------------------------------
	   Step    Total Energy     Delta E     Max Force     RMS Force      Max Disp      RMS Disp
	----------------------------------------------------------------------------------------------
	  Convergence Criteria     1.00e-06 *    3.00e-04 *             o    1.20e-03 *             o
	----------------------------------------------------------------------------------------------
	    15    -484.32267418   -4.17e-07 *    6.12e-05 *    6.12e-05 o    1.06e-03 *    1.06e-03 o  ~
	----------------------------------------------------------------------------------------------

Next Geometry in Ang
	Fragment 1 (Ang)

	   Al  -0.0000000000   1.3207674139   0.0000000000
	   Al   0.0000000000  -1.3207674139   0.0000000000

    Final optimized geometry and variables:
    Molecular point group: d2h
    Full point group: D_inf_h

    Geometry (in Angstrom), charge = 1, multiplicity = 6:

    AL          -0.000000000000     1.320485760763     0.000000000000
    AL           0.000000000000    -1.320485760763     0.000000000000

    Psi4 stopped on: Thursday, 17 July 2025 03:15PM
    Psi4 wall time for execution: 0:00:19.73

*** Psi4 exiting successfully. Buy a developer a beer!
