                               Psi4 1.9.1 release

  ==> Input File <==

--------------------------------------------------------------------------
molecule {
1 6
F   0.00000        0.60000        0.00000
F   0.00000       -0.60000        0.00000
}

set {
basis              cc-pvdz
reference          uks
maxiter            500
geom_maxiter       500
DAMPING_PERCENTAGE 1
guess              SAP
}

optimize('b3lyp')
--------------------------------------------------------------------------

    Molecular point group: d2h
  Charge       = 1
  Multiplicity = 6
  Basis Set: CC-PVDZ
    Blend: CC-PVDZ
  Basis Set: (CC-PVDZ AUX)
    Blend: CC-PVDZ-JKFIT
  @DF-UKS Final Energy:  -197.26728988936833
    Total Energy =                       -197.2672898893683282
 Dipole X            :          0.0000000            0.0000000            0.0000000
 Dipole Y            :          0.0000000            0.0000000            0.0000000
 Dipole Z            :          0.0000000            0.0000000            0.0000000
 Magnitude           :                                                    0.0000000
    Molecular point group: d2h
  Basis Set: CC-PVDZ
    Blend: CC-PVDZ
  Basis Set: (CC-PVDZ AUX)
    Blend: CC-PVDZ-JKFIT
  Basis Set: CC-PVDZ
    Blend: CC-PVDZ
  Basis Set: (CC-PVDZ AUX)
    Blend: CC-PVDZ-JKFIT
  @DF-UKS Final Energy:  -197.53456401222383
    Total Energy =                       -197.5345640122238251
  Basis Set: CC-PVDZ
    Blend: CC-PVDZ
  Basis Set: (CC-PVDZ AUX)
    Blend: CC-PVDZ-JKFIT
  Basis Set: CC-PVDZ
    Blend: CC-PVDZ
  @DF-UKS Final Energy:  -197.56931390764575
    Total Energy =                       -197.5693139076457214
  @DF-UKS Final Energy:  -197.58769971632501
    Total Energy =                       -197.5876997163250053
  @DF-UKS Final Energy:  -197.59076164433526
    Total Energy =                       -197.5907616443352595
  @DF-UKS Final Energy:  -197.59134359245746
    Total Energy =                       -197.5913435924574912
  @DF-UKS Final Energy:  -197.59148015499972
    Total Energy =                       -197.5914801549996866
  Basis Set: (CC-PVDZ AUX)
    Blend: CC-PVDZ-JKFIT
  Basis Set: CC-PVDZ
    Blend: CC-PVDZ
  Basis Set: (CC-PVDZ AUX)
    Blend: CC-PVDZ-JKFIT
  @DF-UKS Final Energy:  -197.59149598930358
    Total Energy =                       -197.5914959893035814
  Basis Set: CC-PVDZ
    Blend: CC-PVDZ
  Basis Set: (CC-PVDZ AUX)
    Blend: CC-PVDZ-JKFIT
  Charge       = 1
  Multiplicity = 6
  Basis Set: CC-PVDZ
    Blend: CC-PVDZ
  Basis Set: (CC-PVDZ AUX)
    Blend: CC-PVDZ-JKFIT

    Orbital Energies [Eh]
    ---------------------

    Alpha Occupied:

       1B2u  -25.408522     1Ag   -25.408475     2Ag    -1.847421
       2B2u   -1.775011     3Ag    -1.128669     1B3u   -1.116825
       1B1g   -1.079855     1B1u   -1.078407     1B3g   -1.040411
       3B2u   -0.974895     2B1u    0.424760

    Alpha Virtual:

       2B3u    0.489557     4Ag     0.631774     4B2u    0.675177
       2B3g    0.687960     2B1g    0.695397     5Ag     0.850055
       5B2u    1.402334     6Ag     2.820681     3B3u    2.858785
       1B2g    2.890573     6B2u    2.892636     1Au     2.893747
       7Ag     2.901000     3B1u    2.904328     3B1g    2.909328
       3B3g    2.954845     7B2u    3.230805

    Beta Occupied:

       1Ag   -25.324982     1B2u  -25.324964     2Ag    -1.652778
       2B2u   -1.565410     3Ag    -0.951649     1B1u   -0.862591

    Beta Virtual:

       1B3u   -0.766256     1B3g   -0.756419     1B1g   -0.714392
       3B2u   -0.707406     2B3u    0.624039     2B1u    0.628631
       4Ag     0.742102     4B2u    0.762633     2B1g    0.823486
       2B3g    0.830788     5Ag     0.959643     5B2u    1.516281
       6Ag     2.963571     3B3u    3.021319     3B1u    3.026825
       1B2g    3.059093     1Au     3.063068     7Ag     3.064312
       6B2u    3.068282     3B1g    3.072674     3B3g    3.080186
       7B2u    3.365371

    Final Occupation by Irrep:
             Ag   B1g   B2g   B3g    Au   B1u   B2u   B3u
    DOCC [     3,    0,    0,    0,    0,    1,    2,    0 ]
    SOCC [     0,    1,    0,    1,    0,    1,    1,    1 ]
    NA   [     3,    1,    0,    1,    0,    2,    3,    1 ]
    NB   [     3,    0,    0,    0,    0,    1,    2,    0 ]

  @DF-UKS Final Energy:  -197.59149805668710

   => Energetics <=

    Nuclear Repulsion Energy =             24.4038762129053914
    One-Electron Energy =                -316.1642012667764448
    Two-Electron Energy =                 110.4930206018079843
    DFT Exchange-Correlation Energy =     -16.3241936046240390
    Empirical Dispersion Energy =           0.0000000000000000
    VV10 Nonlocal Energy =                  0.0000000000000000
    Total Energy =                       -197.5914980566871009

  UHF NO Occupations:
  HONO-2 :    1B3g 1.0000000
  HONO-1 :    3B2u 1.0000000
  HONO-0 :    1B3u 1.0000000
  LUNO+0 :    4 Ag 0.0016188
  LUNO+1 :    5 Ag 0.0005115
  LUNO+2 :    4B2u 0.0003765
  LUNO+3 :    3B1u 0.0000002

Computation Completed

Properties will be evaluated at   0.000000,   0.000000,   0.000000 [a0]

Properties computed using the SCF density matrix

 Multipole Moments:

 ------------------------------------------------------------------------------------
     Multipole            Electronic (a.u.)      Nuclear  (a.u.)        Total (a.u.)
 ------------------------------------------------------------------------------------

 L = 1.  Multiply by 2.5417464519 to convert [e a0] to [Debye]
 Dipole X            :          0.0000000            0.0000000            0.0000000
 Dipole Y            :          0.0000000            0.0000000            0.0000000
 Dipole Z            :          0.0000000            0.0000000            0.0000000
 Magnitude           :                                                    0.0000000

 ------------------------------------------------------------------------------------

*** tstop() called on Joses-MacBook-Pro-2.local at Thu Jul 17 14:24:57 2025
Module time:
	user time   =       2.69 seconds =       0.04 minutes
	system time =       3.17 seconds =       0.05 minutes
	total time  =          1 seconds =       0.02 minutes
Total time:
	user time   =      29.90 seconds =       0.50 minutes
	system time =      39.04 seconds =       0.65 minutes
	total time  =          7 seconds =       0.12 minutes

*** tstart() called on Joses-MacBook-Pro-2.local
*** at Thu Jul 17 14:24:57 2025

         ------------------------------------------------------------
                                   SCF GRAD
                          Rob Parrish, Justin Turney,
                       Andy Simmonett, and Alex Sokolov
         ------------------------------------------------------------

  ==> Geometry <==

    Molecular point group: d2h
    Full point group: D_inf_h

    Geometry (in Angstrom), charge = 1, multiplicity = 6:

       Center              X                  Y                   Z               Mass
    ------------   -----------------  -----------------  -----------------  -----------------
         F           -0.000000000000     0.878207906201     0.000000000000    18.998403162730
         F            0.000000000000    -0.878207906201     0.000000000000    18.998403162730

  Nuclear repulsion =   24.403876212905391

  ==> Basis Set <==

  Basis Set: CC-PVDZ
    Blend: CC-PVDZ
    Number of shells: 12
    Number of basis functions: 28
    Number of Cartesian functions: 30
    Spherical Harmonics?: true
    Max angular momentum: 2

  ==> DFJKGrad: Density-Fitted SCF Gradients <==

    Gradient:                    1
    J tasked:                  Yes
    K tasked:                  Yes
    wK tasked:                  No
    OpenMP threads:              1
    Integrals threads:           1
    Memory [MiB]:              375
    Schwarz Cutoff:          1E-12
    Fitting Condition:       1E-10

   => Auxiliary Basis Set <=

  Basis Set: (CC-PVDZ AUX)
    Blend: CC-PVDZ-JKFIT
    Number of shells: 48
    Number of basis functions: 140
    Number of Cartesian functions: 162
    Spherical Harmonics?: true
    Max angular momentum: 3

  ==> DFT Potential <==

   => LibXC <=

    Version 6.2.2
    S. Lehtola, C. Steigemann, M. J.T. Oliveira, and M. A.L. Marques.,  SoftwareX 7, 1â€“5 (2018) (10.1016/j.softx.2017.11.002)

   => Composite Functional: B3LYP <=

    B3LYP Hyb-GGA Exchange-Correlation Functional

    P. J. Stephens, F. J. Devlin, C. F. Chabalowski, and M. J. Frisch.,  J. Phys. Chem. 98, 11623 (1994) (10.1021/j100096a001)

    Deriv               =              1
    GGA                 =           TRUE
    Meta                =          FALSE

    Exchange Hybrid     =           TRUE
    MP2 Hybrid          =          FALSE

   => Exchange Functionals <=

    0.0800   Slater exchange
    0.7200         Becke 88

   => Exact (HF) Exchange <=

    0.2000               HF

   => Correlation Functionals <=

    0.1900   Vosko, Wilk & Nusair (VWN5_RPA)
    0.8100   Lee, Yang & Parr

   => LibXC Density Thresholds  <==

    XC_HYB_GGA_XC_B3LYP:  1.00E-15

   => Molecular Quadrature <=

    Radial Scheme          =       TREUTLER
    Pruning Scheme         =           NONE
    Nuclear Scheme         =       TREUTLER

    Blocking Scheme        =         OCTREE
    BS radius alpha        =              1
    Pruning alpha          =              1
    Radial Points          =             75
    Spherical Points       =            302
    Total Points           =          42086
    Total Blocks           =            384
    Max Points             =            256
    Max Functions          =             28
    Weights Tolerance      =       1.00E-15

  -Total Gradient:
     Atom            X                  Y                   Z
    ------   -----------------  -----------------  -----------------
       1        0.000000000000    -0.000178455384    -0.000000000000
       2       -0.000000000000     0.000178455384    -0.000000000000

*** tstop() called on Joses-MacBook-Pro-2.local at Thu Jul 17 14:24:57 2025
Module time:
	user time   =       0.52 seconds =       0.01 minutes
	system time =       1.08 seconds =       0.02 minutes
	total time  =          0 seconds =       0.00 minutes
Total time:
	user time   =      30.42 seconds =       0.51 minutes
	system time =      40.13 seconds =       0.67 minutes
	total time  =          7 seconds =       0.12 minutes

    			-----------------------------------------

    			 OPTKING 3.0: for geometry optimizations

    			     By R.A. King, Bethel University

    			        with contributions from

    			    A.V. Copan, J. Cayton, A. Heide

    			-----------------------------------------

	                            ===> Fragment 1 <==

	 Z (Atomic Numbers)          Masses                          Geom
	       9.000000            18.998403         -0.00000000  1.65957242  0.00000000
	       9.000000            18.998403          0.00000000 -1.65957242  0.00000000

	 - Coordinate -           - BOHR/RAD -       - ANG/DEG -
	 R(1,2)           =         3.319145           1.756416

	        --- Internal Coordinate Step in ANG or DEG, aJ/ANG or AJ/DEG ---
	-------------------------------------------------------------------------------
	           Coordinate      Previous         Force          Change          New
	           ----------      --------        ------          ------        ------
	               R(1,2)       1.75642        0.00147        0.00036       1.75677
	-------------------------------------------------------------------------------

	                                 ==> Convergence Check <==

	Measures of convergence in internal coordinates in au.

	Criteria marked as inactive (o), active & met (*), and active & unmet ( ).

	----------------------------------------------------------------------------------------------
	   Step    Total Energy     Delta E     Max Force     RMS Force      Max Disp      RMS Disp
	----------------------------------------------------------------------------------------------
	  Convergence Criteria     1.00e-06 *    3.00e-04 *             o    1.20e-03 *             o
	----------------------------------------------------------------------------------------------
	     9    -197.59149806   -2.07e-06      1.78e-04 *    1.78e-04 o    6.78e-04 *    6.78e-04 o  ~
	----------------------------------------------------------------------------------------------

Next Geometry in Ang
	Fragment 1 (Ang)

	    F  -0.0000000000   0.8783874152   0.0000000000
	    F   0.0000000000  -0.8783874152   0.0000000000

    Final optimized geometry and variables:
    Molecular point group: d2h
    Full point group: D_inf_h

    Geometry (in Angstrom), charge = 1, multiplicity = 6:

    F           -0.000000000000     0.878207906201     0.000000000000
    F            0.000000000000    -0.878207906201     0.000000000000

    Psi4 stopped on: Thursday, 17 July 2025 02:24PM
    Psi4 wall time for execution: 0:00:07.23

*** Psi4 exiting successfully. Buy a developer a beer!
