                               Psi4 1.9.1 release

  ==> Input File <==

--------------------------------------------------------------------------
molecule {
1 6
Be   0.00000        0.60000        0.00000
Ne   0.00000       -0.60000        0.00000
}

set {
basis              cc-pvdz
reference          uks
maxiter            500
geom_maxiter       500
DAMPING_PERCENTAGE 1
guess              SAP
}

optimize('b3lyp')
--------------------------------------------------------------------------

    Molecular point group: c2v
  Charge       = 1
  Multiplicity = 6
  Basis Set: CC-PVDZ
    Blend: CC-PVDZ
  Basis Set: (CC-PVDZ AUX)
    Blend: CC-PVDZ-JKFIT + DEF2-UNIVERSAL-JKFIT
  @DF-UKS Final Energy:  -141.26061993082681
    Total Energy =                       -141.2606199308268060
 Dipole X            :          0.0000000            0.0000000            0.0000000
 Dipole Y            :          0.0000000            0.0000000            0.0000000
 Dipole Z            :         -0.7666385           -0.7937203           -1.5603588
 Magnitude           :                                                    1.5603588
    Molecular point group: c2v
  Basis Set: CC-PVDZ
    Blend: CC-PVDZ
  Basis Set: (CC-PVDZ AUX)
    Blend: CC-PVDZ-JKFIT + DEF2-UNIVERSAL-JKFIT
  Basis Set: CC-PVDZ
    Blend: CC-PVDZ
  Basis Set: (CC-PVDZ AUX)
    Blend: CC-PVDZ-JKFIT + DEF2-UNIVERSAL-JKFIT
  @DF-UKS Final Energy:  -141.47192281505340
    Total Energy =                       -141.4719228150534036
  Basis Set: CC-PVDZ
    Blend: CC-PVDZ
  Basis Set: (CC-PVDZ AUX)
    Blend: CC-PVDZ-JKFIT + DEF2-UNIVERSAL-JKFIT
  Basis Set: CC-PVDZ
    Blend: CC-PVDZ
  @DF-UKS Final Energy:  -141.54387389217968
    Total Energy =                       -141.5438738921796755
  @DF-UKS Final Energy:  -141.58526890003125
    Total Energy =                       -141.5852689000312239
  @DF-UKS Final Energy:  -141.59783351638137
    Total Energy =                       -141.5978335163813711
  @DF-UKS Final Energy:  -141.60036337411469
    Total Energy =                       -141.6003633741146928
  @DF-UKS Final Energy:  -141.60056951722547
    Total Energy =                       -141.6005695172254377
  @DF-UKS Final Energy:  -141.60058663506516
    Total Energy =                       -141.6005866350651559
  Basis Set: (CC-PVDZ AUX)
    Blend: CC-PVDZ-JKFIT + DEF2-UNIVERSAL-JKFIT
  Basis Set: CC-PVDZ
    Blend: CC-PVDZ
  Basis Set: (CC-PVDZ AUX)
    Blend: CC-PVDZ-JKFIT + DEF2-UNIVERSAL-JKFIT
  @DF-UKS Final Energy:  -141.60058807740256
    Total Energy =                       -141.6005880774025627
  Basis Set: CC-PVDZ
    Blend: CC-PVDZ
  Basis Set: (CC-PVDZ AUX)
    Blend: CC-PVDZ-JKFIT + DEF2-UNIVERSAL-JKFIT
  Charge       = 1
  Multiplicity = 6
  Basis Set: CC-PVDZ
    Blend: CC-PVDZ
  Basis Set: (CC-PVDZ AUX)
    Blend: CC-PVDZ-JKFIT + DEF2-UNIVERSAL-JKFIT

    Orbital Energies [Eh]
    ---------------------

    Alpha Occupied:

       1A1   -32.579431     2A1    -4.238633     3A1    -2.785316
       1B1    -1.929994     1B2    -1.929994     4A1    -1.814025
       5A1    -0.507617     2B1    -0.313882     2B2    -0.313882

    Alpha Virtual:

       6A1    -0.239393     7A1    -0.122782     3B2     0.009889
       3B1     0.009889     8A1     0.067287     4B2     0.187168
       4B1     0.187168     1A2     0.275952     9A1     0.275952
      10A1     0.283799     5B1     0.515585     5B2     0.515585
      11A1     0.576143    12A1     1.304180    13A1     3.325029
       2A2     3.325273     6B1     3.420806     6B2     3.420806
      14A1     3.472829

    Beta Occupied:

       1A1   -32.488717     2A1    -4.218948     3A1    -2.552112
       4A1    -1.724907

    Beta Virtual:

       1B1    -1.488876     1B2    -1.488876     5A1    -0.329123
       6A1    -0.198510     2B1    -0.154073     2B2    -0.154073
       7A1    -0.054007     3B1     0.079139     3B2     0.079139
       8A1     0.094616     4B2     0.278859     4B1     0.278859
       9A1     0.349549     1A2     0.403212    10A1     0.403230
      11A1     0.622110     5B1     0.625618     5B2     0.625618
      12A1     1.399375     6B1     3.557924     6B2     3.557924
      13A1     3.582660     2A2     3.582900    14A1     3.593393

    Final Occupation by Irrep:
             A1    A2    B1    B2
    DOCC [     4,    0,    0,    0 ]
    SOCC [     1,    0,    2,    2 ]
    NA   [     5,    0,    2,    2 ]
    NB   [     4,    0,    0,    0 ]

  @DF-UKS Final Energy:  -141.60058820446199

   => Energetics <=

    Nuclear Repulsion Energy =             10.1678197758760849
    One-Electron Energy =                -207.7848693543832610
    Two-Electron Energy =                  67.6553589911869295
    DFT Exchange-Correlation Energy =     -11.6388976171417315
    Empirical Dispersion Energy =           0.0000000000000000
    VV10 Nonlocal Energy =                  0.0000000000000000
    Total Energy =                       -141.6005882044619568

  UHF NO Occupations:
  HONO-2 :    1 B2 1.0000000
  HONO-1 :    2 B2 1.0000000
  HONO-0 :    5 A1 1.0000000
  LUNO+0 :    6 A1 0.0005148
  LUNO+1 :    7 A1 0.0001375
  LUNO+2 :    8 A1 0.0000010
  LUNO+3 :    9 A1 0.0000000

Computation Completed

Properties will be evaluated at   0.000000,   0.000000,   0.000000 [a0]

Properties computed using the SCF density matrix

 Multipole Moments:

 ------------------------------------------------------------------------------------
     Multipole            Electronic (a.u.)      Nuclear  (a.u.)        Total (a.u.)
 ------------------------------------------------------------------------------------

 L = 1.  Multiply by 2.5417464519 to convert [e a0] to [Debye]
 Dipole X            :          0.0000000            0.0000000            0.0000000
 Dipole Y            :          0.0000000            0.0000000            0.0000000
 Dipole Z            :         -1.5760477           -1.3769543           -2.9530020
 Magnitude           :                                                    2.9530020

 ------------------------------------------------------------------------------------

*** tstop() called on Joses-MacBook-Pro-2.local at Thu Jul 17 13:20:29 2025
Module time:
	user time   =       1.03 seconds =       0.02 minutes
	system time =       3.49 seconds =       0.06 minutes
	total time  =          1 seconds =       0.02 minutes
Total time:
	user time   =      23.37 seconds =       0.39 minutes
	system time =      55.35 seconds =       0.92 minutes
	total time  =          8 seconds =       0.13 minutes

*** tstart() called on Joses-MacBook-Pro-2.local
*** at Thu Jul 17 13:20:29 2025

         ------------------------------------------------------------
                                   SCF GRAD
                          Rob Parrish, Justin Turney,
                       Andy Simmonett, and Alex Sokolov
         ------------------------------------------------------------

  ==> Geometry <==

    Molecular point group: c2v
    Full point group: C_inf_v

    Geometry (in Angstrom), charge = 1, multiplicity = 6:

       Center              X                  Y                   Z               Mass
    ------------   -----------------  -----------------  -----------------  -----------------
         BE           0.000000000000     0.000000000000     1.434933784775     9.012183065000
         NE           0.000000000000     0.000000000000    -0.646838797094    19.992440176200

  Nuclear repulsion =   10.167819775876085

  ==> Basis Set <==

  Basis Set: CC-PVDZ
    Blend: CC-PVDZ
    Number of shells: 12
    Number of basis functions: 28
    Number of Cartesian functions: 30
    Spherical Harmonics?: true
    Max angular momentum: 2

  ==> DFJKGrad: Density-Fitted SCF Gradients <==

    Gradient:                    1
    J tasked:                  Yes
    K tasked:                  Yes
    wK tasked:                  No
    OpenMP threads:              1
    Integrals threads:           1
    Memory [MiB]:              375
    Schwarz Cutoff:          1E-12
    Fitting Condition:       1E-10

   => Auxiliary Basis Set <=

  Basis Set: (CC-PVDZ AUX)
    Blend: CC-PVDZ-JKFIT + DEF2-UNIVERSAL-JKFIT
    Number of shells: 41
    Number of basis functions: 121
    Number of Cartesian functions: 141
    Spherical Harmonics?: true
    Max angular momentum: 3

  ==> DFT Potential <==

   => LibXC <=

    Version 6.2.2
    S. Lehtola, C. Steigemann, M. J.T. Oliveira, and M. A.L. Marques.,  SoftwareX 7, 1â€“5 (2018) (10.1016/j.softx.2017.11.002)

   => Composite Functional: B3LYP <=

    B3LYP Hyb-GGA Exchange-Correlation Functional

    P. J. Stephens, F. J. Devlin, C. F. Chabalowski, and M. J. Frisch.,  J. Phys. Chem. 98, 11623 (1994) (10.1021/j100096a001)

    Deriv               =              1
    GGA                 =           TRUE
    Meta                =          FALSE

    Exchange Hybrid     =           TRUE
    MP2 Hybrid          =          FALSE

   => Exchange Functionals <=

    0.0800   Slater exchange
    0.7200         Becke 88

   => Exact (HF) Exchange <=

    0.2000               HF

   => Correlation Functionals <=

    0.1900   Vosko, Wilk & Nusair (VWN5_RPA)
    0.8100   Lee, Yang & Parr

   => LibXC Density Thresholds  <==

    XC_HYB_GGA_XC_B3LYP:  1.00E-15

   => Molecular Quadrature <=

    Radial Scheme          =       TREUTLER
    Pruning Scheme         =           NONE
    Nuclear Scheme         =       TREUTLER

    Blocking Scheme        =         OCTREE
    BS radius alpha        =              1
    Pruning alpha          =              1
    Radial Points          =             75
    Spherical Points       =            302
    Total Points           =          43606
    Total Blocks           =            401
    Max Points             =            255
    Max Functions          =             28
    Weights Tolerance      =       1.00E-15

  -Total Gradient:
     Atom            X                  Y                   Z
    ------   -----------------  -----------------  -----------------
       1        0.000000000000     0.000000000000    -0.000044008148
       2       -0.000000000000     0.000000000000     0.000005905551

*** tstop() called on Joses-MacBook-Pro-2.local at Thu Jul 17 13:20:29 2025
Module time:
	user time   =       0.33 seconds =       0.01 minutes
	system time =       1.31 seconds =       0.02 minutes
	total time  =          0 seconds =       0.00 minutes
Total time:
	user time   =      23.70 seconds =       0.39 minutes
	system time =      56.66 seconds =       0.94 minutes
	total time  =          8 seconds =       0.13 minutes

    			-----------------------------------------

    			 OPTKING 3.0: for geometry optimizations

    			     By R.A. King, Bethel University

    			        with contributions from

    			    A.V. Copan, J. Cayton, A. Heide

    			-----------------------------------------

	                            ===> Fragment 1 <==

	 Z (Atomic Numbers)          Masses                          Geom
	       4.000000             9.012183          0.00000000  0.00000000  2.71163186
	      10.000000            19.992440          0.00000000  0.00000000 -1.22234817

	 - Coordinate -           - BOHR/RAD -       - ANG/DEG -
	 R(1,2)           =         3.933980           2.081773

	        --- Internal Coordinate Step in ANG or DEG, aJ/ANG or AJ/DEG ---
	-------------------------------------------------------------------------------
	           Coordinate      Previous         Force          Change          New
	           ----------      --------        ------          ------        ------
	               R(1,2)       2.08177        0.00021        0.00012       2.08190
	-------------------------------------------------------------------------------

	                                 ==> Convergence Check <==

	Measures of convergence in internal coordinates in au.

	Criteria marked as inactive (o), active & met (*), and active & unmet ( ).

	----------------------------------------------------------------------------------------------
	   Step    Total Energy     Delta E     Max Force     RMS Force      Max Disp      RMS Disp
	----------------------------------------------------------------------------------------------
	  Convergence Criteria     1.00e-06 *    3.00e-04 *             o    1.20e-03 *             o
	----------------------------------------------------------------------------------------------
	    10    -141.60058820   -1.27e-07 *    2.50e-05 *    2.50e-05 o    2.34e-04 *    2.34e-04 o  ~
	----------------------------------------------------------------------------------------------

Next Geometry in Ang
	Fragment 1 (Ang)

	   Be   0.0000000000   0.0000000000   1.4349957878
	   Ne   0.0000000000   0.0000000000  -0.6469008002

    Final optimized geometry and variables:
    Molecular point group: c2v
    Full point group: C_inf_v

    Geometry (in Angstrom), charge = 1, multiplicity = 6:

    BE           0.000000000000     0.000000000000     1.434933784775
    NE           0.000000000000     0.000000000000    -0.646838797094

    Psi4 stopped on: Thursday, 17 July 2025 01:20PM
    Psi4 wall time for execution: 0:00:08.34

*** Psi4 exiting successfully. Buy a developer a beer!
