                               Psi4 1.9.1 release

  ==> Input File <==

--------------------------------------------------------------------------
molecule {
1 6
N   0.00000        0.60000        0.00000
P   0.00000       -0.60000        0.00000
}

set {
basis              cc-pvdz
reference          uks
maxiter            500
geom_maxiter       500
DAMPING_PERCENTAGE 1
guess              SAP
}

optimize('b3lyp')
--------------------------------------------------------------------------

    Molecular point group: c2v
  Charge       = 1
  Multiplicity = 6
  Basis Set: CC-PVDZ
    Blend: CC-PVDZ
  Basis Set: (CC-PVDZ AUX)
    Blend: CC-PVDZ-JKFIT
  @DF-UKS Final Energy:  -394.93677187234164
    Total Energy =                       -394.9367718723416374
 Dipole X            :          0.0000000            0.0000000            0.0000000
 Dipole Y            :          0.0000000            0.0000000            0.0000000
 Dipole Z            :         -0.0997304            0.3413456            0.2416152
 Magnitude           :                                                    0.2416152
    Molecular point group: c2v
  Basis Set: CC-PVDZ
    Blend: CC-PVDZ
  Basis Set: (CC-PVDZ AUX)
    Blend: CC-PVDZ-JKFIT
  Basis Set: CC-PVDZ
    Blend: CC-PVDZ
  Basis Set: (CC-PVDZ AUX)
    Blend: CC-PVDZ-JKFIT
  @DF-UKS Final Energy:  -395.15910846720658
    Total Energy =                       -395.1591084672065790
  Basis Set: CC-PVDZ
    Blend: CC-PVDZ
  Basis Set: (CC-PVDZ AUX)
    Blend: CC-PVDZ-JKFIT
  Basis Set: CC-PVDZ
    Blend: CC-PVDZ
  @DF-UKS Final Energy:  -395.33324119953585
    Total Energy =                       -395.3332411995358484
  @DF-UKS Final Energy:  -395.42986184874053
    Total Energy =                       -395.4298618487405292
  @DF-UKS Final Energy:  -395.47695661976604
    Total Energy =                       -395.4769566197660424
  @DF-UKS Final Energy:  -395.49989940999177
    Total Energy =                       -395.4998994099917127
  @DF-UKS Final Energy:  -395.51022919096954
    Total Energy =                       -395.5102291909695396
  @DF-UKS Final Energy:  -395.51424588545240
    Total Energy =                       -395.5142458854523966
  @DF-UKS Final Energy:  -395.51523110010703
    Total Energy =                       -395.5152311001070302
  @DF-UKS Final Energy:  -395.51558008427662
    Total Energy =                       -395.5155800842766212
  @DF-UKS Final Energy:  -395.51564047777885
    Total Energy =                       -395.5156404777788453
  @DF-UKS Final Energy:  -395.51565190611512
    Total Energy =                       -395.5156519061151812
  Basis Set: (CC-PVDZ AUX)
    Blend: CC-PVDZ-JKFIT
  Basis Set: CC-PVDZ
    Blend: CC-PVDZ
  Basis Set: (CC-PVDZ AUX)
    Blend: CC-PVDZ-JKFIT
  @DF-UKS Final Energy:  -395.51565448062388
    Total Energy =                       -395.5156544806238230
  Basis Set: CC-PVDZ
    Blend: CC-PVDZ
  Basis Set: (CC-PVDZ AUX)
    Blend: CC-PVDZ-JKFIT
  Charge       = 1
  Multiplicity = 6
  Basis Set: CC-PVDZ
    Blend: CC-PVDZ
  Basis Set: (CC-PVDZ AUX)
    Blend: CC-PVDZ-JKFIT

    Orbital Energies [Eh]
    ---------------------

    Alpha Occupied:

       1A1   -77.476851     2A1   -14.770510     3A1    -6.937895
       4A1    -5.103807     1B1    -5.099722     1B2    -5.099722
       5A1    -1.124595     6A1    -0.899927     7A1    -0.669950
       2B2    -0.657277     2B1    -0.657277     3B2    -0.543651
       3B1    -0.543651

    Alpha Virtual:

       8A1    -0.406152     9A1     0.075199    10A1     0.105937
       4B1     0.118957     4B2     0.118957     1A2     0.133009
      11A1     0.133010     5B2     0.142657     5B1     0.142657
      12A1     0.255051     6B2     0.443349     6B1     0.443349
      13A1     0.457377    14A1     0.831758     2A2     1.377419
      15A1     1.377430     7B2     1.392153     7B1     1.392153
      16A1     1.533144

    Beta Occupied:

       1A1   -77.466081     2A1   -14.714912     3A1    -6.926422
       4A1    -5.094787     1B2    -5.079205     1B1    -5.079205
       5A1    -0.948940     6A1    -0.787343

    Beta Virtual:

       7A1    -0.485173     2B2    -0.425058     2B1    -0.425058
       3B2    -0.360290     3B1    -0.360290     8A1    -0.307718
       9A1     0.110908    10A1     0.138695     4B2     0.185357
       4B1     0.185357     5B1     0.199079     5B2     0.199079
      11A1     0.234786     1A2     0.234786    12A1     0.314197
       6B2     0.539092     6B1     0.539092    13A1     0.546751
      14A1     0.910552     7B2     1.527561     7B1     1.527561
       2A2     1.527658    15A1     1.527670    16A1     1.658755

    Final Occupation by Irrep:
             A1    A2    B1    B2
    DOCC [     6,    0,    1,    1 ]
    SOCC [     1,    0,    2,    2 ]
    NA   [     7,    0,    3,    3 ]
    NB   [     6,    0,    1,    1 ]

  @DF-UKS Final Energy:  -395.51565467169854

   => Energetics <=

    Nuclear Repulsion Energy =             24.4798682871564495
    One-Electron Energy =                -587.2489598511034501
    Two-Electron Energy =                 191.1603909879358412
    DFT Exchange-Correlation Energy =     -23.9069540956873325
    Empirical Dispersion Energy =           0.0000000000000000
    VV10 Nonlocal Energy =                  0.0000000000000000
    Total Energy =                       -395.5156546716984849

  UHF NO Occupations:
  HONO-2 :    7 A1 1.0000000
  HONO-1 :    3 B2 1.0000000
  HONO-0 :    3 B1 1.0000000
  LUNO+0 :    8 A1 0.0012008
  LUNO+1 :    9 A1 0.0008235
  LUNO+2 :   10 A1 0.0000002
  LUNO+3 :   11 A1 0.0000001

Computation Completed

Properties will be evaluated at   0.000000,   0.000000,   0.000000 [a0]

Properties computed using the SCF density matrix

 Multipole Moments:

 ------------------------------------------------------------------------------------
     Multipole            Electronic (a.u.)      Nuclear  (a.u.)        Total (a.u.)
 ------------------------------------------------------------------------------------

 L = 1.  Multiply by 2.5417464519 to convert [e a0] to [Debye]
 Dipole X            :          0.0000000            0.0000000            0.0000000
 Dipole Y            :          0.0000000            0.0000000            0.0000000
 Dipole Z            :         -0.8657740            0.6456458           -0.2201281
 Magnitude           :                                                    0.2201281

 ------------------------------------------------------------------------------------

*** tstop() called on Joses-MacBook-Pro-2.local at Thu Jul 17 13:56:50 2025
Module time:
	user time   =       2.38 seconds =       0.04 minutes
	system time =       3.83 seconds =       0.06 minutes
	total time  =          1 seconds =       0.02 minutes
Total time:
	user time   =      46.04 seconds =       0.77 minutes
	system time =     114.62 seconds =       1.91 minutes
	total time  =         17 seconds =       0.28 minutes

*** tstart() called on Joses-MacBook-Pro-2.local
*** at Thu Jul 17 13:56:50 2025

         ------------------------------------------------------------
                                   SCF GRAD
                          Rob Parrish, Justin Turney,
                       Andy Simmonett, and Alex Sokolov
         ------------------------------------------------------------

  ==> Geometry <==

    Molecular point group: c2v
    Full point group: C_inf_v

    Geometry (in Angstrom), charge = 1, multiplicity = 6:

       Center              X                  Y                   Z               Mass
    ------------   -----------------  -----------------  -----------------  -----------------
         N            0.000000000000     0.000000000000     1.563098733628    14.003074004430
         P            0.000000000000     0.000000000000    -0.706668671514    30.973761998420

  Nuclear repulsion =   24.479868287156449

  ==> Basis Set <==

  Basis Set: CC-PVDZ
    Blend: CC-PVDZ
    Number of shells: 14
    Number of basis functions: 32
    Number of Cartesian functions: 34
    Spherical Harmonics?: true
    Max angular momentum: 2

  ==> DFJKGrad: Density-Fitted SCF Gradients <==

    Gradient:                    1
    J tasked:                  Yes
    K tasked:                  Yes
    wK tasked:                  No
    OpenMP threads:              1
    Integrals threads:           1
    Memory [MiB]:              375
    Schwarz Cutoff:          1E-12
    Fitting Condition:       1E-10

   => Auxiliary Basis Set <=

  Basis Set: (CC-PVDZ AUX)
    Blend: CC-PVDZ-JKFIT
    Number of shells: 60
    Number of basis functions: 182
    Number of Cartesian functions: 211
    Spherical Harmonics?: true
    Max angular momentum: 3

  ==> DFT Potential <==

   => LibXC <=

    Version 6.2.2
    S. Lehtola, C. Steigemann, M. J.T. Oliveira, and M. A.L. Marques.,  SoftwareX 7, 1â€“5 (2018) (10.1016/j.softx.2017.11.002)

   => Composite Functional: B3LYP <=

    B3LYP Hyb-GGA Exchange-Correlation Functional

    P. J. Stephens, F. J. Devlin, C. F. Chabalowski, and M. J. Frisch.,  J. Phys. Chem. 98, 11623 (1994) (10.1021/j100096a001)

    Deriv               =              1
    GGA                 =           TRUE
    Meta                =          FALSE

    Exchange Hybrid     =           TRUE
    MP2 Hybrid          =          FALSE

   => Exchange Functionals <=

    0.0800   Slater exchange
    0.7200         Becke 88

   => Exact (HF) Exchange <=

    0.2000               HF

   => Correlation Functionals <=

    0.1900   Vosko, Wilk & Nusair (VWN5_RPA)
    0.8100   Lee, Yang & Parr

   => LibXC Density Thresholds  <==

    XC_HYB_GGA_XC_B3LYP:  1.00E-15

   => Molecular Quadrature <=

    Radial Scheme          =       TREUTLER
    Pruning Scheme         =           NONE
    Nuclear Scheme         =       TREUTLER

    Blocking Scheme        =         OCTREE
    BS radius alpha        =              1
    Pruning alpha          =              1
    Radial Points          =             75
    Spherical Points       =            302
    Total Points           =          42224
    Total Blocks           =            380
    Max Points             =            256
    Max Functions          =             32
    Weights Tolerance      =       1.00E-15

  -Total Gradient:
     Atom            X                  Y                   Z
    ------   -----------------  -----------------  -----------------
       1        0.000000000000    -0.000000000000    -0.000027895664
       2        0.000000000000    -0.000000000000     0.000014016244

*** tstop() called on Joses-MacBook-Pro-2.local at Thu Jul 17 13:56:50 2025
Module time:
	user time   =       0.79 seconds =       0.01 minutes
	system time =       1.63 seconds =       0.03 minutes
	total time  =          0 seconds =       0.00 minutes
Total time:
	user time   =      46.83 seconds =       0.78 minutes
	system time =     116.26 seconds =       1.94 minutes
	total time  =         17 seconds =       0.28 minutes

    			-----------------------------------------

    			 OPTKING 3.0: for geometry optimizations

    			     By R.A. King, Bethel University

    			        with contributions from

    			    A.V. Copan, J. Cayton, A. Heide

    			-----------------------------------------

	                            ===> Fragment 1 <==

	 Z (Atomic Numbers)          Masses                          Geom
	       7.000000            14.003074          0.00000000  0.00000000  2.95382851
	      15.000000            30.973762          0.00000000  0.00000000 -1.33541025

	 - Coordinate -           - BOHR/RAD -       - ANG/DEG -
	 R(1,2)           =         4.289239           2.269767

	        --- Internal Coordinate Step in ANG or DEG, aJ/ANG or AJ/DEG ---
	-------------------------------------------------------------------------------
	           Coordinate      Previous         Force          Change          New
	           ----------      --------        ------          ------        ------
	               R(1,2)       2.26977        0.00017        0.00031       2.27008
	-------------------------------------------------------------------------------

	                                 ==> Convergence Check <==

	Measures of convergence in internal coordinates in au.

	Criteria marked as inactive (o), active & met (*), and active & unmet ( ).

	----------------------------------------------------------------------------------------------
	   Step    Total Energy     Delta E     Max Force     RMS Force      Max Disp      RMS Disp
	----------------------------------------------------------------------------------------------
	  Convergence Criteria     1.00e-06 *    3.00e-04 *             o    1.20e-03 *             o
	----------------------------------------------------------------------------------------------
	    14    -395.51565467   -1.91e-07 *    2.10e-05 *    2.10e-05 o    5.93e-04 *    5.93e-04 o  ~
	----------------------------------------------------------------------------------------------

Next Geometry in Ang
	Fragment 1 (Ang)

	    N   0.0000000000   0.0000000000   1.5632555102
	    P   0.0000000000   0.0000000000  -0.7068254481

    Final optimized geometry and variables:
    Molecular point group: c2v
    Full point group: C_inf_v

    Geometry (in Angstrom), charge = 1, multiplicity = 6:

    N            0.000000000000     0.000000000000     1.563098733628
    P            0.000000000000     0.000000000000    -0.706668671514

    Psi4 stopped on: Thursday, 17 July 2025 01:56PM
    Psi4 wall time for execution: 0:00:17.66

*** Psi4 exiting successfully. Buy a developer a beer!
