                               Psi4 1.9.1 release

  ==> Input File <==

--------------------------------------------------------------------------
molecule {
1 6
He   0.00000        0.60000        0.00000
Mg   0.00000       -0.60000        0.00000
}

set {
basis              cc-pvdz
reference          uks
maxiter            500
geom_maxiter       500
DAMPING_PERCENTAGE 1
guess              SAP
}

optimize('b3lyp')
--------------------------------------------------------------------------

    Molecular point group: c2v
  Charge       = 1
  Multiplicity = 6
  Basis Set: CC-PVDZ
    Blend: CC-PVDZ
  Basis Set: (CC-PVDZ AUX)
    Blend: DEF2-UNIVERSAL-JKFIT
  @DF-UKS Final Energy:  -199.55270182110391
    Total Energy =                       -199.5527018211039092
 Dipole X            :          0.0000000            0.0000000            0.0000000
 Dipole Y            :          0.0000000            0.0000000            0.0000000
 Dipole Z            :          0.8078683           -0.0049551            0.8029132
 Magnitude           :                                                    0.8029132
    Molecular point group: c2v
  Basis Set: CC-PVDZ
    Blend: CC-PVDZ
  Basis Set: (CC-PVDZ AUX)
    Blend: DEF2-UNIVERSAL-JKFIT
  Basis Set: CC-PVDZ
    Blend: CC-PVDZ
  Basis Set: (CC-PVDZ AUX)
    Blend: DEF2-UNIVERSAL-JKFIT
  @DF-UKS Final Energy:  -199.73915372064550
    Total Energy =                       -199.7391537206455041
  Basis Set: CC-PVDZ
    Blend: CC-PVDZ
  Basis Set: (CC-PVDZ AUX)
    Blend: DEF2-UNIVERSAL-JKFIT
  Basis Set: CC-PVDZ
    Blend: CC-PVDZ
  @DF-UKS Final Energy:  -199.83167628737428
    Total Energy =                       -199.8316762873743073
  @DF-UKS Final Energy:  -199.89041453240344
    Total Energy =                       -199.8904145324034403
  @DF-UKS Final Energy:  -199.92077159784256
    Total Energy =                       -199.9207715978425881
  @DF-UKS Final Energy:  -199.93666487667059
    Total Energy =                       -199.9366648766705907
  @DF-UKS Final Energy:  -199.94525725835416
    Total Energy =                       -199.9452572583541610
  @DF-UKS Final Energy:  -199.95018544336040
    Total Energy =                       -199.9501854433603967
  @DF-UKS Final Energy:  -199.95328577379746
    Total Energy =                       -199.9532857737974609
  @DF-UKS Final Energy:  -199.95547445348819
    Total Energy =                       -199.9554744534881934
  @DF-UKS Final Energy:  -199.95556614599849
    Total Energy =                       -199.9555661459984890
  @DF-UKS Final Energy:  -199.95745946094314
    Total Energy =                       -199.9574594609431699
  @DF-UKS Final Energy:  -199.95750560141141
    Total Energy =                       -199.9575056014114125
  @DF-UKS Final Energy:  -199.95895543232203
    Total Energy =                       -199.9589554323220568
  @DF-UKS Final Energy:  -199.95898285099483
    Total Energy =                       -199.9589828509948291
  @DF-UKS Final Energy:  -199.96009297635300
    Total Energy =                       -199.9600929763529962
  @DF-UKS Final Energy:  -199.96011031341925
    Total Energy =                       -199.9601103134192499
  @DF-UKS Final Energy:  -199.96012751137943
    Total Energy =                       -199.9601275113794259
  @DF-UKS Final Energy:  -199.96097101478438
    Total Energy =                       -199.9609710147843771
  @DF-UKS Final Energy:  -199.96098214529641
    Total Energy =                       -199.9609821452964127
  @DF-UKS Final Energy:  -199.96257415684386
    Total Energy =                       -199.9625741568438571
  @DF-UKS Final Energy:  -199.96257726636927
    Total Energy =                       -199.9625772663692373
  @DF-UKS Final Energy:  -199.96288191783788
    Total Energy =                       -199.9628819178379047
  @DF-UKS Final Energy:  -199.96288401863933
    Total Energy =                       -199.9628840186393290
  @DF-UKS Final Energy:  -199.96288611184056
    Total Energy =                       -199.9628861118405609
  @DF-UKS Final Energy:  -199.96288819854379
    Total Energy =                       -199.9628881985437943
  @DF-UKS Final Energy:  -199.96289027869921
    Total Energy =                       -199.9628902786992057
  @DF-UKS Final Energy:  -199.96289235242028
    Total Energy =                       -199.9628923524202833
  @DF-UKS Final Energy:  -199.96289441966564
    Total Energy =                       -199.9628944196656448
  @DF-UKS Final Energy:  -199.96313527936624
    Total Energy =                       -199.9631352793662131
  @DF-UKS Final Energy:  -199.96313669540211
    Total Energy =                       -199.9631366954021132
  @DF-UKS Final Energy:  -199.96313810716998
    Total Energy =                       -199.9631381071700389
  @DF-UKS Final Energy:  -199.96313951539420
    Total Energy =                       -199.9631395153942037
  @DF-UKS Final Energy:  -199.96314092003627
    Total Energy =                       -199.9631409200362668
  @DF-UKS Final Energy:  -199.96314232114861
    Total Energy =                       -199.9631423211486094
  @DF-UKS Final Energy:  -199.96314371879183
    Total Energy =                       -199.9631437187917982
  @DF-UKS Final Energy:  -199.96314511294983
    Total Energy =                       -199.9631451129498600
  @DF-UKS Final Energy:  -199.96314650363556
    Total Energy =                       -199.9631465036355848
  Basis Set: (CC-PVDZ AUX)
    Blend: DEF2-UNIVERSAL-JKFIT
  Basis Set: CC-PVDZ
    Blend: CC-PVDZ
  Basis Set: (CC-PVDZ AUX)
    Blend: DEF2-UNIVERSAL-JKFIT
  @DF-UKS Final Energy:  -199.96333939185502
    Total Energy =                       -199.9633393918550155
  Basis Set: CC-PVDZ
    Blend: CC-PVDZ
  Basis Set: (CC-PVDZ AUX)
    Blend: DEF2-UNIVERSAL-JKFIT
  Charge       = 1
  Multiplicity = 6
  Basis Set: CC-PVDZ
    Blend: CC-PVDZ
  Basis Set: (CC-PVDZ AUX)
    Blend: DEF2-UNIVERSAL-JKFIT

    Orbital Energies [Eh]
    ---------------------

    Alpha Occupied:

       1A1   -48.261531     2A1    -4.038367     1B1    -2.898758
       3A1    -2.761538     1B2    -2.756369     4A1    -1.632960
       5A1    -0.421476     2B1    -0.239145     2B2    -0.229148

    Alpha Virtual:

       6A1    -0.177355     7A1    -0.011662     3B1     0.025586
       3B2     0.029383     8A1     0.029701     9A1     0.131685
       1A2     0.132199     4B1     0.134864     4B2     0.141295
      10A1     0.149246    11A1     0.387649    12A1     1.323861
       5B1     1.323883     5B2     1.323884

    Beta Occupied:

       1A1   -48.204168     2A1    -3.896374     3A1    -2.705083
       1B2    -2.695249

    Beta Virtual:

       1B1    -2.419913     4A1    -0.971956     5A1    -0.261241
       6A1    -0.116806     2B2    -0.087724     2B1    -0.083537
       7A1     0.017290     8A1     0.050062     3B2     0.067820
       3B1     0.072359     9A1     0.219735     4B1     0.227426
       4B2     0.228066     1A2     0.251832    10A1     0.254888
      11A1     0.710346     5B1     1.670140     5B2     1.670277
      12A1     1.676001

    Final Occupation by Irrep:
             A1    A2    B1    B2
    DOCC [     3,    0,    0,    1 ]
    SOCC [     2,    0,    2,    1 ]
    NA   [     5,    0,    2,    2 ]
    NB   [     3,    0,    0,    1 ]

  @DF-UKS Final Energy:  -199.96334035883788

   => Energetics <=

    Nuclear Repulsion Energy =              1.5805590330188546
    One-Electron Energy =                -272.9860518548702544
    Two-Electron Energy =                  84.5216109553029327
    DFT Exchange-Correlation Energy =     -13.0794584922893975
    Empirical Dispersion Energy =           0.0000000000000000
    VV10 Nonlocal Energy =                  0.0000000000000000
    Total Energy =                       -199.9633403588378542

  UHF NO Occupations:
  HONO-2 :    1 B1 1.0000000
  HONO-1 :    2 B1 1.0000000
  HONO-0 :    5 A1 1.0000000
  LUNO+0 :    6 A1 0.0000038
  LUNO+1 :    7 A1 0.0000025
  LUNO+2 :    3 B2 0.0000006
  LUNO+3 :    8 A1 0.0000000

Computation Completed

Properties will be evaluated at   0.000000,   0.000000,   0.000000 [a0]

Properties computed using the SCF density matrix

 Multipole Moments:

 ------------------------------------------------------------------------------------
     Multipole            Electronic (a.u.)      Nuclear  (a.u.)        Total (a.u.)
 ------------------------------------------------------------------------------------

 L = 1.  Multiply by 2.5417464519 to convert [e a0] to [Debye]
 Dipole X            :          0.0000000            0.0000000            0.0000000
 Dipole Y            :          0.0000000            0.0000000            0.0000000
 Dipole Z            :         12.9096704           -0.0331796           12.8764908
 Magnitude           :                                                   12.8764908

 ------------------------------------------------------------------------------------

*** tstop() called on Joses-MacBook-Pro-2.local at Thu Jul 17 12:36:20 2025
Module time:
	user time   =       1.10 seconds =       0.02 minutes
	system time =       1.83 seconds =       0.03 minutes
	total time  =          0 seconds =       0.00 minutes
Total time:
	user time   =     122.97 seconds =       2.05 minutes
	system time =     220.94 seconds =       3.68 minutes
	total time  =        345 seconds =       5.75 minutes

*** tstart() called on Joses-MacBook-Pro-2.local
*** at Thu Jul 17 12:36:20 2025

         ------------------------------------------------------------
                                   SCF GRAD
                          Rob Parrish, Justin Turney,
                       Andy Simmonett, and Alex Sokolov
         ------------------------------------------------------------

  ==> Geometry <==

    Molecular point group: c2v
    Full point group: C_inf_v

    Geometry (in Angstrom), charge = 1, multiplicity = 6:

       Center              X                  Y                   Z               Mass
    ------------   -----------------  -----------------  -----------------  -----------------
         HE           0.000000000000     0.000000000000     6.886138847698     4.002603254130
         MG           0.000000000000     0.000000000000    -1.149152964101    23.985041697000

  Nuclear repulsion =    1.580559033018855

  ==> Basis Set <==

  Basis Set: CC-PVDZ
    Blend: CC-PVDZ
    Number of shells: 11
    Number of basis functions: 23
    Number of Cartesian functions: 24
    Spherical Harmonics?: true
    Max angular momentum: 2

  ==> DFJKGrad: Density-Fitted SCF Gradients <==

    Gradient:                    1
    J tasked:                  Yes
    K tasked:                  Yes
    wK tasked:                  No
    OpenMP threads:              1
    Integrals threads:           1
    Memory [MiB]:              375
    Schwarz Cutoff:          1E-12
    Fitting Condition:       1E-10

   => Auxiliary Basis Set <=

  Basis Set: (CC-PVDZ AUX)
    Blend: DEF2-UNIVERSAL-JKFIT
    Number of shells: 43
    Number of basis functions: 135
    Number of Cartesian functions: 162
    Spherical Harmonics?: true
    Max angular momentum: 4

  ==> DFT Potential <==

   => LibXC <=

    Version 6.2.2
    S. Lehtola, C. Steigemann, M. J.T. Oliveira, and M. A.L. Marques.,  SoftwareX 7, 1â€“5 (2018) (10.1016/j.softx.2017.11.002)

   => Composite Functional: B3LYP <=

    B3LYP Hyb-GGA Exchange-Correlation Functional

    P. J. Stephens, F. J. Devlin, C. F. Chabalowski, and M. J. Frisch.,  J. Phys. Chem. 98, 11623 (1994) (10.1021/j100096a001)

    Deriv               =              1
    GGA                 =           TRUE
    Meta                =          FALSE

    Exchange Hybrid     =           TRUE
    MP2 Hybrid          =          FALSE

   => Exchange Functionals <=

    0.0800   Slater exchange
    0.7200         Becke 88

   => Exact (HF) Exchange <=

    0.2000               HF

   => Correlation Functionals <=

    0.1900   Vosko, Wilk & Nusair (VWN5_RPA)
    0.8100   Lee, Yang & Parr

   => LibXC Density Thresholds  <==

    XC_HYB_GGA_XC_B3LYP:  1.00E-15

   => Molecular Quadrature <=

    Radial Scheme          =       TREUTLER
    Pruning Scheme         =           NONE
    Nuclear Scheme         =       TREUTLER

    Blocking Scheme        =         OCTREE
    BS radius alpha        =              1
    Pruning alpha          =              1
    Radial Points          =             75
    Spherical Points       =            302
    Total Points           =          43670
    Total Blocks           =            441
    Max Points             =            255
    Max Functions          =             23
    Weights Tolerance      =       1.00E-15

  -Total Gradient:
     Atom            X                  Y                   Z
    ------   -----------------  -----------------  -----------------
       1        0.000000000000     0.000000000000    -0.000196692160
       2       -0.000000000000    -0.000000000000     0.000195614564

*** tstop() called on Joses-MacBook-Pro-2.local at Thu Jul 17 12:36:21 2025
Module time:
	user time   =       0.82 seconds =       0.01 minutes
	system time =       1.07 seconds =       0.02 minutes
	total time  =          1 seconds =       0.02 minutes
Total time:
	user time   =     123.79 seconds =       2.06 minutes
	system time =     222.01 seconds =       3.70 minutes
	total time  =        346 seconds =       5.77 minutes

    			-----------------------------------------

    			 OPTKING 3.0: for geometry optimizations

    			     By R.A. King, Bethel University

    			        with contributions from

    			    A.V. Copan, J. Cayton, A. Heide

    			-----------------------------------------

	                            ===> Fragment 1 <==

	 Z (Atomic Numbers)          Masses                          Geom
	       2.000000             4.002603          0.00000000   0.00000000  13.01291648
	      12.000000            23.985042          0.00000000  0.00000000 -2.17158438

	 - Coordinate -           - BOHR/RAD -       - ANG/DEG -
	 R(1,2)           =        15.184501           8.035292

	        --- Internal Coordinate Step in ANG or DEG, aJ/ANG or AJ/DEG ---
	-------------------------------------------------------------------------------
	           Coordinate      Previous         Force          Change          New
	           ----------      --------        ------          ------        ------
	               R(1,2)       8.03529        0.00162        0.00262       8.03791
	-------------------------------------------------------------------------------

	                                 ==> Convergence Check <==

	Measures of convergence in internal coordinates in au.

	Criteria marked as inactive (o), active & met (*), and active & unmet ( ).

	----------------------------------------------------------------------------------------------
	   Step    Total Energy     Delta E     Max Force     RMS Force      Max Disp      RMS Disp
	----------------------------------------------------------------------------------------------
	  Convergence Criteria     1.00e-06 *    3.00e-04 *             o    1.20e-03 *             o
	----------------------------------------------------------------------------------------------
	    52    -199.96334036   -9.67e-07 *    1.96e-04 *    1.96e-04 o    4.95e-03      4.95e-03 o  ~
	----------------------------------------------------------------------------------------------

Next Geometry in Ang
	Fragment 1 (Ang)

	   He   0.0000000000   0.0000000000   6.8874473658
	   Mg   0.0000000000   0.0000000000  -1.1504614822

    Final optimized geometry and variables:
    Molecular point group: c2v
    Full point group: C_inf_v

    Geometry (in Angstrom), charge = 1, multiplicity = 6:

    HE           0.000000000000     0.000000000000     6.886138847698
    MG           0.000000000000     0.000000000000    -1.149152964101

    Psi4 stopped on: Thursday, 17 July 2025 12:36PM
    Psi4 wall time for execution: 0:05:45.85

*** Psi4 exiting successfully. Buy a developer a beer!
