                               Psi4 1.9.1 release

  ==> Input File <==

--------------------------------------------------------------------------
molecule {
1 6
C   0.00000        0.60000        0.00000
Mg   0.00000       -0.60000        0.00000
}

set {
basis              cc-pvdz
reference          uks
maxiter            500
geom_maxiter       500
DAMPING_PERCENTAGE 1
guess              SAP
}

optimize('b3lyp')
--------------------------------------------------------------------------

    Molecular point group: c2v
  Charge       = 1
  Multiplicity = 6
  Basis Set: CC-PVDZ
    Blend: CC-PVDZ
  Basis Set: (CC-PVDZ AUX)
    Blend: CC-PVDZ-JKFIT + DEF2-UNIVERSAL-JKFIT
  @DF-UKS Final Energy:  -236.86134181732388
    Total Energy =                       -236.8613418173238756
 Dipole X            :          0.0000000            0.0000000            0.0000000
 Dipole Y            :          0.0000000            0.0000000            0.0000000
 Dipole Z            :          0.5309098           -0.0056558            0.5252540
 Magnitude           :                                                    0.5252540
    Molecular point group: c2v
  Basis Set: CC-PVDZ
    Blend: CC-PVDZ
  Basis Set: (CC-PVDZ AUX)
    Blend: CC-PVDZ-JKFIT + DEF2-UNIVERSAL-JKFIT
  Basis Set: CC-PVDZ
    Blend: CC-PVDZ
  Basis Set: (CC-PVDZ AUX)
    Blend: CC-PVDZ-JKFIT + DEF2-UNIVERSAL-JKFIT
  @DF-UKS Final Energy:  -237.09562639693050
    Total Energy =                       -237.0956263969304985
  Basis Set: CC-PVDZ
    Blend: CC-PVDZ
  Basis Set: (CC-PVDZ AUX)
    Blend: CC-PVDZ-JKFIT + DEF2-UNIVERSAL-JKFIT
  Basis Set: CC-PVDZ
    Blend: CC-PVDZ
  @DF-UKS Final Energy:  -237.25729500221746
    Total Energy =                       -237.2572950022174609
  @DF-UKS Final Energy:  -237.35528303802388
    Total Energy =                       -237.3552830380238845
  @DF-UKS Final Energy:  -237.41199307706574
    Total Energy =                       -237.4119930770657163
  @DF-UKS Final Energy:  -237.44529630678406
    Total Energy =                       -237.4452963067840585
  @DF-UKS Final Energy:  -237.46435870506519
    Total Energy =                       -237.4643587050651945
  @DF-UKS Final Energy:  -237.47527970467888
    Total Energy =                       -237.4752797046788828
  @DF-UKS Final Energy:  -237.48140834595267
    Total Energy =                       -237.4814083459526728
  @DF-UKS Final Energy:  -237.48462691399263
    Total Energy =                       -237.4846269139925994
  @DF-UKS Final Energy:  -237.48615637224185
    Total Energy =                       -237.4861563722418794
  @DF-UKS Final Energy:  -237.48680153314112
    Total Energy =                       -237.4868015331411186
  @DF-UKS Final Energy:  -237.48703347301444
    Total Energy =                       -237.4870334730144350
  @DF-UKS Final Energy:  -237.48709709919581
    Total Energy =                       -237.4870970991958075
  @DF-UKS Final Energy:  -237.48710659383883
    Total Energy =                       -237.4871065938388028
  Basis Set: (CC-PVDZ AUX)
    Blend: CC-PVDZ-JKFIT + DEF2-UNIVERSAL-JKFIT
  Basis Set: CC-PVDZ
    Blend: CC-PVDZ
  Basis Set: (CC-PVDZ AUX)
    Blend: CC-PVDZ-JKFIT + DEF2-UNIVERSAL-JKFIT
  @DF-UKS Final Energy:  -237.48710850613639
    Total Energy =                       -237.4871085061363942
  Basis Set: CC-PVDZ
    Blend: CC-PVDZ
  Basis Set: (CC-PVDZ AUX)
    Blend: CC-PVDZ-JKFIT + DEF2-UNIVERSAL-JKFIT
  Charge       = 1
  Multiplicity = 6
  Basis Set: CC-PVDZ
    Blend: CC-PVDZ
  Basis Set: (CC-PVDZ AUX)
    Blend: CC-PVDZ-JKFIT + DEF2-UNIVERSAL-JKFIT

    Orbital Energies [Eh]
    ---------------------

    Alpha Occupied:

       1A1   -47.161623     2A1   -10.474172     3A1    -3.432264
       1B1    -2.175137     1B2    -2.175137     4A1    -2.175092
       5A1    -0.793024     6A1    -0.471864     2B2    -0.444282
       2B1    -0.444282     7A1    -0.436133

    Alpha Virtual:

       3B1    -0.251588     3B2    -0.251588     8A1    -0.242053
       9A1    -0.074587    10A1    -0.031277     4B1    -0.028505
       4B2    -0.028505    11A1     0.054093     5B1     0.056007
       5B2     0.056007     1A2     0.058452    12A1     0.058452
       6B2     0.301542     6B1     0.301542    13A1     0.337085
      14A1     0.486107     7B2     0.926096     7B1     0.926096
      15A1     0.928347     2A2     0.928382    16A1     0.933140

    Beta Occupied:

       1A1   -47.158210     2A1   -10.405075     3A1    -3.425988
       1B1    -2.170984     1B2    -2.170984     4A1    -2.170803

    Beta Virtual:

       5A1    -0.429416     6A1    -0.364022     7A1    -0.216426
       2B1    -0.212772     2B2    -0.212772     3B1    -0.132183
       3B2    -0.132183     8A1    -0.121152     9A1    -0.052521
      10A1    -0.009164     4B1    -0.008860     4B2    -0.008860
       5B1     0.098061     5B2     0.098061    11A1     0.099419
       1A2     0.099421    12A1     0.109374     6B1     0.435873
       6B2     0.435873    13A1     0.469569    14A1     0.627422
       7B1     1.161549     7B2     1.161549    15A1     1.164515
       2A2     1.164582    16A1     1.167955

    Final Occupation by Irrep:
             A1    A2    B1    B2
    DOCC [     4,    0,    1,    1 ]
    SOCC [     3,    0,    1,    1 ]
    NA   [     7,    0,    2,    2 ]
    NB   [     4,    0,    1,    1 ]

  @DF-UKS Final Energy:  -237.48710866525064

   => Energetics <=

    Nuclear Repulsion Energy =             10.6421131554500814
    One-Electron Energy =                -346.1375390516690231
    Two-Electron Energy =                 115.3981407517524360
    DFT Exchange-Correlation Energy =     -17.3898235207841516
    Empirical Dispersion Energy =           0.0000000000000000
    VV10 Nonlocal Energy =                  0.0000000000000000
    Total Energy =                       -237.4871086652506449

  UHF NO Occupations:
  HONO-2 :    2 B2 1.0000000
  HONO-1 :    6 A1 1.0000000
  HONO-0 :    7 A1 1.0000000
  LUNO+0 :    3 B2 0.0000015
  LUNO+1 :    3 B1 0.0000015
  LUNO+2 :    8 A1 0.0000014
  LUNO+3 :    9 A1 0.0000012

Computation Completed

Properties will be evaluated at   0.000000,   0.000000,   0.000000 [a0]

Properties computed using the SCF density matrix

 Multipole Moments:

 ------------------------------------------------------------------------------------
     Multipole            Electronic (a.u.)      Nuclear  (a.u.)        Total (a.u.)
 ------------------------------------------------------------------------------------

 L = 1.  Multiply by 2.5417464519 to convert [e a0] to [Debye]
 Dipole X            :          0.0000000            0.0000000            0.0000000
 Dipole Y            :          0.0000000            0.0000000            0.0000000
 Dipole Z            :         -1.8640901           -0.0168739           -1.8809640
 Magnitude           :                                                    1.8809640

 ------------------------------------------------------------------------------------

*** tstop() called on Joses-MacBook-Pro-2.local at Thu Jul 17 13:43:49 2025
Module time:
	user time   =       2.27 seconds =       0.04 minutes
	system time =       2.14 seconds =       0.04 minutes
	total time  =          0 seconds =       0.00 minutes
Total time:
	user time   =      64.46 seconds =       1.07 minutes
	system time =      91.75 seconds =       1.53 minutes
	total time  =         15 seconds =       0.25 minutes

*** tstart() called on Joses-MacBook-Pro-2.local
*** at Thu Jul 17 13:43:49 2025

         ------------------------------------------------------------
                                   SCF GRAD
                          Rob Parrish, Justin Turney,
                       Andy Simmonett, and Alex Sokolov
         ------------------------------------------------------------

  ==> Geometry <==

    Molecular point group: c2v
    Full point group: C_inf_v

    Geometry (in Angstrom), charge = 1, multiplicity = 6:

       Center              X                  Y                   Z               Mass
    ------------   -----------------  -----------------  -----------------  -----------------
         C            0.000000000000     0.000000000000     2.386295511577    12.000000000000
         MG           0.000000000000     0.000000000000    -1.193891863966    23.985041697000

  Nuclear repulsion =   10.642113155450081

  ==> Basis Set <==

  Basis Set: CC-PVDZ
    Blend: CC-PVDZ
    Number of shells: 14
    Number of basis functions: 32
    Number of Cartesian functions: 34
    Spherical Harmonics?: true
    Max angular momentum: 2

  ==> DFJKGrad: Density-Fitted SCF Gradients <==

    Gradient:                    1
    J tasked:                  Yes
    K tasked:                  Yes
    wK tasked:                  No
    OpenMP threads:              1
    Integrals threads:           1
    Memory [MiB]:              375
    Schwarz Cutoff:          1E-12
    Fitting Condition:       1E-10

   => Auxiliary Basis Set <=

  Basis Set: (CC-PVDZ AUX)
    Blend: CC-PVDZ-JKFIT + DEF2-UNIVERSAL-JKFIT
    Number of shells: 58
    Number of basis functions: 182
    Number of Cartesian functions: 218
    Spherical Harmonics?: true
    Max angular momentum: 4

  ==> DFT Potential <==

   => LibXC <=

    Version 6.2.2
    S. Lehtola, C. Steigemann, M. J.T. Oliveira, and M. A.L. Marques.,  SoftwareX 7, 1â€“5 (2018) (10.1016/j.softx.2017.11.002)

   => Composite Functional: B3LYP <=

    B3LYP Hyb-GGA Exchange-Correlation Functional

    P. J. Stephens, F. J. Devlin, C. F. Chabalowski, and M. J. Frisch.,  J. Phys. Chem. 98, 11623 (1994) (10.1021/j100096a001)

    Deriv               =              1
    GGA                 =           TRUE
    Meta                =          FALSE

    Exchange Hybrid     =           TRUE
    MP2 Hybrid          =          FALSE

   => Exchange Functionals <=

    0.0800   Slater exchange
    0.7200         Becke 88

   => Exact (HF) Exchange <=

    0.2000               HF

   => Correlation Functionals <=

    0.1900   Vosko, Wilk & Nusair (VWN5_RPA)
    0.8100   Lee, Yang & Parr

   => LibXC Density Thresholds  <==

    XC_HYB_GGA_XC_B3LYP:  1.00E-15

   => Molecular Quadrature <=

    Radial Scheme          =       TREUTLER
    Pruning Scheme         =           NONE
    Nuclear Scheme         =       TREUTLER

    Blocking Scheme        =         OCTREE
    BS radius alpha        =              1
    Pruning alpha          =              1
    Radial Points          =             75
    Spherical Points       =            302
    Total Points           =          43563
    Total Blocks           =            417
    Max Points             =            251
    Max Functions          =             32
    Weights Tolerance      =       1.00E-15

  -Total Gradient:
     Atom            X                  Y                   Z
    ------   -----------------  -----------------  -----------------
       1        0.000000000000    -0.000000000000     0.000001344499
       2        0.000000000000    -0.000000000000     0.000010106240

*** tstop() called on Joses-MacBook-Pro-2.local at Thu Jul 17 13:43:49 2025
Module time:
	user time   =       0.79 seconds =       0.01 minutes
	system time =       1.86 seconds =       0.03 minutes
	total time  =          0 seconds =       0.00 minutes
Total time:
	user time   =      65.25 seconds =       1.09 minutes
	system time =      93.62 seconds =       1.56 minutes
	total time  =         15 seconds =       0.25 minutes

    			-----------------------------------------

    			 OPTKING 3.0: for geometry optimizations

    			     By R.A. King, Bethel University

    			        with contributions from

    			    A.V. Copan, J. Cayton, A. Heide

    			-----------------------------------------

	                            ===> Fragment 1 <==

	 Z (Atomic Numbers)          Masses                          Geom
	       6.000000            12.000000          0.00000000  0.00000000  4.50944497
	      12.000000            23.985042          0.00000000  0.00000000 -2.25612865

	 - Coordinate -           - BOHR/RAD -       - ANG/DEG -
	 R(1,2)           =         6.765574           3.580187

	        --- Internal Coordinate Step in ANG or DEG, aJ/ANG or AJ/DEG ---
	-------------------------------------------------------------------------------
	           Coordinate      Previous         Force          Change          New
	           ----------      --------        ------          ------        ------
	               R(1,2)       3.58019        0.00004        0.00133       3.58152
	-------------------------------------------------------------------------------

	                                 ==> Convergence Check <==

	Measures of convergence in internal coordinates in au.

	Criteria marked as inactive (o), active & met (*), and active & unmet ( ).

	----------------------------------------------------------------------------------------------
	   Step    Total Energy     Delta E     Max Force     RMS Force      Max Disp      RMS Disp
	----------------------------------------------------------------------------------------------
	  Convergence Criteria     1.00e-06 *    3.00e-04 *             o    1.20e-03 *             o
	----------------------------------------------------------------------------------------------
	    17    -237.48710867   -1.59e-07 *    4.38e-06 *    4.38e-06 o    2.52e-03      2.52e-03 o  ~
	----------------------------------------------------------------------------------------------

Next Geometry in Ang
	Fragment 1 (Ang)

	    C   0.0000000000   0.0000000000   2.3869612897
	   Mg   0.0000000000   0.0000000000  -1.1945576421

    Final optimized geometry and variables:
    Molecular point group: c2v
    Full point group: C_inf_v

    Geometry (in Angstrom), charge = 1, multiplicity = 6:

    C            0.000000000000     0.000000000000     2.386295511577
    MG           0.000000000000     0.000000000000    -1.193891863966

    Psi4 stopped on: Thursday, 17 July 2025 01:43PM
    Psi4 wall time for execution: 0:00:16.44

*** Psi4 exiting successfully. Buy a developer a beer!
