                               Psi4 1.9.1 release

  ==> Input File <==

--------------------------------------------------------------------------
molecule {
1 6
C   0.00000        0.60000        0.00000
S   0.00000       -0.60000        0.00000
}

set {
basis              cc-pvdz
reference          uks
maxiter            500
geom_maxiter       500
DAMPING_PERCENTAGE 1
guess              SAP
}

optimize('b3lyp')
--------------------------------------------------------------------------

    Molecular point group: c2v
  Charge       = 1
  Multiplicity = 6
  Basis Set: CC-PVDZ
    Blend: CC-PVDZ
  Basis Set: (CC-PVDZ AUX)
    Blend: CC-PVDZ-JKFIT
  @DF-UKS Final Energy:  -435.06538521139794
    Total Energy =                       -435.0653852113979383
 Dipole X            :          0.0000000            0.0000000            0.0000000
 Dipole Y            :          0.0000000            0.0000000            0.0000000
 Dipole Z            :          0.4810205           -0.0086419            0.4723787
 Magnitude           :                                                    0.4723787
    Molecular point group: c2v
  Basis Set: CC-PVDZ
    Blend: CC-PVDZ
  Basis Set: (CC-PVDZ AUX)
    Blend: CC-PVDZ-JKFIT
  Basis Set: CC-PVDZ
    Blend: CC-PVDZ
  Basis Set: (CC-PVDZ AUX)
    Blend: CC-PVDZ-JKFIT
  @DF-UKS Final Energy:  -435.39110576070624
    Total Energy =                       -435.3911057607062389
  Basis Set: CC-PVDZ
    Blend: CC-PVDZ
  Basis Set: (CC-PVDZ AUX)
    Blend: CC-PVDZ-JKFIT
  Basis Set: CC-PVDZ
    Blend: CC-PVDZ
  @DF-UKS Final Energy:  -435.51416880156194
    Total Energy =                       -435.5141688015619366
  @DF-UKS Final Energy:  -435.57423909635418
    Total Energy =                       -435.5742390963541766
  @DF-UKS Final Energy:  -435.59361297371299
    Total Energy =                       -435.5936129737129932
  @DF-UKS Final Energy:  -435.60373173036726
    Total Energy =                       -435.6037317303672580
  @DF-UKS Final Energy:  -435.60813812011475
    Total Energy =                       -435.6081381201146883
  @DF-UKS Final Energy:  -435.60929685498195
    Total Energy =                       -435.6092968549818920
  @DF-UKS Final Energy:  -435.60966572538905
    Total Energy =                       -435.6096657253890498
  @DF-UKS Final Energy:  -435.60982230306576
    Total Energy =                       -435.6098223030657550
  @DF-UKS Final Energy:  -435.60987027159246
    Total Energy =                       -435.6098702715923991
  Basis Set: (CC-PVDZ AUX)
    Blend: CC-PVDZ-JKFIT
  Basis Set: CC-PVDZ
    Blend: CC-PVDZ
  Basis Set: (CC-PVDZ AUX)
    Blend: CC-PVDZ-JKFIT
  @DF-UKS Final Energy:  -435.60987892527544
    Total Energy =                       -435.6098789252754386
  Basis Set: CC-PVDZ
    Blend: CC-PVDZ
  Basis Set: (CC-PVDZ AUX)
    Blend: CC-PVDZ-JKFIT
  Charge       = 1
  Multiplicity = 6
  Basis Set: CC-PVDZ
    Blend: CC-PVDZ
  Basis Set: (CC-PVDZ AUX)
    Blend: CC-PVDZ-JKFIT

    Orbital Energies [Eh]
    ---------------------

    Alpha Occupied:

       1A1   -89.347563     2A1   -10.567316     3A1    -8.399524
       1B2    -6.365363     1B1    -6.365363     4A1    -6.359278
       5A1    -1.134602     6A1    -0.884403     2B2    -0.694121
       2B1    -0.694121     7A1    -0.665362     3B2    -0.519018
       3B1    -0.519018

    Alpha Virtual:

       8A1    -0.310953     9A1     0.111609     4B2     0.138783
       4B1     0.138783    10A1     0.140228     5B2     0.160403
       5B1     0.160403     1A2     0.167526    11A1     0.167527
      12A1     0.234451     6B2     0.290921     6B1     0.290921
      13A1     0.439289    14A1     0.570588     2A2     0.842724
      15A1     0.842725     7B2     0.955450     7B1     0.955450
      16A1     1.330180

    Beta Occupied:

       1A1   -89.332531     2A1   -10.522494     3A1    -8.384261
       4A1    -6.343751     1B2    -6.339081     1B1    -6.339081
       5A1    -1.021742     6A1    -0.756305

    Beta Virtual:

       2B2    -0.514997     2B1    -0.514997     7A1    -0.472134
       3B2    -0.294360     3B1    -0.294360     8A1    -0.225209
       9A1     0.165240    10A1     0.173172     4B1     0.207660
       4B2     0.207660     5B2     0.249430     5B1     0.249430
      11A1     0.284634     1A2     0.284634    12A1     0.304164
       6B2     0.361557     6B1     0.361557    13A1     0.496036
      14A1     0.637313     2A2     0.982150    15A1     0.982158
       7B2     1.063305     7B1     1.063305    16A1     1.421277

    Final Occupation by Irrep:
             A1    A2    B1    B2
    DOCC [     6,    0,    1,    1 ]
    SOCC [     1,    0,    2,    2 ]
    NA   [     7,    0,    3,    3 ]
    NB   [     6,    0,    1,    1 ]

  @DF-UKS Final Energy:  -435.60987956705577

   => Energetics <=

    Nuclear Repulsion Energy =             26.1095284300607631
    One-Electron Energy =                -644.2805429626865816
    Two-Electron Energy =                 207.2605523534560916
    DFT Exchange-Correlation Energy =     -24.6994173878860828
    Empirical Dispersion Energy =           0.0000000000000000
    VV10 Nonlocal Energy =                  0.0000000000000000
    Total Energy =                       -435.6098795670557706

  UHF NO Occupations:
  HONO-2 :    7 A1 1.0000000
  HONO-1 :    3 B1 1.0000000
  HONO-0 :    3 B2 1.0000000
  LUNO+0 :    8 A1 0.0015061
  LUNO+1 :    9 A1 0.0004662
  LUNO+2 :   10 A1 0.0000005
  LUNO+3 :   11 A1 0.0000000

Computation Completed

Properties will be evaluated at   0.000000,   0.000000,   0.000000 [a0]

Properties computed using the SCF density matrix

 Multipole Moments:

 ------------------------------------------------------------------------------------
     Multipole            Electronic (a.u.)      Nuclear  (a.u.)        Total (a.u.)
 ------------------------------------------------------------------------------------

 L = 1.  Multiply by 2.5417464519 to convert [e a0] to [Debye]
 Dipole X            :          0.0000000            0.0000000            0.0000000
 Dipole Y            :          0.0000000            0.0000000            0.0000000
 Dipole Z            :         -0.3183684           -0.0140120           -0.3323804
 Magnitude           :                                                    0.3323804

 ------------------------------------------------------------------------------------

*** tstop() called on Joses-MacBook-Pro-2.local at Thu Jul 17 13:46:26 2025
Module time:
	user time   =       2.44 seconds =       0.04 minutes
	system time =       4.57 seconds =       0.08 minutes
	total time  =          1 seconds =       0.02 minutes
Total time:
	user time   =      48.63 seconds =       0.81 minutes
	system time =      83.79 seconds =       1.40 minutes
	total time  =         13 seconds =       0.22 minutes

*** tstart() called on Joses-MacBook-Pro-2.local
*** at Thu Jul 17 13:46:26 2025

         ------------------------------------------------------------
                                   SCF GRAD
                          Rob Parrish, Justin Turney,
                       Andy Simmonett, and Alex Sokolov
         ------------------------------------------------------------

  ==> Geometry <==

    Molecular point group: c2v
    Full point group: C_inf_v

    Geometry (in Angstrom), charge = 1, multiplicity = 6:

       Center              X                  Y                   Z               Mass
    ------------   -----------------  -----------------  -----------------  -----------------
         C            0.000000000000     0.000000000000     1.414709228809    12.000000000000
         S            0.000000000000     0.000000000000    -0.530979386763    31.972071174400

  Nuclear repulsion =   26.109528430060763

  ==> Basis Set <==

  Basis Set: CC-PVDZ
    Blend: CC-PVDZ
    Number of shells: 14
    Number of basis functions: 32
    Number of Cartesian functions: 34
    Spherical Harmonics?: true
    Max angular momentum: 2

  ==> DFJKGrad: Density-Fitted SCF Gradients <==

    Gradient:                    1
    J tasked:                  Yes
    K tasked:                  Yes
    wK tasked:                  No
    OpenMP threads:              1
    Integrals threads:           1
    Memory [MiB]:              375
    Schwarz Cutoff:          1E-12
    Fitting Condition:       1E-10

   => Auxiliary Basis Set <=

  Basis Set: (CC-PVDZ AUX)
    Blend: CC-PVDZ-JKFIT
    Number of shells: 60
    Number of basis functions: 182
    Number of Cartesian functions: 211
    Spherical Harmonics?: true
    Max angular momentum: 3

  ==> DFT Potential <==

   => LibXC <=

    Version 6.2.2
    S. Lehtola, C. Steigemann, M. J.T. Oliveira, and M. A.L. Marques.,  SoftwareX 7, 1â€“5 (2018) (10.1016/j.softx.2017.11.002)

   => Composite Functional: B3LYP <=

    B3LYP Hyb-GGA Exchange-Correlation Functional

    P. J. Stephens, F. J. Devlin, C. F. Chabalowski, and M. J. Frisch.,  J. Phys. Chem. 98, 11623 (1994) (10.1021/j100096a001)

    Deriv               =              1
    GGA                 =           TRUE
    Meta                =          FALSE

    Exchange Hybrid     =           TRUE
    MP2 Hybrid          =          FALSE

   => Exchange Functionals <=

    0.0800   Slater exchange
    0.7200         Becke 88

   => Exact (HF) Exchange <=

    0.2000               HF

   => Correlation Functionals <=

    0.1900   Vosko, Wilk & Nusair (VWN5_RPA)
    0.8100   Lee, Yang & Parr

   => LibXC Density Thresholds  <==

    XC_HYB_GGA_XC_B3LYP:  1.00E-15

   => Molecular Quadrature <=

    Radial Scheme          =       TREUTLER
    Pruning Scheme         =           NONE
    Nuclear Scheme         =       TREUTLER

    Blocking Scheme        =         OCTREE
    BS radius alpha        =              1
    Pruning alpha          =              1
    Radial Points          =             75
    Spherical Points       =            302
    Total Points           =          41407
    Total Blocks           =            371
    Max Points             =            256
    Max Functions          =             32
    Weights Tolerance      =       1.00E-15

  -Total Gradient:
     Atom            X                  Y                   Z
    ------   -----------------  -----------------  -----------------
       1        0.000000000000     0.000000000000    -0.000066604821
       2       -0.000000000000     0.000000000000     0.000059634131

*** tstop() called on Joses-MacBook-Pro-2.local at Thu Jul 17 13:46:26 2025
Module time:
	user time   =       0.81 seconds =       0.01 minutes
	system time =       1.92 seconds =       0.03 minutes
	total time  =          0 seconds =       0.00 minutes
Total time:
	user time   =      49.45 seconds =       0.82 minutes
	system time =      85.71 seconds =       1.43 minutes
	total time  =         13 seconds =       0.22 minutes

    			-----------------------------------------

    			 OPTKING 3.0: for geometry optimizations

    			     By R.A. King, Bethel University

    			        with contributions from

    			    A.V. Copan, J. Cayton, A. Heide

    			-----------------------------------------

	                            ===> Fragment 1 <==

	 Z (Atomic Numbers)          Masses                          Geom
	       6.000000            12.000000          0.00000000  0.00000000  2.67341299
	      16.000000            31.972071          0.00000000  0.00000000 -1.00340562

	 - Coordinate -           - BOHR/RAD -       - ANG/DEG -
	 R(1,2)           =         3.676819           1.945689

	        --- Internal Coordinate Step in ANG or DEG, aJ/ANG or AJ/DEG ---
	-------------------------------------------------------------------------------
	           Coordinate      Previous         Force          Change          New
	           ----------      --------        ------          ------        ------
	               R(1,2)       1.94569        0.00052        0.00031       1.94600
	-------------------------------------------------------------------------------

	                                 ==> Convergence Check <==

	Measures of convergence in internal coordinates in au.

	Criteria marked as inactive (o), active & met (*), and active & unmet ( ).

	----------------------------------------------------------------------------------------------
	   Step    Total Energy     Delta E     Max Force     RMS Force      Max Disp      RMS Disp
	----------------------------------------------------------------------------------------------
	  Convergence Criteria     1.00e-06 *    3.00e-04 *             o    1.20e-03 *             o
	----------------------------------------------------------------------------------------------
	    13    -435.60987957   -6.42e-07 *    6.31e-05 *    6.31e-05 o    5.86e-04 *    5.86e-04 o  ~
	----------------------------------------------------------------------------------------------

Next Geometry in Ang
	Fragment 1 (Ang)

	    C   0.0000000000   0.0000000000   1.4148642091
	    S   0.0000000000   0.0000000000  -0.5311343671

    Final optimized geometry and variables:
    Molecular point group: c2v
    Full point group: C_inf_v

    Geometry (in Angstrom), charge = 1, multiplicity = 6:

    C            0.000000000000     0.000000000000     1.414709228809
    S            0.000000000000     0.000000000000    -0.530979386763

    Psi4 stopped on: Thursday, 17 July 2025 01:46PM
    Psi4 wall time for execution: 0:00:13.42

*** Psi4 exiting successfully. Buy a developer a beer!
