                               Psi4 1.9.1 release

  ==> Input File <==

--------------------------------------------------------------------------
molecule {
1 6
Al   0.00000        0.60000        0.00000
Cl   0.00000       -0.60000        0.00000
}

set {
basis              cc-pvdz
reference          uks
maxiter            500
geom_maxiter       500
DAMPING_PERCENTAGE 1
guess              SAP
}

optimize('b3lyp')
--------------------------------------------------------------------------

    Molecular point group: c2v
  Charge       = 1
  Multiplicity = 6
  Basis Set: CC-PVDZ
    Blend: CC-PVDZ
  Basis Set: (CC-PVDZ AUX)
    Blend: CC-PVDZ-JKFIT
  @DF-UKS Final Energy:  -700.37400807885876
    Total Energy =                       -700.3740080788587647
 Dipole X            :          0.0000000            0.0000000            0.0000000
 Dipole Y            :          0.0000000            0.0000000            0.0000000
 Dipole Z            :         -1.3470104           -0.1497521           -1.4967625
 Magnitude           :                                                    1.4967625
    Molecular point group: c2v
  Basis Set: CC-PVDZ
    Blend: CC-PVDZ
  Basis Set: (CC-PVDZ AUX)
    Blend: CC-PVDZ-JKFIT
  Basis Set: CC-PVDZ
    Blend: CC-PVDZ
  Basis Set: (CC-PVDZ AUX)
    Blend: CC-PVDZ-JKFIT
  @DF-UKS Final Energy:  -700.40718437518058
    Total Energy =                       -700.4071843751805773
  Basis Set: CC-PVDZ
    Blend: CC-PVDZ
  Basis Set: (CC-PVDZ AUX)
    Blend: CC-PVDZ-JKFIT
  Basis Set: CC-PVDZ
    Blend: CC-PVDZ
  @DF-UKS Final Energy:  -700.46990717895301
    Total Energy =                       -700.4699071789528944
  @DF-UKS Final Energy:  -700.68414162765521
    Total Energy =                       -700.6841416276553218
  @DF-UKS Final Energy:  -701.28616858629721
    Total Energy =                       -701.2861685862972081
  @DF-UKS Final Energy:  -701.51127144141083
    Total Energy =                       -701.5112714414108268
  @DF-UKS Final Energy:  -701.65981549474009
    Total Energy =                       -701.6598154947400872
  @DF-UKS Final Energy:  -701.75742239028307
    Total Energy =                       -701.7574223902830681
  @DF-UKS Final Energy:  -701.81950574207826
    Total Energy =                       -701.8195057420781495
  @DF-UKS Final Energy:  -701.85947888515318
    Total Energy =                       -701.8594788851531803
  @DF-UKS Final Energy:  -701.88358795796103
    Total Energy =                       -701.8835879579609127
  @DF-UKS Final Energy:  -701.89743248121044
    Total Energy =                       -701.8974324812104442
  @DF-UKS Final Energy:  -701.90539650756727
    Total Energy =                       -701.9053965075672750
  @DF-UKS Final Energy:  -701.91013887143561
    Total Energy =                       -701.9101388714357199
  @DF-UKS Final Energy:  -701.91022305045124
    Total Energy =                       -701.9102230504512363
  @DF-UKS Final Energy:  -701.91357590691780
    Total Energy =                       -701.9135759069177993
  @DF-UKS Final Energy:  -701.91360689054125
    Total Energy =                       -701.9136068905411321
  @DF-UKS Final Energy:  -701.91576599050904
    Total Energy =                       -701.9157659905089304
  @DF-UKS Final Energy:  -701.91577948557381
    Total Energy =                       -701.9157794855738075
  @DF-UKS Final Energy:  -701.91579290315713
    Total Energy =                       -701.9157929031571257
  @DF-UKS Final Energy:  -701.92088682649910
    Total Energy =                       -701.9208868264990997
  @DF-UKS Final Energy:  -701.92088740086990
    Total Energy =                       -701.9208874008699013
  @DF-UKS Final Energy:  -701.92088797484575
    Total Energy =                       -701.9208879748457548
  @DF-UKS Final Energy:  -701.92088854836857
    Total Energy =                       -701.9208885483686799
  @DF-UKS Final Energy:  -701.92088912146733
    Total Energy =                       -701.9208891214673258
  @DF-UKS Final Energy:  -701.92088969410236
    Total Energy =                       -701.9208896941024705
  @DF-UKS Final Energy:  -701.92089026633664
    Total Energy =                       -701.9208902663367553
  @DF-UKS Final Energy:  -701.92089083809719
    Total Energy =                       -701.9208908380971934
  @DF-UKS Final Energy:  -701.92089140944097
    Total Energy =                       -701.9208914094409693
  @DF-UKS Final Energy:  -701.92089198033955
    Total Energy =                       -701.9208919803395474
  @DF-UKS Final Energy:  -701.92089255081476
    Total Energy =                       -701.9208925508147559
  @DF-UKS Final Energy:  -701.92089312083328
    Total Energy =                       -701.9208931208333979
  @DF-UKS Final Energy:  -701.92089369043038
    Total Energy =                       -701.9208936904303755
  @DF-UKS Final Energy:  -701.92089425961569
    Total Energy =                       -701.9208942596156930
  @DF-UKS Final Energy:  -701.92089482834353
    Total Energy =                       -701.9208948283435348
  @DF-UKS Final Energy:  -701.92089539666108
    Total Energy =                       -701.9208953966611944
  @DF-UKS Final Energy:  -701.92089596452888
    Total Energy =                       -701.9208959645288814
  @DF-UKS Final Energy:  -701.92089653197888
    Total Energy =                       -701.9208965319788831
  Basis Set: (CC-PVDZ AUX)
    Blend: CC-PVDZ-JKFIT
  Basis Set: CC-PVDZ
    Blend: CC-PVDZ
  Basis Set: (CC-PVDZ AUX)
    Blend: CC-PVDZ-JKFIT
  @DF-UKS Final Energy:  -701.92118711570060
    Total Energy =                       -701.9211871157006044
  Basis Set: CC-PVDZ
    Blend: CC-PVDZ
  Basis Set: (CC-PVDZ AUX)
    Blend: CC-PVDZ-JKFIT
  Charge       = 1
  Multiplicity = 6
  Basis Set: CC-PVDZ
    Blend: CC-PVDZ
  Basis Set: (CC-PVDZ AUX)
    Blend: CC-PVDZ-JKFIT

    Orbital Energies [Eh]
    ---------------------

    Alpha Occupied:

       1A1  -102.081346     2A1   -56.194225     3A1    -9.987202
       4A1    -7.756623     1B2    -7.756619     1B1    -7.730139
       5A1    -4.274471     6A1    -2.830042     2B2    -2.825988
       2B1    -2.825987     7A1    -1.294156     8A1    -0.816606
       3B2    -0.816526     3B1    -0.757341     9A1    -0.444412
       4B2    -0.234097     4B1    -0.234078

    Alpha Virtual:

      10A1    -0.179612    11A1     0.067491     5B2     0.118229
       5B1     0.118263    12A1     0.122786    13A1     0.148873
       1A2     0.148877     6B2     0.152050     6B1     0.152063
       7B2     0.160002    14A1     0.160003    15A1     0.161445
       7B1     0.190256    16A1     0.206744     8B2     0.211315
      17A1     0.211320     8B1     0.256683     2A2     0.256725
      18A1     0.273601

    Beta Occupied:

       1A1  -102.066155     2A1   -56.185097     3A1    -9.972311
       4A1    -7.727516     1B2    -7.727509     1B1    -7.721256
       5A1    -4.261202     6A1    -2.822293     2B2    -2.810773
       2B1    -2.810771     7A1    -1.181483     3B1    -0.722925

    Beta Virtual:

       8A1    -0.624842     3B2    -0.624741     9A1    -0.282478
      10A1    -0.117761     4B2    -0.086347     4B1    -0.086322
      11A1     0.119938    12A1     0.154972     5B2     0.179961
       5B1     0.179993     6B1     0.202604    13A1     0.207410
       6B2     0.207461    14A1     0.232205     7B2     0.241260
       7B1     0.241273    15A1     0.245780    16A1     0.266672
       1A2     0.266682     8B1     0.325197     2A2     0.325243
      17A1     0.329016     8B2     0.339321    18A1     0.339324

    Final Occupation by Irrep:
             A1    A2    B1    B2
    DOCC [     7,    0,    3,    2 ]
    SOCC [     2,    0,    1,    2 ]
    NA   [     9,    0,    4,    4 ]
    NB   [     7,    0,    3,    2 ]

  @DF-UKS Final Energy:  -701.92118749327130

   => Energetics <=

    Nuclear Repulsion Energy =             15.9209727476901630
    One-Electron Energy =                -994.1934387330866230
    Two-Electron Energy =                 313.7593258786041588
    DFT Exchange-Correlation Energy =     -37.4080473864789482
    Empirical Dispersion Energy =           0.0000000000000000
    VV10 Nonlocal Energy =                  0.0000000000000000
    Total Energy =                       -701.9211874932713044

  UHF NO Occupations:
  HONO-2 :    8 A1 1.0000000
  HONO-1 :    9 A1 1.0000000
  HONO-0 :    4 B2 1.0000000
  LUNO+0 :   10 A1 0.0009946
  LUNO+1 :    5 B1 0.0001021
  LUNO+2 :   11 A1 0.0000009
  LUNO+3 :    5 B2 0.0000002

Computation Completed

Properties will be evaluated at   0.000000,   0.000000,   0.000000 [a0]

Properties computed using the SCF density matrix

 Multipole Moments:

 ------------------------------------------------------------------------------------
     Multipole            Electronic (a.u.)      Nuclear  (a.u.)        Total (a.u.)
 ------------------------------------------------------------------------------------

 L = 1.  Multiply by 2.5417464519 to convert [e a0] to [Debye]
 Dipole X            :          0.0000000            0.0000000            0.0000000
 Dipole Y            :          0.0000000            0.0000000            0.0000000
 Dipole Z            :         -4.9872278           -0.9166753           -5.9039031
 Magnitude           :                                                    5.9039031

 ------------------------------------------------------------------------------------

*** tstop() called on Joses-MacBook-Pro-2.local at Thu Jul 17 15:35:13 2025
Module time:
	user time   =       1.37 seconds =       0.02 minutes
	system time =       1.53 seconds =       0.03 minutes
	total time  =          0 seconds =       0.00 minutes
Total time:
	user time   =     726.61 seconds =      12.11 minutes
	system time =     354.29 seconds =       5.90 minutes
	total time  =        106 seconds =       1.77 minutes

*** tstart() called on Joses-MacBook-Pro-2.local
*** at Thu Jul 17 15:35:13 2025

         ------------------------------------------------------------
                                   SCF GRAD
                          Rob Parrish, Justin Turney,
                       Andy Simmonett, and Alex Sokolov
         ------------------------------------------------------------

  ==> Geometry <==

    Molecular point group: c2v
    Full point group: C_inf_v

    Geometry (in Angstrom), charge = 1, multiplicity = 6:

       Center              X                  Y                   Z               Mass
    ------------   -----------------  -----------------  -----------------  -----------------
         AL           0.000000000000     0.000000000000     4.146303971769    26.981538530000
         CL           0.000000000000     0.000000000000    -3.199237372433    34.968852682000

  Nuclear repulsion =   15.920972747690163

  ==> Basis Set <==

  Basis Set: CC-PVDZ
    Blend: CC-PVDZ
    Number of shells: 16
    Number of basis functions: 36
    Number of Cartesian functions: 38
    Spherical Harmonics?: true
    Max angular momentum: 2

  ==> DFJKGrad: Density-Fitted SCF Gradients <==

    Gradient:                    1
    J tasked:                  Yes
    K tasked:                  Yes
    wK tasked:                  No
    OpenMP threads:              1
    Integrals threads:           1
    Memory [MiB]:              375
    Schwarz Cutoff:          1E-12
    Fitting Condition:       1E-10

   => Auxiliary Basis Set <=

  Basis Set: (CC-PVDZ AUX)
    Blend: CC-PVDZ-JKFIT
    Number of shells: 72
    Number of basis functions: 224
    Number of Cartesian functions: 260
    Spherical Harmonics?: true
    Max angular momentum: 3

  ==> DFT Potential <==

   => LibXC <=

    Version 6.2.2
    S. Lehtola, C. Steigemann, M. J.T. Oliveira, and M. A.L. Marques.,  SoftwareX 7, 1â€“5 (2018) (10.1016/j.softx.2017.11.002)

   => Composite Functional: B3LYP <=

    B3LYP Hyb-GGA Exchange-Correlation Functional

    P. J. Stephens, F. J. Devlin, C. F. Chabalowski, and M. J. Frisch.,  J. Phys. Chem. 98, 11623 (1994) (10.1021/j100096a001)

    Deriv               =              1
    GGA                 =           TRUE
    Meta                =          FALSE

    Exchange Hybrid     =           TRUE
    MP2 Hybrid          =          FALSE

   => Exchange Functionals <=

    0.0800   Slater exchange
    0.7200         Becke 88

   => Exact (HF) Exchange <=

    0.2000               HF

   => Correlation Functionals <=

    0.1900   Vosko, Wilk & Nusair (VWN5_RPA)
    0.8100   Lee, Yang & Parr

   => LibXC Density Thresholds  <==

    XC_HYB_GGA_XC_B3LYP:  1.00E-15

   => Molecular Quadrature <=

    Radial Scheme          =       TREUTLER
    Pruning Scheme         =           NONE
    Nuclear Scheme         =       TREUTLER

    Blocking Scheme        =         OCTREE
    BS radius alpha        =              1
    Pruning alpha          =              1
    Radial Points          =             75
    Spherical Points       =            302
    Total Points           =          42925
    Total Blocks           =            457
    Max Points             =            253
    Max Functions          =             36
    Weights Tolerance      =       1.00E-15

  -Total Gradient:
     Atom            X                  Y                   Z
    ------   -----------------  -----------------  -----------------
       1        0.000000000000     0.000000000000    -0.000298163465
       2        0.000000000000     0.000000000000     0.000295655585

*** tstop() called on Joses-MacBook-Pro-2.local at Thu Jul 17 15:35:13 2025
Module time:
	user time   =       0.68 seconds =       0.01 minutes
	system time =       2.07 seconds =       0.03 minutes
	total time  =          0 seconds =       0.00 minutes
Total time:
	user time   =     727.29 seconds =      12.12 minutes
	system time =     356.37 seconds =       5.94 minutes
	total time  =        106 seconds =       1.77 minutes

    			-----------------------------------------

    			 OPTKING 3.0: for geometry optimizations

    			     By R.A. King, Bethel University

    			        with contributions from

    			    A.V. Copan, J. Cayton, A. Heide

    			-----------------------------------------

	                            ===> Fragment 1 <==

	 Z (Atomic Numbers)          Masses                          Geom
	      13.000000            26.981539          0.00000000  0.00000000  7.83537894
	      17.000000            34.968853          0.00000000  0.00000000 -6.04568244

	 - Coordinate -           - BOHR/RAD -       - ANG/DEG -
	 R(1,2)           =        13.881061           7.345541

	        --- Internal Coordinate Step in ANG or DEG, aJ/ANG or AJ/DEG ---
	-------------------------------------------------------------------------------
	           Coordinate      Previous         Force          Change          New
	           ----------      --------        ------          ------        ------
	               R(1,2)       7.34554        0.00245        0.00067       7.34622
	-------------------------------------------------------------------------------

	                                 ==> Convergence Check <==

	Measures of convergence in internal coordinates in au.

	Criteria marked as inactive (o), active & met (*), and active & unmet ( ).

	----------------------------------------------------------------------------------------------
	   Step    Total Energy     Delta E     Max Force     RMS Force      Max Disp      RMS Disp
	----------------------------------------------------------------------------------------------
	  Convergence Criteria     1.00e-06 *    3.00e-04 *             o    1.20e-03 *             o
	----------------------------------------------------------------------------------------------
	    88    -701.92118749   -3.78e-07 *    2.97e-04 *    2.97e-04 o    1.28e-03      1.28e-03 o  ~
	----------------------------------------------------------------------------------------------

Next Geometry in Ang
	Fragment 1 (Ang)

	   Al   0.0000000000   0.0000000000   4.1466414667
	   Cl   0.0000000000   0.0000000000  -3.1995748673

    Final optimized geometry and variables:
    Molecular point group: c2v
    Full point group: C_inf_v

    Geometry (in Angstrom), charge = 1, multiplicity = 6:

    AL           0.000000000000     0.000000000000     4.146303971769
    CL           0.000000000000     0.000000000000    -3.199237372433

    Psi4 stopped on: Thursday, 17 July 2025 03:35PM
    Psi4 wall time for execution: 0:01:47.52

*** Psi4 exiting successfully. Buy a developer a beer!
