                               Psi4 1.9.1 release

  ==> Input File <==

--------------------------------------------------------------------------
molecule {
1 6
F   0.00000        0.60000        0.00000
P   0.00000       -0.60000        0.00000
}

set {
basis              cc-pvdz
reference          uks
maxiter            500
geom_maxiter       500
DAMPING_PERCENTAGE 1
guess              SAP
}

optimize('b3lyp')
--------------------------------------------------------------------------

    Molecular point group: c2v
  Charge       = 1
  Multiplicity = 6
  Basis Set: CC-PVDZ
    Blend: CC-PVDZ
  Basis Set: (CC-PVDZ AUX)
    Blend: CC-PVDZ-JKFIT
  @DF-UKS Final Energy:  -439.77780318761648
    Total Energy =                       -439.7778031876164846
 Dipole X            :          0.0000000            0.0000000            0.0000000
 Dipole Y            :          0.0000000            0.0000000            0.0000000
 Dipole Z            :          0.7884446           -0.2819010            0.5065436
 Magnitude           :                                                    0.5065436
    Molecular point group: c2v
  Basis Set: CC-PVDZ
    Blend: CC-PVDZ
  Basis Set: (CC-PVDZ AUX)
    Blend: CC-PVDZ-JKFIT
  Basis Set: CC-PVDZ
    Blend: CC-PVDZ
  Basis Set: (CC-PVDZ AUX)
    Blend: CC-PVDZ-JKFIT
  @DF-UKS Final Energy:  -440.06160326946394
    Total Energy =                       -440.0616032694639443
  Basis Set: CC-PVDZ
    Blend: CC-PVDZ
  Basis Set: (CC-PVDZ AUX)
    Blend: CC-PVDZ-JKFIT
  Basis Set: CC-PVDZ
    Blend: CC-PVDZ
  @DF-UKS Final Energy:  -440.22911224886963
    Total Energy =                       -440.2291122488696260
  @DF-UKS Final Energy:  -440.33577159730703
    Total Energy =                       -440.3357715973070299
  @DF-UKS Final Energy:  -440.39803776280490
    Total Energy =                       -440.3980377628049041
  @DF-UKS Final Energy:  -440.42652422406485
    Total Energy =                       -440.4265242240649059
  @DF-UKS Final Energy:  -440.43926801340098
    Total Energy =                       -440.4392680134009765
  @DF-UKS Final Energy:  -440.44461101762988
    Total Energy =                       -440.4446110176299385
  @DF-UKS Final Energy:  -440.44661923137176
    Total Energy =                       -440.4466192313718125
  @DF-UKS Final Energy:  -440.44713141110930
    Total Energy =                       -440.4471314111092966
  @DF-UKS Final Energy:  -440.44733297826610
    Total Energy =                       -440.4473329782661040
  @DF-UKS Final Energy:  -440.44737562402679
    Total Energy =                       -440.4473756240267903
  @DF-UKS Final Energy:  -440.44738580592951
    Total Energy =                       -440.4473858059295139
  Basis Set: (CC-PVDZ AUX)
    Blend: CC-PVDZ-JKFIT
  Basis Set: CC-PVDZ
    Blend: CC-PVDZ
  Basis Set: (CC-PVDZ AUX)
    Blend: CC-PVDZ-JKFIT
  @DF-UKS Final Energy:  -440.44738883920843
    Total Energy =                       -440.4473888392084859
  Basis Set: CC-PVDZ
    Blend: CC-PVDZ
  Basis Set: (CC-PVDZ AUX)
    Blend: CC-PVDZ-JKFIT
  Charge       = 1
  Multiplicity = 6
  Basis Set: CC-PVDZ
    Blend: CC-PVDZ
  Basis Set: (CC-PVDZ AUX)
    Blend: CC-PVDZ-JKFIT

    Orbital Energies [Eh]
    ---------------------

    Alpha Occupied:

       1A1   -77.457504     2A1   -25.216312     3A1    -6.922817
       1B2    -5.086868     1B1    -5.086841     4A1    -5.086560
       5A1    -1.612688     2B2    -0.923176     6A1    -0.915293
       7A1    -0.867757     2B1    -0.830588     3B2    -0.547543
       3B1    -0.546912     8A1    -0.544510

    Alpha Virtual:

       9A1     0.083301    10A1     0.119284     4B2     0.130415
       4B1     0.131641     1A2     0.136931    11A1     0.136932
       5B2     0.146714     5B1     0.147714    12A1     0.164699
       6B2     0.721448     6B1     0.774126    13A1     0.835706
      14A1     1.228862    15A1     3.048055     7B2     3.051835
       2A2     3.082698     7B1     3.122055    16A1     3.129784

    Beta Occupied:

       1A1   -77.437601     2A1   -25.169417     3A1    -6.899296
       1B2    -5.058810     1B1    -5.058764     4A1    -5.058495
       5A1    -1.480964     2B1    -0.783809     6A1    -0.756350

    Beta Virtual:

       7A1    -0.666246     2B2    -0.602334     3B2    -0.359649
       3B1    -0.359357     8A1    -0.357341     9A1     0.138978
       4B2     0.206016     4B1     0.206318    10A1     0.215799
      11A1     0.247849     5B2     0.259129     5B1     0.259403
       1A2     0.266161    12A1     0.266162     6B1     0.798299
       6B2     0.834933    13A1     0.896380    14A1     1.295771
       7B1     3.177452    15A1     3.182831     2A2     3.186088
       7B2     3.194347    16A1     3.208245

    Final Occupation by Irrep:
             A1    A2    B1    B2
    DOCC [     6,    0,    2,    1 ]
    SOCC [     2,    0,    1,    2 ]
    NA   [     8,    0,    3,    3 ]
    NB   [     6,    0,    2,    1 ]

  @DF-UKS Final Energy:  -440.44738916713175

   => Energetics <=

    Nuclear Repulsion Energy =             26.8245176812232309
    One-Electron Energy =                -656.0913695378209241
    Two-Electron Energy =                 215.5939511124385604
    DFT Exchange-Correlation Energy =     -26.7744884229726487
    Empirical Dispersion Energy =           0.0000000000000000
    VV10 Nonlocal Energy =                  0.0000000000000000
    Total Energy =                       -440.4473891671317460

  UHF NO Occupations:
  HONO-2 :    7 A1 1.0000000
  HONO-1 :    8 A1 1.0000000
  HONO-0 :    3 B1 1.0000000
  LUNO+0 :    9 A1 0.0012640
  LUNO+1 :   10 A1 0.0003572
  LUNO+2 :    4 B1 0.0001268
  LUNO+3 :    4 B2 0.0000001

Computation Completed

Properties will be evaluated at   0.000000,   0.000000,   0.000000 [a0]

Properties computed using the SCF density matrix

 Multipole Moments:

 ------------------------------------------------------------------------------------
     Multipole            Electronic (a.u.)      Nuclear  (a.u.)        Total (a.u.)
 ------------------------------------------------------------------------------------

 L = 1.  Multiply by 2.5417464519 to convert [e a0] to [Debye]
 Dipole X            :          0.0000000            0.0000000            0.0000000
 Dipole Y            :          0.0000000            0.0000000            0.0000000
 Dipole Z            :          0.5904364           -0.6256312           -0.0351947
 Magnitude           :                                                    0.0351947

 ------------------------------------------------------------------------------------

*** tstop() called on Joses-MacBook-Pro-2.local at Thu Jul 17 14:29:37 2025
Module time:
	user time   =       3.70 seconds =       0.06 minutes
	system time =       2.69 seconds =       0.04 minutes
	total time  =          1 seconds =       0.02 minutes
Total time:
	user time   =      71.70 seconds =       1.20 minutes
	system time =      73.75 seconds =       1.23 minutes
	total time  =         14 seconds =       0.23 minutes

*** tstart() called on Joses-MacBook-Pro-2.local
*** at Thu Jul 17 14:29:37 2025

         ------------------------------------------------------------
                                   SCF GRAD
                          Rob Parrish, Justin Turney,
                       Andy Simmonett, and Alex Sokolov
         ------------------------------------------------------------

  ==> Geometry <==

    Molecular point group: c2v
    Full point group: C_inf_v

    Geometry (in Angstrom), charge = 1, multiplicity = 6:

       Center              X                  Y                   Z               Mass
    ------------   -----------------  -----------------  -----------------  -----------------
         F            0.000000000000     0.000000000000     1.650702350291    18.998403162730
         P            0.000000000000     0.000000000000    -1.012492727041    30.973761998420

  Nuclear repulsion =   26.824517681223231

  ==> Basis Set <==

  Basis Set: CC-PVDZ
    Blend: CC-PVDZ
    Number of shells: 14
    Number of basis functions: 32
    Number of Cartesian functions: 34
    Spherical Harmonics?: true
    Max angular momentum: 2

  ==> DFJKGrad: Density-Fitted SCF Gradients <==

    Gradient:                    1
    J tasked:                  Yes
    K tasked:                  Yes
    wK tasked:                  No
    OpenMP threads:              1
    Integrals threads:           1
    Memory [MiB]:              375
    Schwarz Cutoff:          1E-12
    Fitting Condition:       1E-10

   => Auxiliary Basis Set <=

  Basis Set: (CC-PVDZ AUX)
    Blend: CC-PVDZ-JKFIT
    Number of shells: 60
    Number of basis functions: 182
    Number of Cartesian functions: 211
    Spherical Harmonics?: true
    Max angular momentum: 3

  ==> DFT Potential <==

   => LibXC <=

    Version 6.2.2
    S. Lehtola, C. Steigemann, M. J.T. Oliveira, and M. A.L. Marques.,  SoftwareX 7, 1â€“5 (2018) (10.1016/j.softx.2017.11.002)

   => Composite Functional: B3LYP <=

    B3LYP Hyb-GGA Exchange-Correlation Functional

    P. J. Stephens, F. J. Devlin, C. F. Chabalowski, and M. J. Frisch.,  J. Phys. Chem. 98, 11623 (1994) (10.1021/j100096a001)

    Deriv               =              1
    GGA                 =           TRUE
    Meta                =          FALSE

    Exchange Hybrid     =           TRUE
    MP2 Hybrid          =          FALSE

   => Exchange Functionals <=

    0.0800   Slater exchange
    0.7200         Becke 88

   => Exact (HF) Exchange <=

    0.2000               HF

   => Correlation Functionals <=

    0.1900   Vosko, Wilk & Nusair (VWN5_RPA)
    0.8100   Lee, Yang & Parr

   => LibXC Density Thresholds  <==

    XC_HYB_GGA_XC_B3LYP:  1.00E-15

   => Molecular Quadrature <=

    Radial Scheme          =       TREUTLER
    Pruning Scheme         =           NONE
    Nuclear Scheme         =       TREUTLER

    Blocking Scheme        =         OCTREE
    BS radius alpha        =              1
    Pruning alpha          =              1
    Radial Points          =             75
    Spherical Points       =            302
    Total Points           =          42575
    Total Blocks           =            386
    Max Points             =            256
    Max Functions          =             32
    Weights Tolerance      =       1.00E-15

  -Total Gradient:
     Atom            X                  Y                   Z
    ------   -----------------  -----------------  -----------------
       1       -0.000000000000    -0.000000000000    -0.000024455751
       2        0.000000000000     0.000000000000     0.000026619487

*** tstop() called on Joses-MacBook-Pro-2.local at Thu Jul 17 14:29:37 2025
Module time:
	user time   =       0.88 seconds =       0.01 minutes
	system time =       1.71 seconds =       0.03 minutes
	total time  =          0 seconds =       0.00 minutes
Total time:
	user time   =      72.58 seconds =       1.21 minutes
	system time =      75.47 seconds =       1.26 minutes
	total time  =         14 seconds =       0.23 minutes

    			-----------------------------------------

    			 OPTKING 3.0: for geometry optimizations

    			     By R.A. King, Bethel University

    			        with contributions from

    			    A.V. Copan, J. Cayton, A. Heide

    			-----------------------------------------

	                            ===> Fragment 1 <==

	 Z (Atomic Numbers)          Masses                          Geom
	       9.000000            18.998403          0.00000000  0.00000000  3.11937536
	      15.000000            30.973762          0.00000000  0.00000000 -1.91333396

	 - Coordinate -           - BOHR/RAD -       - ANG/DEG -
	 R(1,2)           =         5.032709           2.663195

	        --- Internal Coordinate Step in ANG or DEG, aJ/ANG or AJ/DEG ---
	-------------------------------------------------------------------------------
	           Coordinate      Previous         Force          Change          New
	           ----------      --------        ------          ------        ------
	               R(1,2)       2.66320        0.00021        0.00103       2.66423
	-------------------------------------------------------------------------------

	                                 ==> Convergence Check <==

	Measures of convergence in internal coordinates in au.

	Criteria marked as inactive (o), active & met (*), and active & unmet ( ).

	----------------------------------------------------------------------------------------------
	   Step    Total Energy     Delta E     Max Force     RMS Force      Max Disp      RMS Disp
	----------------------------------------------------------------------------------------------
	  Convergence Criteria     1.00e-06 *    3.00e-04 *             o    1.20e-03 *             o
	----------------------------------------------------------------------------------------------
	    15    -440.44738917   -3.28e-07 *    2.55e-05 *    2.55e-05 o    1.95e-03      1.95e-03 o  ~
	----------------------------------------------------------------------------------------------

Next Geometry in Ang
	Fragment 1 (Ang)

	    F   0.0000000000   0.0000000000   1.6512178527
	    P   0.0000000000   0.0000000000  -1.0130082294

    Final optimized geometry and variables:
    Molecular point group: c2v
    Full point group: C_inf_v

    Geometry (in Angstrom), charge = 1, multiplicity = 6:

    F            0.000000000000     0.000000000000     1.650702350291
    P            0.000000000000     0.000000000000    -1.012492727041

    Psi4 stopped on: Thursday, 17 July 2025 02:29PM
    Psi4 wall time for execution: 0:00:14.60

*** Psi4 exiting successfully. Buy a developer a beer!
