                               Psi4 1.9.1 release

  ==> Input File <==

--------------------------------------------------------------------------
molecule {
1 6
O   0.00000        0.60000        0.00000
Mg   0.00000       -0.60000        0.00000
}

set {
basis              cc-pvdz
reference          uks
maxiter            500
geom_maxiter       500
DAMPING_PERCENTAGE 1
guess              SAP
}

optimize('b3lyp')
--------------------------------------------------------------------------

    Molecular point group: c2v
  Charge       = 1
  Multiplicity = 6
  Basis Set: CC-PVDZ
    Blend: CC-PVDZ
  Basis Set: (CC-PVDZ AUX)
    Blend: CC-PVDZ-JKFIT + DEF2-UNIVERSAL-JKFIT
  @DF-UKS Final Energy:  -273.78656522544929
    Total Energy =                       -273.7865652254492943
 Dipole X            :          0.0000000            0.0000000            0.0000000
 Dipole Y            :          0.0000000            0.0000000            0.0000000
 Dipole Z            :          1.3934169           -0.0033262            1.3900907
 Magnitude           :                                                    1.3900907
    Molecular point group: c2v
  Basis Set: CC-PVDZ
    Blend: CC-PVDZ
  Basis Set: (CC-PVDZ AUX)
    Blend: CC-PVDZ-JKFIT + DEF2-UNIVERSAL-JKFIT
  Basis Set: CC-PVDZ
    Blend: CC-PVDZ
  Basis Set: (CC-PVDZ AUX)
    Blend: CC-PVDZ-JKFIT + DEF2-UNIVERSAL-JKFIT
  @DF-UKS Final Energy:  -274.06366070387770
    Total Energy =                       -274.0636607038777015
  Basis Set: CC-PVDZ
    Blend: CC-PVDZ
  Basis Set: (CC-PVDZ AUX)
    Blend: CC-PVDZ-JKFIT + DEF2-UNIVERSAL-JKFIT
  Basis Set: CC-PVDZ
    Blend: CC-PVDZ
  @DF-UKS Final Energy:  -274.23339826628649
    Total Energy =                       -274.2333982662864855
  @DF-UKS Final Energy:  -274.33868819535940
    Total Energy =                       -274.3386881953593956
  @DF-UKS Final Energy:  -274.41329699291259
    Total Energy =                       -274.4132969929125920
  @DF-UKS Final Energy:  -274.46700651804838
    Total Energy =                       -274.4670065180483789
  @DF-UKS Final Energy:  -274.50245103926102
    Total Energy =                       -274.5024510392610182
  @DF-UKS Final Energy:  -274.50696754594344
    Total Energy =                       -274.5069675459434393
  @DF-UKS Final Energy:  -274.52641383925436
    Total Energy =                       -274.5264138392543600
  @DF-UKS Final Energy:  -274.52765629231038
    Total Energy =                       -274.5276562923103825
  @DF-UKS Final Energy:  -274.53625173551347
    Total Energy =                       -274.5362517355134742
  @DF-UKS Final Energy:  -274.53656694236327
    Total Energy =                       -274.5365669423632653
  @DF-UKS Final Energy:  -274.54037253776187
    Total Energy =                       -274.5403725377618684
  @DF-UKS Final Energy:  -274.54045027892244
    Total Energy =                       -274.5404502789224352
  @DF-UKS Final Energy:  -274.54219065430311
    Total Energy =                       -274.5421906543031128
  @DF-UKS Final Energy:  -274.54220992274270
    Total Energy =                       -274.5422099227426997
  @DF-UKS Final Energy:  -274.54304120979202
    Total Energy =                       -274.5430412097920225
  @DF-UKS Final Energy:  -274.54304614320972
    Total Energy =                       -274.5430461432097218
  @DF-UKS Final Energy:  -274.54305102027013
    Total Energy =                       -274.5430510202701271
  @DF-UKS Final Energy:  -274.54347120113607
    Total Energy =                       -274.5434712011360716
  @DF-UKS Final Energy:  -274.54347673523773
    Total Energy =                       -274.5434767352377321
  @DF-UKS Final Energy:  -274.54347810152194
    Total Energy =                       -274.5434781015219414
  @DF-UKS Final Energy:  -274.54347946106185
    Total Energy =                       -274.5434794610618496
  @DF-UKS Final Energy:  -274.54372465988166
    Total Energy =                       -274.5437246598816614
  @DF-UKS Final Energy:  -274.54372517864863
    Total Energy =                       -274.5437251786486286
  @DF-UKS Final Energy:  -274.54372569121256
    Total Energy =                       -274.5437256912125576
  @DF-UKS Final Energy:  -274.54372620287313
    Total Energy =                       -274.5437262028731311
  @DF-UKS Final Energy:  -274.54372671368907
    Total Energy =                       -274.5437267136890682
  @DF-UKS Final Energy:  -274.54372722364712
    Total Energy =                       -274.5437272236471244
  @DF-UKS Final Energy:  -274.54372773279647
    Total Energy =                       -274.5437277327964694
  @DF-UKS Final Energy:  -274.54372824101807
    Total Energy =                       -274.5437282410180728
  @DF-UKS Final Energy:  -274.54372874854892
    Total Energy =                       -274.5437287485489151
  @DF-UKS Final Energy:  -274.54372925517629
    Total Energy =                       -274.5437292551762880
  @DF-UKS Final Energy:  -274.54372976093202
    Total Energy =                       -274.5437297609320240
  @DF-UKS Final Energy:  -274.54373026591861
    Total Energy =                       -274.5437302659186116
  @DF-UKS Final Energy:  -274.54373077012838
    Total Energy =                       -274.5437307701283771
  @DF-UKS Final Energy:  -274.54373127345968
    Total Energy =                       -274.5437312734596844
  @DF-UKS Final Energy:  -274.54373177602230
    Total Energy =                       -274.5437317760222982
  Basis Set: (CC-PVDZ AUX)
    Blend: CC-PVDZ-JKFIT + DEF2-UNIVERSAL-JKFIT
  Basis Set: CC-PVDZ
    Blend: CC-PVDZ
  Basis Set: (CC-PVDZ AUX)
    Blend: CC-PVDZ-JKFIT + DEF2-UNIVERSAL-JKFIT
  @DF-UKS Final Energy:  -274.54392329046988
    Total Energy =                       -274.5439232904698770
  Basis Set: CC-PVDZ
    Blend: CC-PVDZ
  Basis Set: (CC-PVDZ AUX)
    Blend: CC-PVDZ-JKFIT + DEF2-UNIVERSAL-JKFIT
  Charge       = 1
  Multiplicity = 6
  Basis Set: CC-PVDZ
    Blend: CC-PVDZ
  Basis Set: (CC-PVDZ AUX)
    Blend: CC-PVDZ-JKFIT + DEF2-UNIVERSAL-JKFIT

    Orbital Energies [Eh]
    ---------------------

    Alpha Occupied:

       1A1   -46.989338     2A1   -19.991866     3A1    -3.268445
       4A1    -2.012874     1B2    -2.012716     1B1    -2.009656
       5A1    -1.637540     6A1    -1.045253     2B2    -1.045220
       2B1    -1.045139     7A1    -0.352606     3B1    -0.208973

    Alpha Virtual:

       8A1    -0.173389     3B2    -0.158718     9A1    -0.034748
       4B1     0.031370    10A1     0.031562     4B2     0.041102
       5B1     0.163320     1A2     0.167544    11A1     0.167949
       5B2     0.175390    12A1     0.176318     6B2     0.342991
       6B1     0.343244    13A1     0.358835    14A1     0.573726
       2A2     1.863642     7B2     1.863649     7B1     1.863715
      15A1     1.863788    16A1     1.863976

    Beta Occupied:

       1A1   -46.985110     2A1   -19.907439     3A1    -3.261385
       4A1    -2.008594     1B2    -2.008524     1B1    -2.000717
       5A1    -1.385409

    Beta Virtual:

       6A1    -0.706129     2B2    -0.705899     2B1    -0.705783
       7A1    -0.245711     8A1    -0.133162     3B2    -0.117026
       3B1    -0.096919     9A1    -0.001247    10A1     0.054099
       4B2     0.063302     4B1     0.079692    11A1     0.209437
       5B2     0.210067     5B1     0.231267     1A2     0.234489
      12A1     0.240374     6B2     0.453636     6B1     0.453882
      13A1     0.468009    14A1     0.686439     7B2     2.051918
       2A2     2.051932     7B1     2.051989    15A1     2.052036
      16A1     2.052209

    Final Occupation by Irrep:
             A1    A2    B1    B2
    DOCC [     5,    0,    1,    1 ]
    SOCC [     2,    0,    2,    1 ]
    NA   [     7,    0,    3,    2 ]
    NB   [     5,    0,    1,    1 ]

  @DF-UKS Final Energy:  -274.54392359770691

   => Energetics <=

    Nuclear Repulsion Energy =             10.2443544620538614
    One-Electron Energy =                -396.2560622938980259
    Two-Electron Energy =                 131.2375943863485190
    DFT Exchange-Correlation Energy =     -19.7698101522112992
    Empirical Dispersion Energy =           0.0000000000000000
    VV10 Nonlocal Energy =                  0.0000000000000000
    Total Energy =                       -274.5439235977069075

  UHF NO Occupations:
  HONO-2 :    6 A1 1.0000000
  HONO-1 :    7 A1 1.0000000
  HONO-0 :    3 B1 1.0000000
  LUNO+0 :    8 A1 0.0009570
  LUNO+1 :    9 A1 0.0000009
  LUNO+2 :    3 B2 0.0000007
  LUNO+3 :    4 B1 0.0000003

Computation Completed

Properties will be evaluated at   0.000000,   0.000000,   0.000000 [a0]

Properties computed using the SCF density matrix

 Multipole Moments:

 ------------------------------------------------------------------------------------
     Multipole            Electronic (a.u.)      Nuclear  (a.u.)        Total (a.u.)
 ------------------------------------------------------------------------------------

 L = 1.  Multiply by 2.5417464519 to convert [e a0] to [Debye]
 Dipole X            :          0.0000000            0.0000000            0.0000000
 Dipole Y            :          0.0000000            0.0000000            0.0000000
 Dipole Z            :          5.1092046           -0.0137452            5.0954593
 Magnitude           :                                                    5.0954593

 ------------------------------------------------------------------------------------

*** tstop() called on Joses-MacBook-Pro-2.local at Thu Jul 17 14:08:05 2025
Module time:
	user time   =       1.32 seconds =       0.02 minutes
	system time =       2.61 seconds =       0.04 minutes
	total time  =          0 seconds =       0.00 minutes
Total time:
	user time   =     114.31 seconds =       1.91 minutes
	system time =     268.08 seconds =       4.47 minutes
	total time  =         41 seconds =       0.68 minutes

*** tstart() called on Joses-MacBook-Pro-2.local
*** at Thu Jul 17 14:08:05 2025

         ------------------------------------------------------------
                                   SCF GRAD
                          Rob Parrish, Justin Turney,
                       Andy Simmonett, and Alex Sokolov
         ------------------------------------------------------------

  ==> Geometry <==

    Molecular point group: c2v
    Full point group: C_inf_v

    Geometry (in Angstrom), charge = 1, multiplicity = 6:

       Center              X                  Y                   Z               Mass
    ------------   -----------------  -----------------  -----------------  -----------------
         O            0.000000000000     0.000000000000     2.974992884942    15.994914619570
         MG           0.000000000000     0.000000000000    -1.983934728554    23.985041697000

  Nuclear repulsion =   10.244354462053861

  ==> Basis Set <==

  Basis Set: CC-PVDZ
    Blend: CC-PVDZ
    Number of shells: 14
    Number of basis functions: 32
    Number of Cartesian functions: 34
    Spherical Harmonics?: true
    Max angular momentum: 2

  ==> DFJKGrad: Density-Fitted SCF Gradients <==

    Gradient:                    1
    J tasked:                  Yes
    K tasked:                  Yes
    wK tasked:                  No
    OpenMP threads:              1
    Integrals threads:           1
    Memory [MiB]:              375
    Schwarz Cutoff:          1E-12
    Fitting Condition:       1E-10

   => Auxiliary Basis Set <=

  Basis Set: (CC-PVDZ AUX)
    Blend: CC-PVDZ-JKFIT + DEF2-UNIVERSAL-JKFIT
    Number of shells: 58
    Number of basis functions: 182
    Number of Cartesian functions: 218
    Spherical Harmonics?: true
    Max angular momentum: 4

  ==> DFT Potential <==

   => LibXC <=

    Version 6.2.2
    S. Lehtola, C. Steigemann, M. J.T. Oliveira, and M. A.L. Marques.,  SoftwareX 7, 1â€“5 (2018) (10.1016/j.softx.2017.11.002)

   => Composite Functional: B3LYP <=

    B3LYP Hyb-GGA Exchange-Correlation Functional

    P. J. Stephens, F. J. Devlin, C. F. Chabalowski, and M. J. Frisch.,  J. Phys. Chem. 98, 11623 (1994) (10.1021/j100096a001)

    Deriv               =              1
    GGA                 =           TRUE
    Meta                =          FALSE

    Exchange Hybrid     =           TRUE
    MP2 Hybrid          =          FALSE

   => Exchange Functionals <=

    0.0800   Slater exchange
    0.7200         Becke 88

   => Exact (HF) Exchange <=

    0.2000               HF

   => Correlation Functionals <=

    0.1900   Vosko, Wilk & Nusair (VWN5_RPA)
    0.8100   Lee, Yang & Parr

   => LibXC Density Thresholds  <==

    XC_HYB_GGA_XC_B3LYP:  1.00E-15

   => Molecular Quadrature <=

    Radial Scheme          =       TREUTLER
    Pruning Scheme         =           NONE
    Nuclear Scheme         =       TREUTLER

    Blocking Scheme        =         OCTREE
    BS radius alpha        =              1
    Pruning alpha          =              1
    Radial Points          =             75
    Spherical Points       =            302
    Total Points           =          43615
    Total Blocks           =            442
    Max Points             =            253
    Max Functions          =             32
    Weights Tolerance      =       1.00E-15

  -Total Gradient:
     Atom            X                  Y                   Z
    ------   -----------------  -----------------  -----------------
       1       -0.000000000000     0.000000000000    -0.000237996659
       2        0.000000000000     0.000000000000     0.000233904834

*** tstop() called on Joses-MacBook-Pro-2.local at Thu Jul 17 14:08:06 2025
Module time:
	user time   =       0.85 seconds =       0.01 minutes
	system time =       1.90 seconds =       0.03 minutes
	total time  =          1 seconds =       0.02 minutes
Total time:
	user time   =     115.16 seconds =       1.92 minutes
	system time =     269.98 seconds =       4.50 minutes
	total time  =         42 seconds =       0.70 minutes

    			-----------------------------------------

    			 OPTKING 3.0: for geometry optimizations

    			     By R.A. King, Bethel University

    			        with contributions from

    			    A.V. Copan, J. Cayton, A. Heide

    			-----------------------------------------

	                            ===> Fragment 1 <==

	 Z (Atomic Numbers)          Masses                          Geom
	       8.000000            15.994915          0.00000000  0.00000000  5.62192178
	      12.000000            23.985042          0.00000000  0.00000000 -3.74909329

	 - Coordinate -           - BOHR/RAD -       - ANG/DEG -
	 R(1,2)           =         9.371015           4.958928

	        --- Internal Coordinate Step in ANG or DEG, aJ/ANG or AJ/DEG ---
	-------------------------------------------------------------------------------
	           Coordinate      Previous         Force          Change          New
	           ----------      --------        ------          ------        ------
	               R(1,2)       4.95893        0.00194        0.00069       4.95962
	-------------------------------------------------------------------------------

	                                 ==> Convergence Check <==

	Measures of convergence in internal coordinates in au.

	Criteria marked as inactive (o), active & met (*), and active & unmet ( ).

	----------------------------------------------------------------------------------------------
	   Step    Total Energy     Delta E     Max Force     RMS Force      Max Disp      RMS Disp
	----------------------------------------------------------------------------------------------
	  Convergence Criteria     1.00e-06 *    3.00e-04 *             o    1.20e-03 *             o
	----------------------------------------------------------------------------------------------
	    43    -274.54392360   -3.07e-07 *    2.36e-04 *    2.36e-04 o    1.30e-03      1.30e-03 o  ~
	----------------------------------------------------------------------------------------------

Next Geometry in Ang
	Fragment 1 (Ang)

	    O   0.0000000000   0.0000000000   2.9753366720
	   Mg   0.0000000000   0.0000000000  -1.9842785156

    Final optimized geometry and variables:
    Molecular point group: c2v
    Full point group: C_inf_v

    Geometry (in Angstrom), charge = 1, multiplicity = 6:

    O            0.000000000000     0.000000000000     2.974992884942
    MG           0.000000000000     0.000000000000    -1.983934728554

    Psi4 stopped on: Thursday, 17 July 2025 02:08PM
    Psi4 wall time for execution: 0:00:42.20

*** Psi4 exiting successfully. Buy a developer a beer!
