                               Psi4 1.9.1 release

  ==> Input File <==

--------------------------------------------------------------------------
molecule {
1 6
O   0.00000        0.60000        0.00000
Ne   0.00000       -0.60000        0.00000
}

set {
basis              cc-pvdz
reference          uks
maxiter            500
geom_maxiter       500
DAMPING_PERCENTAGE 1
guess              SAP
}

optimize('b3lyp')
--------------------------------------------------------------------------

    Molecular point group: c2v
  Charge       = 1
  Multiplicity = 6
  Basis Set: CC-PVDZ
    Blend: CC-PVDZ
  Basis Set: (CC-PVDZ AUX)
    Blend: CC-PVDZ-JKFIT
  @DF-UKS Final Energy:  -201.84726043636957
    Total Energy =                       -201.8472604363695666
 Dipole X            :          0.0000000            0.0000000            0.0000000
 Dipole Y            :          0.0000000            0.0000000            0.0000000
 Dipole Z            :         -0.6270808           -0.0006065           -0.6276873
 Magnitude           :                                                    0.6276873
    Molecular point group: c2v
  Basis Set: CC-PVDZ
    Blend: CC-PVDZ
  Basis Set: (CC-PVDZ AUX)
    Blend: CC-PVDZ-JKFIT
  Basis Set: CC-PVDZ
    Blend: CC-PVDZ
  Basis Set: (CC-PVDZ AUX)
    Blend: CC-PVDZ-JKFIT
  @DF-UKS Final Energy:  -202.03114745751384
    Total Energy =                       -202.0311474575138675
  Basis Set: CC-PVDZ
    Blend: CC-PVDZ
  Basis Set: (CC-PVDZ AUX)
    Blend: CC-PVDZ-JKFIT
  Basis Set: CC-PVDZ
    Blend: CC-PVDZ
  @DF-UKS Final Energy:  -202.05497719512582
    Total Energy =                       -202.0549771951258151
  @DF-UKS Final Energy:  -202.10160791923542
    Total Energy =                       -202.1016079192354198
  @DF-UKS Final Energy:  -202.27253784357168
    Total Energy =                       -202.2725378435717118
  @DF-UKS Final Energy:  -202.27984855588804
    Total Energy =                       -202.2798485558880373
  @DF-UKS Final Energy:  -202.28062984323742
    Total Energy =                       -202.2806298432374206
  Basis Set: (CC-PVDZ AUX)
    Blend: CC-PVDZ-JKFIT
  Basis Set: CC-PVDZ
    Blend: CC-PVDZ
  Basis Set: (CC-PVDZ AUX)
    Blend: CC-PVDZ-JKFIT
  @DF-UKS Final Energy:  -202.28065329948200
    Total Energy =                       -202.2806532994819975
  Basis Set: CC-PVDZ
    Blend: CC-PVDZ
  Basis Set: (CC-PVDZ AUX)
    Blend: CC-PVDZ-JKFIT
  Charge       = 1
  Multiplicity = 6
  Basis Set: CC-PVDZ
    Blend: CC-PVDZ
  Basis Set: (CC-PVDZ AUX)
    Blend: CC-PVDZ-JKFIT

    Orbital Energies [Eh]
    ---------------------

    Alpha Occupied:

       1A1   -31.719744     2A1   -19.648717     3A1    -2.112867
       4A1    -1.404074     5A1    -1.286990     1B1    -1.176724
       1B2    -1.176724     6A1    -0.824804     2B2    -0.810398
       2B1    -0.810398     7A1     0.326225

    Alpha Virtual:

       3B1     0.499244     3B2     0.499244     8A1     0.674846
       4B1     0.849498     4B2     0.849498     9A1     0.923648
      10A1     1.321408     1A2     2.084647    11A1     2.084648
       5B2     2.097246     5B1     2.097246    12A1     2.108453
      13A1     3.995160     6B1     4.016050     6B2     4.016050
      14A1     4.092906     2A2     4.092912

    Beta Occupied:

       1A1   -31.673901     2A1   -19.551096     3A1    -2.000140
       4A1    -1.146728     1B1    -1.134177     1B2    -1.134177

    Beta Virtual:

       5A1    -0.913286     2B2    -0.484065     2B1    -0.484065
       6A1    -0.457284     7A1     0.598635     3B1     0.631125
       3B2     0.631125     8A1     0.821986     4B1     0.873608
       4B2     0.873608     9A1     1.054682    10A1     1.401833
       1A2     2.268622    11A1     2.268624     5B2     2.286261
       5B1     2.286261    12A1     2.297910    13A1     4.112986
       2A2     4.112995     6B1     4.133345     6B2     4.133345
      14A1     4.162288

    Final Occupation by Irrep:
             A1    A2    B1    B2
    DOCC [     4,    0,    1,    1 ]
    SOCC [     3,    0,    1,    1 ]
    NA   [     7,    0,    2,    2 ]
    NB   [     4,    0,    1,    1 ]

  @DF-UKS Final Energy:  -202.28065408206496

   => Energetics <=

    Nuclear Repulsion Energy =             17.4860475594646729
    One-Electron Energy =                -310.3966736149840244
    Two-Electron Energy =                 107.1611319804032689
    DFT Exchange-Correlation Energy =     -16.5311600069488875
    Empirical Dispersion Energy =           0.0000000000000000
    VV10 Nonlocal Energy =                  0.0000000000000000
    Total Energy =                       -202.2806540820649559

  UHF NO Occupations:
  HONO-2 :    5 A1 1.0000000
  HONO-1 :    6 A1 1.0000000
  HONO-0 :    7 A1 1.0000000
  LUNO+0 :    8 A1 0.0009898
  LUNO+1 :    9 A1 0.0002795
  LUNO+2 :    3 B2 0.0000537
  LUNO+3 :    3 B1 0.0000537

Computation Completed

Properties will be evaluated at   0.000000,   0.000000,   0.000000 [a0]

Properties computed using the SCF density matrix

 Multipole Moments:

 ------------------------------------------------------------------------------------
     Multipole            Electronic (a.u.)      Nuclear  (a.u.)        Total (a.u.)
 ------------------------------------------------------------------------------------

 L = 1.  Multiply by 2.5417464519 to convert [e a0] to [Debye]
 Dipole X            :          0.0000000            0.0000000            0.0000000
 Dipole Y            :          0.0000000            0.0000000            0.0000000
 Dipole Z            :         -0.8932520           -0.0012236           -0.8944756
 Magnitude           :                                                    0.8944756

 ------------------------------------------------------------------------------------

*** tstop() called on Joses-MacBook-Pro-2.local at Thu Jul 17 14:05:13 2025
Module time:
	user time   =       1.96 seconds =       0.03 minutes
	system time =       3.84 seconds =       0.06 minutes
	total time  =          0 seconds =       0.00 minutes
Total time:
	user time   =      26.92 seconds =       0.45 minutes
	system time =      57.27 seconds =       0.95 minutes
	total time  =          8 seconds =       0.13 minutes

*** tstart() called on Joses-MacBook-Pro-2.local
*** at Thu Jul 17 14:05:13 2025

         ------------------------------------------------------------
                                   SCF GRAD
                          Rob Parrish, Justin Turney,
                       Andy Simmonett, and Alex Sokolov
         ------------------------------------------------------------

  ==> Geometry <==

    Molecular point group: c2v
    Full point group: C_inf_v

    Geometry (in Angstrom), charge = 1, multiplicity = 6:

       Center              X                  Y                   Z               Mass
    ------------   -----------------  -----------------  -----------------  -----------------
         O            0.000000000000     0.000000000000     1.344978506303    15.994914619570
         NE           0.000000000000     0.000000000000    -1.076047555169    19.992440176200

  Nuclear repulsion =   17.486047559464673

  ==> Basis Set <==

  Basis Set: CC-PVDZ
    Blend: CC-PVDZ
    Number of shells: 12
    Number of basis functions: 28
    Number of Cartesian functions: 30
    Spherical Harmonics?: true
    Max angular momentum: 2

  ==> DFJKGrad: Density-Fitted SCF Gradients <==

    Gradient:                    1
    J tasked:                  Yes
    K tasked:                  Yes
    wK tasked:                  No
    OpenMP threads:              1
    Integrals threads:           1
    Memory [MiB]:              375
    Schwarz Cutoff:          1E-12
    Fitting Condition:       1E-10

   => Auxiliary Basis Set <=

  Basis Set: (CC-PVDZ AUX)
    Blend: CC-PVDZ-JKFIT
    Number of shells: 48
    Number of basis functions: 140
    Number of Cartesian functions: 162
    Spherical Harmonics?: true
    Max angular momentum: 3

  ==> DFT Potential <==

   => LibXC <=

    Version 6.2.2
    S. Lehtola, C. Steigemann, M. J.T. Oliveira, and M. A.L. Marques.,  SoftwareX 7, 1â€“5 (2018) (10.1016/j.softx.2017.11.002)

   => Composite Functional: B3LYP <=

    B3LYP Hyb-GGA Exchange-Correlation Functional

    P. J. Stephens, F. J. Devlin, C. F. Chabalowski, and M. J. Frisch.,  J. Phys. Chem. 98, 11623 (1994) (10.1021/j100096a001)

    Deriv               =              1
    GGA                 =           TRUE
    Meta                =          FALSE

    Exchange Hybrid     =           TRUE
    MP2 Hybrid          =          FALSE

   => Exchange Functionals <=

    0.0800   Slater exchange
    0.7200         Becke 88

   => Exact (HF) Exchange <=

    0.2000               HF

   => Correlation Functionals <=

    0.1900   Vosko, Wilk & Nusair (VWN5_RPA)
    0.8100   Lee, Yang & Parr

   => LibXC Density Thresholds  <==

    XC_HYB_GGA_XC_B3LYP:  1.00E-15

   => Molecular Quadrature <=

    Radial Scheme          =       TREUTLER
    Pruning Scheme         =           NONE
    Nuclear Scheme         =       TREUTLER

    Blocking Scheme        =         OCTREE
    BS radius alpha        =              1
    Pruning alpha          =              1
    Radial Points          =             75
    Spherical Points       =            302
    Total Points           =          42383
    Total Blocks           =            378
    Max Points             =            250
    Max Functions          =             28
    Weights Tolerance      =       1.00E-15

  -Total Gradient:
     Atom            X                  Y                   Z
    ------   -----------------  -----------------  -----------------
       1        0.000000000000    -0.000000000000    -0.000096309289
       2        0.000000000000     0.000000000000     0.000100958907

*** tstop() called on Joses-MacBook-Pro-2.local at Thu Jul 17 14:05:13 2025
Module time:
	user time   =       0.52 seconds =       0.01 minutes
	system time =       1.39 seconds =       0.02 minutes
	total time  =          0 seconds =       0.00 minutes
Total time:
	user time   =      27.44 seconds =       0.46 minutes
	system time =      58.67 seconds =       0.98 minutes
	total time  =          8 seconds =       0.13 minutes

    			-----------------------------------------

    			 OPTKING 3.0: for geometry optimizations

    			     By R.A. King, Bethel University

    			        with contributions from

    			    A.V. Copan, J. Cayton, A. Heide

    			-----------------------------------------

	                            ===> Fragment 1 <==

	 Z (Atomic Numbers)          Masses                          Geom
	       8.000000            15.994915          0.00000000  0.00000000  2.54164102
	      10.000000            19.992440          0.00000000  0.00000000 -2.03343518

	 - Coordinate -           - BOHR/RAD -       - ANG/DEG -
	 R(1,2)           =         4.575076           2.421026

	        --- Internal Coordinate Step in ANG or DEG, aJ/ANG or AJ/DEG ---
	-------------------------------------------------------------------------------
	           Coordinate      Previous         Force          Change          New
	           ----------      --------        ------          ------        ------
	               R(1,2)       2.42103        0.00081        0.00024       2.42127
	-------------------------------------------------------------------------------

	                                 ==> Convergence Check <==

	Measures of convergence in internal coordinates in au.

	Criteria marked as inactive (o), active & met (*), and active & unmet ( ).

	----------------------------------------------------------------------------------------------
	   Step    Total Energy     Delta E     Max Force     RMS Force      Max Disp      RMS Disp
	----------------------------------------------------------------------------------------------
	  Convergence Criteria     1.00e-06 *    3.00e-04 *             o    1.20e-03 *             o
	----------------------------------------------------------------------------------------------
	     9    -202.28065408   -7.83e-07 *    9.86e-05 *    9.86e-05 o    4.56e-04 *    4.56e-04 o  ~
	----------------------------------------------------------------------------------------------

Next Geometry in Ang
	Fragment 1 (Ang)

	    O   0.0000000000   0.0000000000   1.3450990482
	   Ne   0.0000000000   0.0000000000  -1.0761680971

    Final optimized geometry and variables:
    Molecular point group: c2v
    Full point group: C_inf_v

    Geometry (in Angstrom), charge = 1, multiplicity = 6:

    O            0.000000000000     0.000000000000     1.344978506303
    NE           0.000000000000     0.000000000000    -1.076047555169

    Psi4 stopped on: Thursday, 17 July 2025 02:05PM
    Psi4 wall time for execution: 0:00:09.48

*** Psi4 exiting successfully. Buy a developer a beer!
