                               Psi4 1.9.1 release

  ==> Input File <==

--------------------------------------------------------------------------
molecule {
1 6
Si   0.00000        0.60000        0.00000
Si   0.00000       -0.60000        0.00000
}

set {
basis              cc-pvdz
reference          uks
maxiter            500
geom_maxiter       500
DAMPING_PERCENTAGE 1
guess              SAP
}

optimize('b3lyp')
--------------------------------------------------------------------------

    Molecular point group: d2h
  Charge       = 1
  Multiplicity = 6
  Basis Set: CC-PVDZ
    Blend: CC-PVDZ
  Basis Set: (CC-PVDZ AUX)
    Blend: CC-PVDZ-JKFIT
  @DF-UKS Final Energy:  -577.06578888478043
    Total Energy =                       -577.0657888847803179
 Dipole X            :          0.0000000            0.0000000            0.0000000
 Dipole Y            :          0.0000000            0.0000000            0.0000000
 Dipole Z            :          0.0000000            0.0000000            0.0000000
 Magnitude           :                                                    0.0000000
    Molecular point group: d2h
  Basis Set: CC-PVDZ
    Blend: CC-PVDZ
  Basis Set: (CC-PVDZ AUX)
    Blend: CC-PVDZ-JKFIT
  Basis Set: CC-PVDZ
    Blend: CC-PVDZ
  Basis Set: (CC-PVDZ AUX)
    Blend: CC-PVDZ-JKFIT
  @DF-UKS Final Energy:  -577.09244029057311
    Total Energy =                       -577.0924402905732222
  Basis Set: CC-PVDZ
    Blend: CC-PVDZ
  Basis Set: (CC-PVDZ AUX)
    Blend: CC-PVDZ-JKFIT
  Basis Set: CC-PVDZ
    Blend: CC-PVDZ
  @DF-UKS Final Energy:  -577.14357116496683
    Total Energy =                       -577.1435711649668292
  @DF-UKS Final Energy:  -577.32531481553178
    Total Energy =                       -577.3253148155317831
  @DF-UKS Final Energy:  -577.99400620008498
    Total Energy =                       -577.9940062000849821
  @DF-UKS Final Energy:  -578.23836677644965
    Total Energy =                       -578.2383667764496522
  @DF-UKS Final Energy:  -578.35048364281079
    Total Energy =                       -578.3504836428107865
  @DF-UKS Final Energy:  -578.39705971589308
    Total Energy =                       -578.3970597158930786
  @DF-UKS Final Energy:  -578.41412654251496
    Total Energy =                       -578.4141265425149641
  @DF-UKS Final Energy:  -578.41879211984758
    Total Energy =                       -578.4187921198475806
  @DF-UKS Final Energy:  -578.41945371130646
    Total Energy =                       -578.4194537113064598
  @DF-UKS Final Energy:  -578.41955904969154
    Total Energy =                       -578.4195590496915429
  @DF-UKS Final Energy:  -578.41957694601479
    Total Energy =                       -578.4195769460147858
  Basis Set: (CC-PVDZ AUX)
    Blend: CC-PVDZ-JKFIT
  Basis Set: CC-PVDZ
    Blend: CC-PVDZ
  Basis Set: (CC-PVDZ AUX)
    Blend: CC-PVDZ-JKFIT
  @DF-UKS Final Energy:  -578.41958050534356
    Total Energy =                       -578.4195805053435606
  Basis Set: CC-PVDZ
    Blend: CC-PVDZ
  Basis Set: (CC-PVDZ AUX)
    Blend: CC-PVDZ-JKFIT
  Charge       = 1
  Multiplicity = 6
  Basis Set: CC-PVDZ
    Blend: CC-PVDZ
  Basis Set: (CC-PVDZ AUX)
    Blend: CC-PVDZ-JKFIT

    Orbital Energies [Eh]
    ---------------------

    Alpha Occupied:

       1Ag   -66.454254     1B2u  -66.454253     2Ag    -5.595885
       2B2u   -5.595874     1B1u   -3.956846     1B3g   -3.956784
       3Ag    -3.955194     3B2u   -3.954417     1B3u   -3.954117
       1B1g   -3.954059     4Ag    -0.811050     4B2u   -0.669866
       5Ag    -0.504400     2B3u   -0.487726     2B1u   -0.478547
       2B1g   -0.391408

    Alpha Virtual:

       2B3g   -0.339012     5B2u   -0.204696     6Ag    -0.056197
       3B3u   -0.006407     3B1u   -0.005884     7Ag     0.038294
       1B2g    0.044254     8Ag     0.045739     6B2u    0.055807
       4B1u    0.078483     4B3u    0.078620     3B1g    0.111062
       3B3g    0.113846     1Au     0.133582     7B2u    0.135082
       8B2u    0.207884     9Ag     0.292446     4B1g    0.309253
       4B3g    0.309968     9B2u    0.576609

    Beta Occupied:

       1B2u  -66.443279     1Ag   -66.443278     2B2u   -5.581814
       2Ag    -5.581782     1B1u   -3.943454     1B3g   -3.943381
       3Ag    -3.940690     3B2u   -3.939923     1B3u   -3.934547
       1B1g   -3.934474     4Ag    -0.712980

    Beta Virtual:

       4B2u   -0.500649     2B1u   -0.361556     5Ag    -0.357189
       2B3u   -0.342373     2B3g   -0.255144     2B1g   -0.233811
       5B2u   -0.135500     6Ag    -0.012836     3B1u    0.058466
       3B3u    0.073414     7Ag     0.080677     6B2u    0.108277
       4B1u    0.123126     1B2g    0.132067     8Ag     0.132556
       4B3u    0.140927     3B3g    0.147427     3B1g    0.161963
       7B2u    0.223457     1Au     0.223639     8B2u    0.240876
       9Ag     0.356936     4B3g    0.379183     4B1g    0.397707
       9B2u    0.636559

    Final Occupation by Irrep:
             Ag   B1g   B2g   B3g    Au   B1u   B2u   B3u
    DOCC [     4,    1,    0,    1,    0,    1,    3,    1 ]
    SOCC [     1,    1,    0,    0,    0,    1,    1,    1 ]
    NA   [     5,    2,    0,    1,    0,    2,    4,    2 ]
    NB   [     4,    1,    0,    1,    0,    1,    3,    1 ]

  @DF-UKS Final Energy:  -578.41958075757384

   => Energetics <=

    Nuclear Repulsion Energy =             45.4395250910794459
    One-Electron Energy =                -884.3366518115440158
    Two-Electron Energy =                 293.8982283509658942
    DFT Exchange-Correlation Energy =     -33.4206823880750861
    Empirical Dispersion Energy =           0.0000000000000000
    VV10 Nonlocal Energy =                  0.0000000000000000
    Total Energy =                       -578.4195807575737263

  UHF NO Occupations:
  HONO-2 :    4B2u 1.0000000
  HONO-1 :    2B3u 1.0000000
  HONO-0 :    5 Ag 1.0000000
  LUNO+0 :    6 Ag 0.0003564
  LUNO+1 :    2B3g 0.0000007
  LUNO+2 :    5B2u 0.0000005
  LUNO+3 :    3B3u 0.0000002

Computation Completed

Properties will be evaluated at   0.000000,   0.000000,   0.000000 [a0]

Properties computed using the SCF density matrix

 Multipole Moments:

 ------------------------------------------------------------------------------------
     Multipole            Electronic (a.u.)      Nuclear  (a.u.)        Total (a.u.)
 ------------------------------------------------------------------------------------

 L = 1.  Multiply by 2.5417464519 to convert [e a0] to [Debye]
 Dipole X            :          0.0000000            0.0000000            0.0000000
 Dipole Y            :          0.0000000            0.0000000            0.0000000
 Dipole Z            :          0.0000000            0.0000000            0.0000000
 Magnitude           :                                                    0.0000000

 ------------------------------------------------------------------------------------

*** tstop() called on Joses-MacBook-Pro-2.local at Thu Jul 17 15:39:33 2025
Module time:
	user time   =       6.30 seconds =       0.11 minutes
	system time =       1.63 seconds =       0.03 minutes
	total time  =          1 seconds =       0.02 minutes
Total time:
	user time   =     156.24 seconds =       2.60 minutes
	system time =      47.84 seconds =       0.80 minutes
	total time  =         19 seconds =       0.32 minutes

*** tstart() called on Joses-MacBook-Pro-2.local
*** at Thu Jul 17 15:39:33 2025

         ------------------------------------------------------------
                                   SCF GRAD
                          Rob Parrish, Justin Turney,
                       Andy Simmonett, and Alex Sokolov
         ------------------------------------------------------------

  ==> Geometry <==

    Molecular point group: d2h
    Full point group: D_inf_h

    Geometry (in Angstrom), charge = 1, multiplicity = 6:

       Center              X                  Y                   Z               Mass
    ------------   -----------------  -----------------  -----------------  -----------------
         SI          -0.000000000000     1.141283200951     0.000000000000    27.976926534650
         SI           0.000000000000    -1.141283200951     0.000000000000    27.976926534650

  Nuclear repulsion =   45.439525091079446

  ==> Basis Set <==

  Basis Set: CC-PVDZ
    Blend: CC-PVDZ
    Number of shells: 16
    Number of basis functions: 36
    Number of Cartesian functions: 38
    Spherical Harmonics?: true
    Max angular momentum: 2

  ==> DFJKGrad: Density-Fitted SCF Gradients <==

    Gradient:                    1
    J tasked:                  Yes
    K tasked:                  Yes
    wK tasked:                  No
    OpenMP threads:              1
    Integrals threads:           1
    Memory [MiB]:              375
    Schwarz Cutoff:          1E-12
    Fitting Condition:       1E-10

   => Auxiliary Basis Set <=

  Basis Set: (CC-PVDZ AUX)
    Blend: CC-PVDZ-JKFIT
    Number of shells: 72
    Number of basis functions: 224
    Number of Cartesian functions: 260
    Spherical Harmonics?: true
    Max angular momentum: 3

  ==> DFT Potential <==

   => LibXC <=

    Version 6.2.2
    S. Lehtola, C. Steigemann, M. J.T. Oliveira, and M. A.L. Marques.,  SoftwareX 7, 1â€“5 (2018) (10.1016/j.softx.2017.11.002)

   => Composite Functional: B3LYP <=

    B3LYP Hyb-GGA Exchange-Correlation Functional

    P. J. Stephens, F. J. Devlin, C. F. Chabalowski, and M. J. Frisch.,  J. Phys. Chem. 98, 11623 (1994) (10.1021/j100096a001)

    Deriv               =              1
    GGA                 =           TRUE
    Meta                =          FALSE

    Exchange Hybrid     =           TRUE
    MP2 Hybrid          =          FALSE

   => Exchange Functionals <=

    0.0800   Slater exchange
    0.7200         Becke 88

   => Exact (HF) Exchange <=

    0.2000               HF

   => Correlation Functionals <=

    0.1900   Vosko, Wilk & Nusair (VWN5_RPA)
    0.8100   Lee, Yang & Parr

   => LibXC Density Thresholds  <==

    XC_HYB_GGA_XC_B3LYP:  1.00E-15

   => Molecular Quadrature <=

    Radial Scheme          =       TREUTLER
    Pruning Scheme         =           NONE
    Nuclear Scheme         =       TREUTLER

    Blocking Scheme        =         OCTREE
    BS radius alpha        =              1
    Pruning alpha          =              1
    Radial Points          =             75
    Spherical Points       =            302
    Total Points           =          41324
    Total Blocks           =            382
    Max Points             =            252
    Max Functions          =             36
    Weights Tolerance      =       1.00E-15

  -Total Gradient:
     Atom            X                  Y                   Z
    ------   -----------------  -----------------  -----------------
       1        0.000000000000    -0.000026902875     0.000000000000
       2       -0.000000000000     0.000026902875     0.000000000000

*** tstop() called on Joses-MacBook-Pro-2.local at Thu Jul 17 15:39:33 2025
Module time:
	user time   =       2.20 seconds =       0.04 minutes
	system time =       1.63 seconds =       0.03 minutes
	total time  =          0 seconds =       0.00 minutes
Total time:
	user time   =     158.44 seconds =       2.64 minutes
	system time =      49.47 seconds =       0.82 minutes
	total time  =         19 seconds =       0.32 minutes

    			-----------------------------------------

    			 OPTKING 3.0: for geometry optimizations

    			     By R.A. King, Bethel University

    			        with contributions from

    			    A.V. Copan, J. Cayton, A. Heide

    			-----------------------------------------

	                            ===> Fragment 1 <==

	 Z (Atomic Numbers)          Masses                          Geom
	      14.000000            27.976927         -0.00000000  2.15671268  0.00000000
	      14.000000            27.976927          0.00000000 -2.15671268  0.00000000

	 - Coordinate -           - BOHR/RAD -       - ANG/DEG -
	 R(1,2)           =         4.313425           2.282566

	        --- Internal Coordinate Step in ANG or DEG, aJ/ANG or AJ/DEG ---
	-------------------------------------------------------------------------------
	           Coordinate      Previous         Force          Change          New
	           ----------      --------        ------          ------        ------
	               R(1,2)       2.28257        0.00022        0.00011       2.28268
	-------------------------------------------------------------------------------

	                                 ==> Convergence Check <==

	Measures of convergence in internal coordinates in au.

	Criteria marked as inactive (o), active & met (*), and active & unmet ( ).

	----------------------------------------------------------------------------------------------
	   Step    Total Energy     Delta E     Max Force     RMS Force      Max Disp      RMS Disp
	----------------------------------------------------------------------------------------------
	  Convergence Criteria     1.00e-06 *    3.00e-04 *             o    1.20e-03 *             o
	----------------------------------------------------------------------------------------------
	    15    -578.41958076   -2.52e-07 *    2.69e-05 *    2.69e-05 o    2.06e-04 *    2.06e-04 o  ~
	----------------------------------------------------------------------------------------------

Next Geometry in Ang
	Fragment 1 (Ang)

	   Si  -0.0000000000   1.1413377136   0.0000000000
	   Si   0.0000000000  -1.1413377136   0.0000000000

    Final optimized geometry and variables:
    Molecular point group: d2h
    Full point group: D_inf_h

    Geometry (in Angstrom), charge = 1, multiplicity = 6:

    SI          -0.000000000000     1.141283200951     0.000000000000
    SI           0.000000000000    -1.141283200951     0.000000000000

    Psi4 stopped on: Thursday, 17 July 2025 03:39PM
    Psi4 wall time for execution: 0:00:20.28

*** Psi4 exiting successfully. Buy a developer a beer!
