                               Psi4 1.9.1 release

  ==> Input File <==

--------------------------------------------------------------------------
molecule {
1 6
F   0.00000        0.60000        0.00000
Cl   0.00000       -0.60000        0.00000
}

set {
basis              cc-pvdz
reference          uks
maxiter            500
geom_maxiter       500
DAMPING_PERCENTAGE 1
guess              SAP
}

optimize('b3lyp')
--------------------------------------------------------------------------

    Molecular point group: c2v
  Charge       = 1
  Multiplicity = 6
  Basis Set: CC-PVDZ
    Blend: CC-PVDZ
  Basis Set: (CC-PVDZ AUX)
    Blend: CC-PVDZ-JKFIT
  @DF-UKS Final Energy:  -558.05002734049401
    Total Energy =                       -558.0500273404941254
 Dipole X            :          0.0000000            0.0000000            0.0000000
 Dipole Y            :          0.0000000            0.0000000            0.0000000
 Dipole Z            :          0.4548284           -0.3467936            0.1080348
 Magnitude           :                                                    0.1080348
    Molecular point group: c2v
  Basis Set: CC-PVDZ
    Blend: CC-PVDZ
  Basis Set: (CC-PVDZ AUX)
    Blend: CC-PVDZ-JKFIT
  Basis Set: CC-PVDZ
    Blend: CC-PVDZ
  Basis Set: (CC-PVDZ AUX)
    Blend: CC-PVDZ-JKFIT
  @DF-UKS Final Energy:  -558.23769457832918
    Total Energy =                       -558.2376945783291831
  Basis Set: CC-PVDZ
    Blend: CC-PVDZ
  Basis Set: (CC-PVDZ AUX)
    Blend: CC-PVDZ-JKFIT
  Basis Set: CC-PVDZ
    Blend: CC-PVDZ
  @DF-UKS Final Energy:  -558.38294879423597
    Total Energy =                       -558.3829487942359719
  @DF-UKS Final Energy:  -558.48726072349473
    Total Energy =                       -558.4872607234947282
  @DF-UKS Final Energy:  -558.54576885806830
    Total Energy =                       -558.5457688580684135
  @DF-UKS Final Energy:  -558.57885264037702
    Total Energy =                       -558.5788526403771357
  @DF-UKS Final Energy:  -558.60244879788502
    Total Energy =                       -558.6024487978851312
  @DF-UKS Final Energy:  -558.61049709921735
    Total Energy =                       -558.6104970992174685
  @DF-UKS Final Energy:  -558.61540628576472
    Total Energy =                       -558.6154062857647205
  @DF-UKS Final Energy:  -558.61851946362890
    Total Energy =                       -558.6185194636290134
  @DF-UKS Final Energy:  -558.62123155320342
    Total Energy =                       -558.6212315532034154
  @DF-UKS Final Energy:  -558.62131322990695
    Total Energy =                       -558.6213132299070594
  @DF-UKS Final Energy:  -558.62510470072061
    Total Energy =                       -558.6251047007206125
  @DF-UKS Final Energy:  -558.62518001673345
    Total Energy =                       -558.6251800167334522
  @DF-UKS Final Energy:  -558.62873577473636
    Total Energy =                       -558.6287357747363558
  @DF-UKS Final Energy:  -558.62879937007165
    Total Energy =                       -558.6287993700716470
  @DF-UKS Final Energy:  -558.63159075380088
    Total Energy =                       -558.6315907538008787
  @DF-UKS Final Energy:  -558.63163912140453
    Total Energy =                       -558.6316391214045325
  @DF-UKS Final Energy:  -558.63388262432386
    Total Energy =                       -558.6338826243238600
  @DF-UKS Final Energy:  -558.63391909495658
    Total Energy =                       -558.6339190949564681
  @DF-UKS Final Energy:  -558.64805160367712
    Total Energy =                       -558.6480516036771178
  @DF-UKS Final Energy:  -558.64805261917400
    Total Energy =                       -558.6480526191739955
  @DF-UKS Final Energy:  -558.64805362831532
    Total Energy =                       -558.6480536283152105
  @DF-UKS Final Energy:  -558.64805463693369
    Total Energy =                       -558.6480546369336935
  @DF-UKS Final Energy:  -558.64805564502103
    Total Energy =                       -558.6480556450210315
  @DF-UKS Final Energy:  -558.64805665258632
    Total Energy =                       -558.6480566525863196
  @DF-UKS Final Energy:  -558.64805765965127
    Total Energy =                       -558.6480576596512719
  @DF-UKS Final Energy:  -558.64805866619963
    Total Energy =                       -558.6480586661996313
  @DF-UKS Final Energy:  -558.64805967223322
    Total Energy =                       -558.6480596722331029
  @DF-UKS Final Energy:  -558.64806067777113
    Total Energy =                       -558.6480606777711273
  @DF-UKS Final Energy:  -558.64806168279938
    Total Energy =                       -558.6480616827993799
  @DF-UKS Final Energy:  -558.64806268731775
    Total Energy =                       -558.6480626873177471
  @DF-UKS Final Energy:  -558.64806369133430
    Total Energy =                       -558.6480636913343005
  @DF-UKS Final Energy:  -558.64806469481346
    Total Energy =                       -558.6480646948134563
  @DF-UKS Final Energy:  -558.64806569780694
    Total Energy =                       -558.6480656978070556
  @DF-UKS Final Energy:  -558.64806670030498
    Total Energy =                       -558.6480667003049803
  @DF-UKS Final Energy:  -558.64806770227074
    Total Energy =                       -558.6480677022707368
  @DF-UKS Final Energy:  -558.64806870376935
    Total Energy =                       -558.6480687037694679
  Basis Set: (CC-PVDZ AUX)
    Blend: CC-PVDZ-JKFIT
  Basis Set: CC-PVDZ
    Blend: CC-PVDZ
  Basis Set: (CC-PVDZ AUX)
    Blend: CC-PVDZ-JKFIT
  @DF-UKS Final Energy:  -558.64824440975951
    Total Energy =                       -558.6482444097595135
  Basis Set: CC-PVDZ
    Blend: CC-PVDZ
  Basis Set: (CC-PVDZ AUX)
    Blend: CC-PVDZ-JKFIT
  Charge       = 1
  Multiplicity = 6
  Basis Set: CC-PVDZ
    Blend: CC-PVDZ
  Basis Set: (CC-PVDZ AUX)
    Blend: CC-PVDZ-JKFIT

    Orbital Energies [Eh]
    ---------------------

    Alpha Occupied:

       1A1  -101.998247     2A1   -25.074839     3A1    -9.920761
       4A1    -7.686496     1B1    -7.683405     1B2    -7.677394
       5A1    -1.477205     6A1    -1.254008     7A1    -0.791735
       8A1    -0.763736     2B1    -0.757617     2B2    -0.743464
       3B2    -0.732694     3B1    -0.699489     4B1     0.141444

    Alpha Virtual:

       9A1     0.212093     4B2     0.222288    10A1     0.244003
      11A1     0.278224     5B1     0.282241     5B2     0.283195
       1A2     0.297681    12A1     0.299061    13A1     0.826512
       6B2     0.860748     6B1     0.880419    14A1     1.197193
      15A1     3.178451     7B2     3.187002     7B1     3.212233
       2A2     3.257234    16A1     3.260162

    Beta Occupied:

       1A1  -101.971847     2A1   -25.031663     3A1    -9.895227
       4A1    -7.651086     1B2    -7.649006     1B1    -7.632162
       5A1    -1.353038     6A1    -1.094845     2B1    -0.655986
       2B2    -0.597605

    Beta Virtual:

       3B2    -0.591449     7A1    -0.557296     3B1    -0.526778
       8A1    -0.475492     4B2     0.271979     9A1     0.274884
       4B1     0.305100    10A1     0.322639     5B2     0.393521
      11A1     0.394517     1A2     0.415061     5B1     0.421153
      12A1     0.427672     6B1     0.903348     6B2     0.913778
      13A1     0.941099    14A1     1.259394     2A2     3.305228
      15A1     3.306290     7B1     3.313815     7B2     3.320793
      16A1     3.334014

    Final Occupation by Irrep:
             A1    A2    B1    B2
    DOCC [     6,    0,    2,    2 ]
    SOCC [     2,    0,    2,    1 ]
    NA   [     8,    0,    4,    3 ]
    NB   [     6,    0,    2,    2 ]

  @DF-UKS Final Energy:  -558.64824533188789

   => Energetics <=

    Nuclear Repulsion Energy =              4.7138325961603007
    One-Electron Energy =                -774.1716105690909444
    Two-Electron Energy =                 241.5470949416339010
    DFT Exchange-Correlation Energy =     -30.7375623005911329
    Empirical Dispersion Energy =           0.0000000000000000
    VV10 Nonlocal Energy =                  0.0000000000000000
    Total Energy =                       -558.6482453318878925

  UHF NO Occupations:
  HONO-2 :    3 B2 1.0000000
  HONO-1 :    4 B1 1.0000000
  HONO-0 :    8 A1 1.0000000
  LUNO+0 :    4 B2 0.0008115
  LUNO+1 :    9 A1 0.0004778
  LUNO+2 :   10 A1 0.0003374
  LUNO+3 :    5 B1 0.0000964

Computation Completed

Properties will be evaluated at   0.000000,   0.000000,   0.000000 [a0]

Properties computed using the SCF density matrix

 Multipole Moments:

 ------------------------------------------------------------------------------------
     Multipole            Electronic (a.u.)      Nuclear  (a.u.)        Total (a.u.)
 ------------------------------------------------------------------------------------

 L = 1.  Multiply by 2.5417464519 to convert [e a0] to [Debye]
 Dipole X            :          0.0000000            0.0000000            0.0000000
 Dipole Y            :          0.0000000            0.0000000            0.0000000
 Dipole Z            :          4.9541504           -4.9637310           -0.0095806
 Magnitude           :                                                    0.0095806

 ------------------------------------------------------------------------------------

*** tstop() called on Joses-MacBook-Pro-2.local at Thu Jul 17 14:36:02 2025
Module time:
	user time   =       3.65 seconds =       0.06 minutes
	system time =       4.06 seconds =       0.07 minutes
	total time  =          1 seconds =       0.02 minutes
Total time:
	user time   =    1070.96 seconds =      17.85 minutes
	system time =    1121.54 seconds =      18.69 minutes
	total time  =        218 seconds =       3.63 minutes

*** tstart() called on Joses-MacBook-Pro-2.local
*** at Thu Jul 17 14:36:02 2025

         ------------------------------------------------------------
                                   SCF GRAD
                          Rob Parrish, Justin Turney,
                       Andy Simmonett, and Alex Sokolov
         ------------------------------------------------------------

  ==> Geometry <==

    Molecular point group: c2v
    Full point group: C_inf_v

    Geometry (in Angstrom), charge = 1, multiplicity = 6:

       Center              X                  Y                   Z               Mass
    ------------   -----------------  -----------------  -----------------  -----------------
         F            0.000000000000     0.000000000000    11.129341183313    18.998403162730
         CL           0.000000000000     0.000000000000    -6.046515527946    34.968852682000

  Nuclear repulsion =    4.713832596160301

  ==> Basis Set <==

  Basis Set: CC-PVDZ
    Blend: CC-PVDZ
    Number of shells: 14
    Number of basis functions: 32
    Number of Cartesian functions: 34
    Spherical Harmonics?: true
    Max angular momentum: 2

  ==> DFJKGrad: Density-Fitted SCF Gradients <==

    Gradient:                    1
    J tasked:                  Yes
    K tasked:                  Yes
    wK tasked:                  No
    OpenMP threads:              1
    Integrals threads:           1
    Memory [MiB]:              375
    Schwarz Cutoff:          1E-12
    Fitting Condition:       1E-10

   => Auxiliary Basis Set <=

  Basis Set: (CC-PVDZ AUX)
    Blend: CC-PVDZ-JKFIT
    Number of shells: 60
    Number of basis functions: 182
    Number of Cartesian functions: 211
    Spherical Harmonics?: true
    Max angular momentum: 3

  ==> DFT Potential <==

   => LibXC <=

    Version 6.2.2
    S. Lehtola, C. Steigemann, M. J.T. Oliveira, and M. A.L. Marques.,  SoftwareX 7, 1â€“5 (2018) (10.1016/j.softx.2017.11.002)

   => Composite Functional: B3LYP <=

    B3LYP Hyb-GGA Exchange-Correlation Functional

    P. J. Stephens, F. J. Devlin, C. F. Chabalowski, and M. J. Frisch.,  J. Phys. Chem. 98, 11623 (1994) (10.1021/j100096a001)

    Deriv               =              1
    GGA                 =           TRUE
    Meta                =          FALSE

    Exchange Hybrid     =           TRUE
    MP2 Hybrid          =          FALSE

   => Exchange Functionals <=

    0.0800   Slater exchange
    0.7200         Becke 88

   => Exact (HF) Exchange <=

    0.2000               HF

   => Correlation Functionals <=

    0.1900   Vosko, Wilk & Nusair (VWN5_RPA)
    0.8100   Lee, Yang & Parr

   => LibXC Density Thresholds  <==

    XC_HYB_GGA_XC_B3LYP:  1.00E-15

   => Molecular Quadrature <=

    Radial Scheme          =       TREUTLER
    Pruning Scheme         =           NONE
    Nuclear Scheme         =       TREUTLER

    Blocking Scheme        =         OCTREE
    BS radius alpha        =              1
    Pruning alpha          =              1
    Radial Points          =             75
    Spherical Points       =            302
    Total Points           =          41720
    Total Blocks           =            432
    Max Points             =            252
    Max Functions          =             18
    Weights Tolerance      =       1.00E-15

  -Total Gradient:
     Atom            X                  Y                   Z
    ------   -----------------  -----------------  -----------------
       1        0.000000000000    -0.000000000000    -0.000176367660
       2        0.000000000000    -0.000000000000     0.000175969090

*** tstop() called on Joses-MacBook-Pro-2.local at Thu Jul 17 14:36:02 2025
Module time:
	user time   =       0.83 seconds =       0.01 minutes
	system time =       0.78 seconds =       0.01 minutes
	total time  =          0 seconds =       0.00 minutes
Total time:
	user time   =    1071.81 seconds =      17.86 minutes
	system time =    1122.32 seconds =      18.71 minutes
	total time  =        218 seconds =       3.63 minutes

    			-----------------------------------------

    			 OPTKING 3.0: for geometry optimizations

    			     By R.A. King, Bethel University

    			        with contributions from

    			    A.V. Copan, J. Cayton, A. Heide

    			-----------------------------------------

	                            ===> Fragment 1 <==

	 Z (Atomic Numbers)          Masses                          Geom
	       9.000000            18.998403          0.00000000   0.00000000  21.03140679
	      17.000000            34.968853          0.00000000   0.00000000 -11.42625836

	 - Coordinate -           - BOHR/RAD -       - ANG/DEG -
	 R(1,2)           =        32.457665          17.175857

	        --- Internal Coordinate Step in ANG or DEG, aJ/ANG or AJ/DEG ---
	-------------------------------------------------------------------------------
	           Coordinate      Previous         Force          Change          New
	           ----------      --------        ------          ------        ------
	               R(1,2)      17.17586        0.00145        0.00275      17.17861
	-------------------------------------------------------------------------------

	                                 ==> Convergence Check <==

	Measures of convergence in internal coordinates in au.

	Criteria marked as inactive (o), active & met (*), and active & unmet ( ).

	----------------------------------------------------------------------------------------------
	   Step    Total Energy     Delta E     Max Force     RMS Force      Max Disp      RMS Disp
	----------------------------------------------------------------------------------------------
	  Convergence Criteria     1.00e-06 *    3.00e-04 *             o    1.20e-03 *             o
	----------------------------------------------------------------------------------------------
	   212    -558.64824533   -9.22e-07 *    1.76e-04 *    1.76e-04 o    5.20e-03      5.20e-03 o  ~
	----------------------------------------------------------------------------------------------

Next Geometry in Ang
	Fragment 1 (Ang)

	    F   0.0000000000   0.0000000000  11.1307163114
	   Cl   0.0000000000   0.0000000000  -6.0478906560

    Final optimized geometry and variables:
    Molecular point group: c2v
    Full point group: C_inf_v

    Geometry (in Angstrom), charge = 1, multiplicity = 6:

    F            0.000000000000     0.000000000000    11.129341183313
    CL           0.000000000000     0.000000000000    -6.046515527946

    Psi4 stopped on: Thursday, 17 July 2025 02:36PM
    Psi4 wall time for execution: 0:03:39.42

*** Psi4 exiting successfully. Buy a developer a beer!
