                               Psi4 1.9.1 release

  ==> Input File <==

--------------------------------------------------------------------------
molecule {
1 6
Al   0.00000        0.60000        0.00000
P   0.00000       -0.60000        0.00000
}

set {
basis              cc-pvdz
reference          uks
maxiter            500
geom_maxiter       500
DAMPING_PERCENTAGE 1
guess              SAP
}

optimize('b3lyp')
--------------------------------------------------------------------------

    Molecular point group: c2v
  Charge       = 1
  Multiplicity = 6
  Basis Set: CC-PVDZ
    Blend: CC-PVDZ
  Basis Set: (CC-PVDZ AUX)
    Blend: CC-PVDZ-JKFIT
  @DF-UKS Final Energy:  -581.88999125857106
    Total Energy =                       -581.8899912585711718
 Dipole X            :          0.0000000            0.0000000            0.0000000
 Dipole Y            :          0.0000000            0.0000000            0.0000000
 Dipole Z            :         -0.8028075           -0.0807668           -0.8835743
 Magnitude           :                                                    0.8835743
    Molecular point group: c2v
  Basis Set: CC-PVDZ
    Blend: CC-PVDZ
  Basis Set: (CC-PVDZ AUX)
    Blend: CC-PVDZ-JKFIT
  Basis Set: CC-PVDZ
    Blend: CC-PVDZ
  Basis Set: (CC-PVDZ AUX)
    Blend: CC-PVDZ-JKFIT
  @DF-UKS Final Energy:  -581.91515329104880
    Total Energy =                       -581.9151532910487958
  Basis Set: CC-PVDZ
    Blend: CC-PVDZ
  Basis Set: (CC-PVDZ AUX)
    Blend: CC-PVDZ-JKFIT
  Basis Set: CC-PVDZ
    Blend: CC-PVDZ
  @DF-UKS Final Energy:  -581.96347606340498
    Total Energy =                       -581.9634760634049826
  @DF-UKS Final Energy:  -582.13578228369875
    Total Energy =                       -582.1357822836987452
  @DF-UKS Final Energy:  -582.78365089451631
    Total Energy =                       -582.7836508945163132
  @DF-UKS Final Energy:  -583.03663001535267
    Total Energy =                       -583.0366300153525572
  @DF-UKS Final Energy:  -583.16477133473268
    Total Energy =                       -583.1647713347326771
  @DF-UKS Final Energy:  -583.22899436711407
    Total Energy =                       -583.2289943671139554
  @DF-UKS Final Energy:  -583.26103969877465
    Total Energy =                       -583.2610396987746526
  @DF-UKS Final Energy:  -583.27650710247826
    Total Energy =                       -583.2765071024781491
  @DF-UKS Final Energy:  -583.28349174699235
    Total Energy =                       -583.2834917469923539
  @DF-UKS Final Energy:  -583.28623251900990
    Total Energy =                       -583.2862325190099000
  @DF-UKS Final Energy:  -583.28705019223116
    Total Energy =                       -583.2870501922312769
  @DF-UKS Final Energy:  -583.28717842322271
    Total Energy =                       -583.2871784232227128
  @DF-UKS Final Energy:  -583.28720054716644
    Total Energy =                       -583.2872005471664352
  Basis Set: (CC-PVDZ AUX)
    Blend: CC-PVDZ-JKFIT
  Basis Set: CC-PVDZ
    Blend: CC-PVDZ
  Basis Set: (CC-PVDZ AUX)
    Blend: CC-PVDZ-JKFIT
  @DF-UKS Final Energy:  -583.28720506138143
    Total Energy =                       -583.2872050613814281
  Basis Set: CC-PVDZ
    Blend: CC-PVDZ
  Basis Set: (CC-PVDZ AUX)
    Blend: CC-PVDZ-JKFIT
  Charge       = 1
  Multiplicity = 6
  Basis Set: CC-PVDZ
    Blend: CC-PVDZ
  Basis Set: (CC-PVDZ AUX)
    Blend: CC-PVDZ-JKFIT

    Orbital Energies [Eh]
    ---------------------

    Alpha Occupied:

       1A1   -77.361344     2A1   -56.387995     3A1    -6.828473
       4A1    -4.992402     1B1    -4.991686     1B2    -4.991339
       5A1    -4.462474     2B1    -3.016754     6A1    -3.016053
       2B2    -3.012388     7A1    -0.835589     8A1    -0.609344
       9A1    -0.485949     3B2    -0.483098     3B1    -0.482456
       4B2    -0.370422

    Alpha Virtual:

       4B1    -0.308748    10A1    -0.259855    11A1    -0.055045
      12A1    -0.013056     5B2    -0.012557     5B1    -0.004329
       6B2     0.007388     1A2     0.009970     6B1     0.014241
      13A1     0.016676    14A1     0.068411     7B1     0.204017
       7B2     0.205836     2A2     0.210211    15A1     0.210225
      16A1     0.215505    17A1     0.232905     8B2     0.282537
       8B1     0.283002    18A1     0.519487

    Beta Occupied:

       1A1   -77.348659     2A1   -56.379600     3A1    -6.814788
       4A1    -4.974486     1B1    -4.971721     1B2    -4.970577
       5A1    -4.449932     2B1    -3.008983     6A1    -3.006634
       2B2    -2.995562     7A1    -0.720430

    Beta Virtual:

       8A1    -0.461848     9A1    -0.345918     3B1    -0.338664
       3B2    -0.332375     4B1    -0.246532     4B2    -0.217586
      10A1    -0.187731    11A1    -0.019659    12A1     0.024085
       5B1     0.036806     6B1     0.055917     5B2     0.057074
       6B2     0.078109    13A1     0.091949     1A2     0.095970
      14A1     0.127079     7B1     0.258513     7B2     0.261774
      15A1     0.269249    16A1     0.289520     2A2     0.310221
      17A1     0.310341     8B1     0.359023     8B2     0.366609
      18A1     0.577222

    Final Occupation by Irrep:
             A1    A2    B1    B2
    DOCC [     7,    0,    2,    2 ]
    SOCC [     2,    0,    1,    2 ]
    NA   [     9,    0,    3,    4 ]
    NB   [     7,    0,    2,    2 ]

  @DF-UKS Final Energy:  -583.28720531229806

   => Energetics <=

    Nuclear Repulsion Energy =             36.3398657615895502
    One-Electron Energy =                -873.4356732351086521
    Two-Electron Energy =                 287.2867636279225962
    DFT Exchange-Correlation Energy =     -33.4781614667014651
    Empirical Dispersion Energy =           0.0000000000000000
    VV10 Nonlocal Energy =                  0.0000000000000000
    Total Energy =                       -583.2872053122980560

  UHF NO Occupations:
  HONO-2 :    3 B2 1.0000000
  HONO-1 :    9 A1 1.0000000
  HONO-0 :    4 B2 1.0000000
  LUNO+0 :   10 A1 0.0002116
  LUNO+1 :    4 B1 0.0000011
  LUNO+2 :   11 A1 0.0000009
  LUNO+3 :    5 B2 0.0000002

Computation Completed

Properties will be evaluated at   0.000000,   0.000000,   0.000000 [a0]

Properties computed using the SCF density matrix

 Multipole Moments:

 ------------------------------------------------------------------------------------
     Multipole            Electronic (a.u.)      Nuclear  (a.u.)        Total (a.u.)
 ------------------------------------------------------------------------------------

 L = 1.  Multiply by 2.5417464519 to convert [e a0] to [Debye]
 Dipole X            :          0.0000000            0.0000000            0.0000000
 Dipole Y            :          0.0000000            0.0000000            0.0000000
 Dipole Z            :          1.2405686           -0.1911191            1.0494495
 Magnitude           :                                                    1.0494495

 ------------------------------------------------------------------------------------

*** tstop() called on Joses-MacBook-Pro-2.local at Thu Jul 17 15:19:22 2025
Module time:
	user time   =       6.38 seconds =       0.11 minutes
	system time =       1.47 seconds =       0.02 minutes
	total time  =          1 seconds =       0.02 minutes
Total time:
	user time   =     197.17 seconds =       3.29 minutes
	system time =      49.22 seconds =       0.82 minutes
	total time  =         24 seconds =       0.40 minutes

*** tstart() called on Joses-MacBook-Pro-2.local
*** at Thu Jul 17 15:19:22 2025

         ------------------------------------------------------------
                                   SCF GRAD
                          Rob Parrish, Justin Turney,
                       Andy Simmonett, and Alex Sokolov
         ------------------------------------------------------------

  ==> Geometry <==

    Molecular point group: c2v
    Full point group: C_inf_v

    Geometry (in Angstrom), charge = 1, multiplicity = 6:

       Center              X                  Y                   Z               Mass
    ------------   -----------------  -----------------  -----------------  -----------------
         AL           0.000000000000     0.000000000000     1.517585680889    26.981538530000
         P            0.000000000000     0.000000000000    -1.321983313605    30.973761998420

  Nuclear repulsion =   36.339865761589550

  ==> Basis Set <==

  Basis Set: CC-PVDZ
    Blend: CC-PVDZ
    Number of shells: 16
    Number of basis functions: 36
    Number of Cartesian functions: 38
    Spherical Harmonics?: true
    Max angular momentum: 2

  ==> DFJKGrad: Density-Fitted SCF Gradients <==

    Gradient:                    1
    J tasked:                  Yes
    K tasked:                  Yes
    wK tasked:                  No
    OpenMP threads:              1
    Integrals threads:           1
    Memory [MiB]:              375
    Schwarz Cutoff:          1E-12
    Fitting Condition:       1E-10

   => Auxiliary Basis Set <=

  Basis Set: (CC-PVDZ AUX)
    Blend: CC-PVDZ-JKFIT
    Number of shells: 72
    Number of basis functions: 224
    Number of Cartesian functions: 260
    Spherical Harmonics?: true
    Max angular momentum: 3

  ==> DFT Potential <==

   => LibXC <=

    Version 6.2.2
    S. Lehtola, C. Steigemann, M. J.T. Oliveira, and M. A.L. Marques.,  SoftwareX 7, 1â€“5 (2018) (10.1016/j.softx.2017.11.002)

   => Composite Functional: B3LYP <=

    B3LYP Hyb-GGA Exchange-Correlation Functional

    P. J. Stephens, F. J. Devlin, C. F. Chabalowski, and M. J. Frisch.,  J. Phys. Chem. 98, 11623 (1994) (10.1021/j100096a001)

    Deriv               =              1
    GGA                 =           TRUE
    Meta                =          FALSE

    Exchange Hybrid     =           TRUE
    MP2 Hybrid          =          FALSE

   => Exchange Functionals <=

    0.0800   Slater exchange
    0.7200         Becke 88

   => Exact (HF) Exchange <=

    0.2000               HF

   => Correlation Functionals <=

    0.1900   Vosko, Wilk & Nusair (VWN5_RPA)
    0.8100   Lee, Yang & Parr

   => LibXC Density Thresholds  <==

    XC_HYB_GGA_XC_B3LYP:  1.00E-15

   => Molecular Quadrature <=

    Radial Scheme          =       TREUTLER
    Pruning Scheme         =           NONE
    Nuclear Scheme         =       TREUTLER

    Blocking Scheme        =         OCTREE
    BS radius alpha        =              1
    Pruning alpha          =              1
    Radial Points          =             75
    Spherical Points       =            302
    Total Points           =          42715
    Total Blocks           =            408
    Max Points             =            255
    Max Functions          =             36
    Weights Tolerance      =       1.00E-15

  -Total Gradient:
     Atom            X                  Y                   Z
    ------   -----------------  -----------------  -----------------
       1       -0.000000000000     0.000000000000    -0.000016538391
       2        0.000000000000     0.000000000000     0.000046389721

*** tstop() called on Joses-MacBook-Pro-2.local at Thu Jul 17 15:19:22 2025
Module time:
	user time   =       3.66 seconds =       0.06 minutes
	system time =       1.54 seconds =       0.03 minutes
	total time  =          0 seconds =       0.00 minutes
Total time:
	user time   =     200.84 seconds =       3.35 minutes
	system time =      50.76 seconds =       0.85 minutes
	total time  =         24 seconds =       0.40 minutes

    			-----------------------------------------

    			 OPTKING 3.0: for geometry optimizations

    			     By R.A. King, Bethel University

    			        with contributions from

    			    A.V. Copan, J. Cayton, A. Heide

    			-----------------------------------------

	                            ===> Fragment 1 <==

	 Z (Atomic Numbers)          Masses                          Geom
	      13.000000            26.981539          0.00000000  0.00000000  2.86782131
	      15.000000            30.973762          0.00000000  0.00000000 -2.49818641

	 - Coordinate -           - BOHR/RAD -       - ANG/DEG -
	 R(1,2)           =         5.366008           2.839569

	        --- Internal Coordinate Step in ANG or DEG, aJ/ANG or AJ/DEG ---
	-------------------------------------------------------------------------------
	           Coordinate      Previous         Force          Change          New
	           ----------      --------        ------          ------        ------
	               R(1,2)       2.83957        0.00026        0.00089       2.84046
	-------------------------------------------------------------------------------

	                                 ==> Convergence Check <==

	Measures of convergence in internal coordinates in au.

	Criteria marked as inactive (o), active & met (*), and active & unmet ( ).

	----------------------------------------------------------------------------------------------
	   Step    Total Energy     Delta E     Max Force     RMS Force      Max Disp      RMS Disp
	----------------------------------------------------------------------------------------------
	  Convergence Criteria     1.00e-06 *    3.00e-04 *             o    1.20e-03 *             o
	----------------------------------------------------------------------------------------------
	    17    -583.28720531   -2.51e-07 *    3.15e-05 *    3.15e-05 o    1.67e-03      1.67e-03 o  ~
	----------------------------------------------------------------------------------------------

Next Geometry in Ang
	Fragment 1 (Ang)

	   Al   0.0000000000   0.0000000000   1.5180287108
	    P   0.0000000000   0.0000000000  -1.3224263435

    Final optimized geometry and variables:
    Molecular point group: c2v
    Full point group: C_inf_v

    Geometry (in Angstrom), charge = 1, multiplicity = 6:

    AL           0.000000000000     0.000000000000     1.517585680889
    P            0.000000000000     0.000000000000    -1.321983313605

    Psi4 stopped on: Thursday, 17 July 2025 03:19PM
    Psi4 wall time for execution: 0:00:24.39

*** Psi4 exiting successfully. Buy a developer a beer!
