                               Psi4 1.9.1 release

  ==> Input File <==

--------------------------------------------------------------------------
molecule {
1 6
Be   0.00000        0.60000        0.00000
Ar   0.00000       -0.60000        0.00000
}

set {
basis              cc-pvdz
reference          uks
maxiter            500
geom_maxiter       500
DAMPING_PERCENTAGE 1
guess              SAP
}

optimize('b3lyp')
--------------------------------------------------------------------------

    Molecular point group: c2v
  Charge       = 1
  Multiplicity = 6
  Basis Set: CC-PVDZ
    Blend: CC-PVDZ
  Basis Set: (CC-PVDZ AUX)
    Blend: CC-PVDZ-JKFIT + DEF2-UNIVERSAL-JKFIT
  @DF-UKS Final Energy:  -540.33767488477952
    Total Energy =                       -540.3376748847794033
 Dipole X            :          0.0000000            0.0000000            0.0000000
 Dipole Y            :          0.0000000            0.0000000            0.0000000
 Dipole Z            :         -1.5811675           -0.1097272           -1.6908947
 Magnitude           :                                                    1.6908947
    Molecular point group: c2v
  Basis Set: CC-PVDZ
    Blend: CC-PVDZ
  Basis Set: (CC-PVDZ AUX)
    Blend: CC-PVDZ-JKFIT + DEF2-UNIVERSAL-JKFIT
  Basis Set: CC-PVDZ
    Blend: CC-PVDZ
  Basis Set: (CC-PVDZ AUX)
    Blend: CC-PVDZ-JKFIT + DEF2-UNIVERSAL-JKFIT
  @DF-UKS Final Energy:  -540.52832229584658
    Total Energy =                       -540.5283222958465785
  Basis Set: CC-PVDZ
    Blend: CC-PVDZ
  Basis Set: (CC-PVDZ AUX)
    Blend: CC-PVDZ-JKFIT + DEF2-UNIVERSAL-JKFIT
  Basis Set: CC-PVDZ
    Blend: CC-PVDZ
  @DF-UKS Final Energy:  -540.65808159200606
    Total Energy =                       -540.6580815920060559
  @DF-UKS Final Energy:  -540.74498449948612
    Total Energy =                       -540.7449844994861223
  @DF-UKS Final Energy:  -540.81826443171542
    Total Energy =                       -540.8182644317154200
  @DF-UKS Final Energy:  -540.86346715295269
    Total Energy =                       -540.8634671529526941
  @DF-UKS Final Energy:  -540.87707372698435
    Total Energy =                       -540.8770737269844631
  @DF-UKS Final Energy:  -540.87978819652983
    Total Energy =                       -540.8797881965298302
  @DF-UKS Final Energy:  -540.88005091744401
    Total Energy =                       -540.8800509174438957
  Basis Set: (CC-PVDZ AUX)
    Blend: CC-PVDZ-JKFIT + DEF2-UNIVERSAL-JKFIT
  Basis Set: CC-PVDZ
    Blend: CC-PVDZ
  Basis Set: (CC-PVDZ AUX)
    Blend: CC-PVDZ-JKFIT + DEF2-UNIVERSAL-JKFIT
  @DF-UKS Final Energy:  -540.88005719941896
    Total Energy =                       -540.8800571994189568
  Basis Set: CC-PVDZ
    Blend: CC-PVDZ
  Basis Set: (CC-PVDZ AUX)
    Blend: CC-PVDZ-JKFIT + DEF2-UNIVERSAL-JKFIT
  Charge       = 1
  Multiplicity = 6
  Basis Set: CC-PVDZ
    Blend: CC-PVDZ
  Basis Set: (CC-PVDZ AUX)
    Blend: CC-PVDZ-JKFIT + DEF2-UNIVERSAL-JKFIT

    Orbital Energies [Eh]
    ---------------------

    Alpha Occupied:

       1A1  -115.976612     2A1   -11.977882     3A1    -9.545996
       1B1    -9.545810     1B2    -9.513588     4A1    -4.195703
       5A1    -1.722566     6A1    -1.163571     2B1    -1.161375
       2B2    -1.092268     7A1    -0.435911     3B1    -0.281176
       3B2    -0.276907

    Alpha Virtual:

       8A1    -0.199749     9A1    -0.112888    10A1     0.008741
       4B1     0.023826     4B2     0.032271     5B1     0.043039
       5B2     0.084453    11A1     0.087478     6B1     0.093786
       6B2     0.115490     1A2     0.119174    12A1     0.121351
      13A1     0.227387     2A2     0.312406    14A1     0.312484
      15A1     0.315950     7B1     0.385870     7B2     0.397832
      16A1     0.715277

    Beta Occupied:

       1A1  -115.956291     2A1   -11.958345     3A1    -9.508900
       1B1    -9.508588     1B2    -9.501222     4A1    -4.175363
       5A1    -1.586288     2B2    -1.045773

    Beta Virtual:

       6A1    -0.933990     2B1    -0.932546     7A1    -0.256784
       8A1    -0.152601     3B2    -0.126374     3B1    -0.125536
       9A1    -0.038821    10A1     0.080780     4B1     0.089850
       4B2     0.090323    11A1     0.118885     5B2     0.150159
       5B1     0.151374     6B2     0.168122     6B1     0.180442
       1A2     0.202616    12A1     0.209671    13A1     0.309956
      14A1     0.386991     2A2     0.443954    15A1     0.444456
       7B2     0.483429     7B1     0.485972    16A1     0.779435

    Final Occupation by Irrep:
             A1    A2    B1    B2
    DOCC [     5,    0,    1,    2 ]
    SOCC [     2,    0,    2,    1 ]
    NA   [     7,    0,    3,    3 ]
    NB   [     5,    0,    1,    2 ]

  @DF-UKS Final Energy:  -540.88005733150237

   => Energetics <=

    Nuclear Repulsion Energy =             15.6075403277499358
    One-Electron Energy =                -763.8578441109436881
    Two-Electron Energy =                 234.0735485223903538
    DFT Exchange-Correlation Energy =     -26.7033020706990385
    Empirical Dispersion Energy =           0.0000000000000000
    VV10 Nonlocal Energy =                  0.0000000000000000
    Total Energy =                       -540.8800573315024849

  UHF NO Occupations:
  HONO-2 :    3 B2 1.0000000
  HONO-1 :    3 B1 1.0000000
  HONO-0 :    7 A1 1.0000000
  LUNO+0 :    8 A1 0.0009470
  LUNO+1 :    4 B2 0.0001273
  LUNO+2 :    9 A1 0.0000008
  LUNO+3 :   10 A1 0.0000000

Computation Completed

Properties will be evaluated at   0.000000,   0.000000,   0.000000 [a0]

Properties computed using the SCF density matrix

 Multipole Moments:

 ------------------------------------------------------------------------------------
     Multipole            Electronic (a.u.)      Nuclear  (a.u.)        Total (a.u.)
 ------------------------------------------------------------------------------------

 L = 1.  Multiply by 2.5417464519 to convert [e a0] to [Debye]
 Dipole X            :          0.0000000            0.0000000            0.0000000
 Dipole Y            :          0.0000000            0.0000000            0.0000000
 Dipole Z            :         -2.9887801           -0.2232196           -3.2119996
 Magnitude           :                                                    3.2119996

 ------------------------------------------------------------------------------------

*** tstop() called on Joses-MacBook-Pro-2.local at Thu Jul 17 13:29:28 2025
Module time:
	user time   =       1.60 seconds =       0.03 minutes
	system time =       4.12 seconds =       0.07 minutes
	total time  =          1 seconds =       0.02 minutes
Total time:
	user time   =      35.30 seconds =       0.59 minutes
	system time =      75.91 seconds =       1.27 minutes
	total time  =         11 seconds =       0.18 minutes

*** tstart() called on Joses-MacBook-Pro-2.local
*** at Thu Jul 17 13:29:28 2025

         ------------------------------------------------------------
                                   SCF GRAD
                          Rob Parrish, Justin Turney,
                       Andy Simmonett, and Alex Sokolov
         ------------------------------------------------------------

  ==> Geometry <==

    Molecular point group: c2v
    Full point group: C_inf_v

    Geometry (in Angstrom), charge = 1, multiplicity = 6:

       Center              X                  Y                   Z               Mass
    ------------   -----------------  -----------------  -----------------  -----------------
         BE           0.000000000000     0.000000000000     1.991956934181     9.012183065000
         AR           0.000000000000     0.000000000000    -0.449219469541    39.962383123700

  Nuclear repulsion =   15.607540327749936

  ==> Basis Set <==

  Basis Set: CC-PVDZ
    Blend: CC-PVDZ
    Number of shells: 14
    Number of basis functions: 32
    Number of Cartesian functions: 34
    Spherical Harmonics?: true
    Max angular momentum: 2

  ==> DFJKGrad: Density-Fitted SCF Gradients <==

    Gradient:                    1
    J tasked:                  Yes
    K tasked:                  Yes
    wK tasked:                  No
    OpenMP threads:              1
    Integrals threads:           1
    Memory [MiB]:              375
    Schwarz Cutoff:          1E-12
    Fitting Condition:       1E-10

   => Auxiliary Basis Set <=

  Basis Set: (CC-PVDZ AUX)
    Blend: CC-PVDZ-JKFIT + DEF2-UNIVERSAL-JKFIT
    Number of shells: 53
    Number of basis functions: 163
    Number of Cartesian functions: 190
    Spherical Harmonics?: true
    Max angular momentum: 3

  ==> DFT Potential <==

   => LibXC <=

    Version 6.2.2
    S. Lehtola, C. Steigemann, M. J.T. Oliveira, and M. A.L. Marques.,  SoftwareX 7, 1â€“5 (2018) (10.1016/j.softx.2017.11.002)

   => Composite Functional: B3LYP <=

    B3LYP Hyb-GGA Exchange-Correlation Functional

    P. J. Stephens, F. J. Devlin, C. F. Chabalowski, and M. J. Frisch.,  J. Phys. Chem. 98, 11623 (1994) (10.1021/j100096a001)

    Deriv               =              1
    GGA                 =           TRUE
    Meta                =          FALSE

    Exchange Hybrid     =           TRUE
    MP2 Hybrid          =          FALSE

   => Exchange Functionals <=

    0.0800   Slater exchange
    0.7200         Becke 88

   => Exact (HF) Exchange <=

    0.2000               HF

   => Correlation Functionals <=

    0.1900   Vosko, Wilk & Nusair (VWN5_RPA)
    0.8100   Lee, Yang & Parr

   => LibXC Density Thresholds  <==

    XC_HYB_GGA_XC_B3LYP:  1.00E-15

   => Molecular Quadrature <=

    Radial Scheme          =       TREUTLER
    Pruning Scheme         =           NONE
    Nuclear Scheme         =       TREUTLER

    Blocking Scheme        =         OCTREE
    BS radius alpha        =              1
    Pruning alpha          =              1
    Radial Points          =             75
    Spherical Points       =            302
    Total Points           =          42793
    Total Blocks           =            396
    Max Points             =            254
    Max Functions          =             32
    Weights Tolerance      =       1.00E-15

  -Total Gradient:
     Atom            X                  Y                   Z
    ------   -----------------  -----------------  -----------------
       1        0.000000000000     0.000000000000    -0.000008696358
       2        0.000000000000    -0.000000000000     0.000037232463

*** tstop() called on Joses-MacBook-Pro-2.local at Thu Jul 17 13:29:28 2025
Module time:
	user time   =       0.58 seconds =       0.01 minutes
	system time =       2.02 seconds =       0.03 minutes
	total time  =          0 seconds =       0.00 minutes
Total time:
	user time   =      35.88 seconds =       0.60 minutes
	system time =      77.94 seconds =       1.30 minutes
	total time  =         11 seconds =       0.18 minutes

    			-----------------------------------------

    			 OPTKING 3.0: for geometry optimizations

    			     By R.A. King, Bethel University

    			        with contributions from

    			    A.V. Copan, J. Cayton, A. Heide

    			-----------------------------------------

	                            ===> Fragment 1 <==

	 Z (Atomic Numbers)          Masses                          Geom
	       4.000000             9.012183          0.00000000  0.00000000  3.76425306
	      18.000000            39.962383          0.00000000  0.00000000 -0.84890177

	 - Coordinate -           - BOHR/RAD -       - ANG/DEG -
	 R(1,2)           =         4.613155           2.441176

	        --- Internal Coordinate Step in ANG or DEG, aJ/ANG or AJ/DEG ---
	-------------------------------------------------------------------------------
	           Coordinate      Previous         Force          Change          New
	           ----------      --------        ------          ------        ------
	               R(1,2)       2.44118        0.00019        0.00016       2.44133
	-------------------------------------------------------------------------------

	                                 ==> Convergence Check <==

	Measures of convergence in internal coordinates in au.

	Criteria marked as inactive (o), active & met (*), and active & unmet ( ).

	----------------------------------------------------------------------------------------------
	   Step    Total Energy     Delta E     Max Force     RMS Force      Max Disp      RMS Disp
	----------------------------------------------------------------------------------------------
	  Convergence Criteria     1.00e-06 *    3.00e-04 *             o    1.20e-03 *             o
	----------------------------------------------------------------------------------------------
	    11    -540.88005733   -1.32e-07 *    2.30e-05 *    2.30e-05 o    2.95e-04 *    2.95e-04 o  ~
	----------------------------------------------------------------------------------------------

Next Geometry in Ang
	Fragment 1 (Ang)

	   Be   0.0000000000   0.0000000000   1.9920350121
	   Ar   0.0000000000   0.0000000000  -0.4492975475

    Final optimized geometry and variables:
    Molecular point group: c2v
    Full point group: C_inf_v

    Geometry (in Angstrom), charge = 1, multiplicity = 6:

    BE           0.000000000000     0.000000000000     1.991956934181
    AR           0.000000000000     0.000000000000    -0.449219469541

    Psi4 stopped on: Thursday, 17 July 2025 01:29PM
    Psi4 wall time for execution: 0:00:11.84

*** Psi4 exiting successfully. Buy a developer a beer!
