                               Psi4 1.9.1 release

  ==> Input File <==

--------------------------------------------------------------------------
molecule {
1 6
Li   0.00000        0.60000        0.00000
B   0.00000       -0.60000        0.00000
}

set {
basis              cc-pvdz
reference          uks
maxiter            500
geom_maxiter       500
DAMPING_PERCENTAGE 1
guess              SAP
}

optimize('b3lyp')
--------------------------------------------------------------------------

    Molecular point group: c2v
  Charge       = 1
  Multiplicity = 6
  Basis Set: CC-PVDZ
    Blend: CC-PVDZ
  Basis Set: (CC-PVDZ AUX)
    Blend: CC-PVDZ-JKFIT + DEF2-UNIVERSAL-JKFIT
  @DF-UKS Final Energy:   -29.40098365245536
    Total Energy =                        -29.4009836524553556
 Dipole X            :          0.0000000            0.0000000            0.0000000
 Dipole Y            :          0.0000000            0.0000000            0.0000000
 Dipole Z            :          2.3840224           -0.2581643            2.1258581
 Magnitude           :                                                    2.1258581
    Molecular point group: c2v
  Basis Set: CC-PVDZ
    Blend: CC-PVDZ
  Basis Set: (CC-PVDZ AUX)
    Blend: CC-PVDZ-JKFIT + DEF2-UNIVERSAL-JKFIT
  Basis Set: CC-PVDZ
    Blend: CC-PVDZ
  Basis Set: (CC-PVDZ AUX)
    Blend: CC-PVDZ-JKFIT + DEF2-UNIVERSAL-JKFIT
  @DF-UKS Final Energy:   -29.54900332983606
    Total Energy =                        -29.5490033298360579
  Basis Set: CC-PVDZ
    Blend: CC-PVDZ
  Basis Set: (CC-PVDZ AUX)
    Blend: CC-PVDZ-JKFIT + DEF2-UNIVERSAL-JKFIT
  Basis Set: CC-PVDZ
    Blend: CC-PVDZ
  @DF-UKS Final Energy:   -29.58623551905105
    Total Energy =                        -29.5862355190510513
  @DF-UKS Final Energy:   -29.59978894269484
    Total Energy =                        -29.5997889426948433
  @DF-UKS Final Energy:   -29.60192413066879
    Total Energy =                        -29.6019241306687952
  @DF-UKS Final Energy:   -29.60238147815936
    Total Energy =                        -29.6023814781593586
  @DF-UKS Final Energy:   -29.60243104980493
    Total Energy =                        -29.6024310498049346
  Basis Set: (CC-PVDZ AUX)
    Blend: CC-PVDZ-JKFIT + DEF2-UNIVERSAL-JKFIT
  Basis Set: CC-PVDZ
    Blend: CC-PVDZ
  Basis Set: (CC-PVDZ AUX)
    Blend: CC-PVDZ-JKFIT + DEF2-UNIVERSAL-JKFIT
  @DF-UKS Final Energy:   -29.60243706353891
    Total Energy =                        -29.6024370635389111
  Basis Set: CC-PVDZ
    Blend: CC-PVDZ
  Basis Set: (CC-PVDZ AUX)
    Blend: CC-PVDZ-JKFIT + DEF2-UNIVERSAL-JKFIT
  Charge       = 1
  Multiplicity = 6
  Basis Set: CC-PVDZ
    Blend: CC-PVDZ
  Basis Set: (CC-PVDZ AUX)
    Blend: CC-PVDZ-JKFIT + DEF2-UNIVERSAL-JKFIT

    Orbital Energies [Eh]
    ---------------------

    Alpha Occupied:

       1A1    -7.095024     2A1    -3.550764     3A1    -0.774984
       4A1    -0.486843     1B1    -0.478194     1B2    -0.478194

    Alpha Virtual:

       5A1    -0.389413     2B2    -0.267747     2B1    -0.267747
       6A1    -0.142219     7A1    -0.111012     3B1    -0.103297
       3B2    -0.103297     8A1    -0.053763     1A2    -0.053763
       9A1    -0.038720     4B1     0.041825     4B2     0.041825
       5B2     0.115069     5B1     0.115069    10A1     0.169111
      11A1     0.298099    12A1     0.357949    13A1     0.473458
       2A2     0.473458     6B1     0.600492     6B2     0.600492
      14A1     0.822755

    Beta Occupied:

       1A1    -7.052540

    Beta Virtual:

       2A1    -2.576146     3A1    -0.487998     4A1    -0.335622
       1B2    -0.294332     1B1    -0.294332     5A1    -0.245222
       2B2    -0.162395     2B1    -0.162395     6A1    -0.106954
       7A1    -0.099632     3B2    -0.089088     3B1    -0.089088
       1A2     0.010448     8A1     0.011392     9A1     0.012558
       4B2     0.101117     4B1     0.101117     5B2     0.184548
       5B1     0.184548    10A1     0.245883    11A1     0.388701
      12A1     0.505422     2A2     0.620673    13A1     0.620939
       6B2     0.750200     6B1     0.750200    14A1     1.023105

    Final Occupation by Irrep:
             A1    A2    B1    B2
    DOCC [     1,    0,    0,    0 ]
    SOCC [     3,    0,    1,    1 ]
    NA   [     4,    0,    1,    1 ]
    NB   [     1,    0,    0,    0 ]

  @DF-UKS Final Energy:   -29.60243790030226

   => Energetics <=

    Nuclear Repulsion Energy =              4.5242568496832671
    One-Electron Energy =                 -45.3747469287334724
    Two-Electron Energy =                  15.3579714014630149
    DFT Exchange-Correlation Energy =      -4.1099192227150745
    Empirical Dispersion Energy =           0.0000000000000000
    VV10 Nonlocal Energy =                  0.0000000000000000
    Total Energy =                        -29.6024379003022631

  UHF NO Occupations:
  HONO-2 :    1 B2 1.0000000
  HONO-1 :    1 B1 1.0000000
  HONO-0 :    4 A1 1.0000000
  LUNO+0 :    5 A1 0.0000006
  LUNO+1 :    6 A1 0.0000000
  LUNO+2 :    7 A1 0.0000000
  LUNO+3 :    8 A1 0.0000000

Computation Completed

Properties will be evaluated at   0.000000,   0.000000,   0.000000 [a0]

Properties computed using the SCF density matrix

 Multipole Moments:

 ------------------------------------------------------------------------------------
     Multipole            Electronic (a.u.)      Nuclear  (a.u.)        Total (a.u.)
 ------------------------------------------------------------------------------------

 L = 1.  Multiply by 2.5417464519 to convert [e a0] to [Debye]
 Dipole X            :          0.0000000            0.0000000            0.0000000
 Dipole Y            :          0.0000000            0.0000000            0.0000000
 Dipole Z            :          2.9675094           -0.3774505            2.5900589
 Magnitude           :                                                    2.5900589

 ------------------------------------------------------------------------------------

*** tstop() called on Joses-MacBook-Pro-2.local at Thu Jul 17 12:44:17 2025
Module time:
	user time   =       2.76 seconds =       0.05 minutes
	system time =       3.23 seconds =       0.05 minutes
	total time  =          1 seconds =       0.02 minutes
Total time:
	user time   =      34.64 seconds =       0.58 minutes
	system time =      43.78 seconds =       0.73 minutes
	total time  =          8 seconds =       0.13 minutes

*** tstart() called on Joses-MacBook-Pro-2.local
*** at Thu Jul 17 12:44:17 2025

         ------------------------------------------------------------
                                   SCF GRAD
                          Rob Parrish, Justin Turney,
                       Andy Simmonett, and Alex Sokolov
         ------------------------------------------------------------

  ==> Geometry <==

    Molecular point group: c2v
    Full point group: C_inf_v

    Geometry (in Angstrom), charge = 1, multiplicity = 6:

       Center              X                  Y                   Z               Mass
    ------------   -----------------  -----------------  -----------------  -----------------
         LI           0.000000000000     0.000000000000     1.071574433933     7.016003436600
         B            0.000000000000     0.000000000000    -0.682892304755    11.009305360000

  Nuclear repulsion =    4.524256849683267

  ==> Basis Set <==

  Basis Set: CC-PVDZ
    Blend: CC-PVDZ
    Number of shells: 12
    Number of basis functions: 28
    Number of Cartesian functions: 30
    Spherical Harmonics?: true
    Max angular momentum: 2

  ==> DFJKGrad: Density-Fitted SCF Gradients <==

    Gradient:                    1
    J tasked:                  Yes
    K tasked:                  Yes
    wK tasked:                  No
    OpenMP threads:              1
    Integrals threads:           1
    Memory [MiB]:              375
    Schwarz Cutoff:          1E-12
    Fitting Condition:       1E-10

   => Auxiliary Basis Set <=

  Basis Set: (CC-PVDZ AUX)
    Blend: CC-PVDZ-JKFIT + DEF2-UNIVERSAL-JKFIT
    Number of shells: 41
    Number of basis functions: 121
    Number of Cartesian functions: 141
    Spherical Harmonics?: true
    Max angular momentum: 3

  ==> DFT Potential <==

   => LibXC <=

    Version 6.2.2
    S. Lehtola, C. Steigemann, M. J.T. Oliveira, and M. A.L. Marques.,  SoftwareX 7, 1â€“5 (2018) (10.1016/j.softx.2017.11.002)

   => Composite Functional: B3LYP <=

    B3LYP Hyb-GGA Exchange-Correlation Functional

    P. J. Stephens, F. J. Devlin, C. F. Chabalowski, and M. J. Frisch.,  J. Phys. Chem. 98, 11623 (1994) (10.1021/j100096a001)

    Deriv               =              1
    GGA                 =           TRUE
    Meta                =          FALSE

    Exchange Hybrid     =           TRUE
    MP2 Hybrid          =          FALSE

   => Exchange Functionals <=

    0.0800   Slater exchange
    0.7200         Becke 88

   => Exact (HF) Exchange <=

    0.2000               HF

   => Correlation Functionals <=

    0.1900   Vosko, Wilk & Nusair (VWN5_RPA)
    0.8100   Lee, Yang & Parr

   => LibXC Density Thresholds  <==

    XC_HYB_GGA_XC_B3LYP:  1.00E-15

   => Molecular Quadrature <=

    Radial Scheme          =       TREUTLER
    Pruning Scheme         =           NONE
    Nuclear Scheme         =       TREUTLER

    Blocking Scheme        =         OCTREE
    BS radius alpha        =              1
    Pruning alpha          =              1
    Radial Points          =             75
    Spherical Points       =            302
    Total Points           =          44327
    Total Blocks           =            431
    Max Points             =            256
    Max Functions          =             28
    Weights Tolerance      =       1.00E-15

  -Total Gradient:
     Atom            X                  Y                   Z
    ------   -----------------  -----------------  -----------------
       1        0.000000000000     0.000000000000    -0.000102226856
       2        0.000000000000     0.000000000000     0.000107155668

*** tstop() called on Joses-MacBook-Pro-2.local at Thu Jul 17 12:44:17 2025
Module time:
	user time   =       0.55 seconds =       0.01 minutes
	system time =       1.04 seconds =       0.02 minutes
	total time  =          0 seconds =       0.00 minutes
Total time:
	user time   =      35.19 seconds =       0.59 minutes
	system time =      44.82 seconds =       0.75 minutes
	total time  =          8 seconds =       0.13 minutes

    			-----------------------------------------

    			 OPTKING 3.0: for geometry optimizations

    			     By R.A. King, Bethel University

    			        with contributions from

    			    A.V. Copan, J. Cayton, A. Heide

    			-----------------------------------------

	                            ===> Fragment 1 <==

	 Z (Atomic Numbers)          Masses                          Geom
	       3.000000             7.016003          0.00000000  0.00000000  2.02498220
	       5.000000            11.009305          0.00000000  0.00000000 -1.29047943

	 - Coordinate -           - BOHR/RAD -       - ANG/DEG -
	 R(1,2)           =         3.315462           1.754467

	        --- Internal Coordinate Step in ANG or DEG, aJ/ANG or AJ/DEG ---
	-------------------------------------------------------------------------------
	           Coordinate      Previous         Force          Change          New
	           ----------      --------        ------          ------        ------
	               R(1,2)       1.75447        0.00086        0.00030       1.75477
	-------------------------------------------------------------------------------

	                                 ==> Convergence Check <==

	Measures of convergence in internal coordinates in au.

	Criteria marked as inactive (o), active & met (*), and active & unmet ( ).

	----------------------------------------------------------------------------------------------
	   Step    Total Energy     Delta E     Max Force     RMS Force      Max Disp      RMS Disp
	----------------------------------------------------------------------------------------------
	  Convergence Criteria     1.00e-06 *    3.00e-04 *             o    1.20e-03 *             o
	----------------------------------------------------------------------------------------------
	     9     -29.60243790   -8.37e-07 *    1.05e-04 *    1.05e-04 o    5.70e-04 *    5.70e-04 o  ~
	----------------------------------------------------------------------------------------------

Next Geometry in Ang
	Fragment 1 (Ang)

	   Li   0.0000000000   0.0000000000   1.0717251903
	    B   0.0000000000   0.0000000000  -0.6830430611

    Final optimized geometry and variables:
    Molecular point group: c2v
    Full point group: C_inf_v

    Geometry (in Angstrom), charge = 1, multiplicity = 6:

    LI           0.000000000000     0.000000000000     1.071574433933
    B            0.000000000000     0.000000000000    -0.682892304755

    Psi4 stopped on: Thursday, 17 July 2025 12:44PM
    Psi4 wall time for execution: 0:00:08.15

*** Psi4 exiting successfully. Buy a developer a beer!
