                               Psi4 1.9.1 release

  ==> Input File <==

--------------------------------------------------------------------------
molecule {
1 6
H   0.00000        0.60000        0.00000
Al   0.00000       -0.60000        0.00000
}

set {
basis              cc-pvdz
reference          uks
maxiter            500
geom_maxiter       500
DAMPING_PERCENTAGE 1
guess              SAP
}

optimize('b3lyp')
--------------------------------------------------------------------------

    Molecular point group: c2v
  Charge       = 1
  Multiplicity = 6
  Basis Set: CC-PVDZ
    Blend: CC-PVDZ
  Basis Set: (CC-PVDZ AUX)
    Blend: CC-PVDZ-JKFIT
  @DF-UKS Final Energy:  -239.48187855867604
    Total Energy =                       -239.4818785586760157
 Dipole X            :          0.0000000            0.0000000            0.0000000
 Dipole Y            :          0.0000000            0.0000000            0.0000000
 Dipole Z            :         -0.5121700            1.1245291            0.6123591
 Magnitude           :                                                    0.6123591
    Molecular point group: c2v
  Basis Set: CC-PVDZ
    Blend: CC-PVDZ
  Basis Set: (CC-PVDZ AUX)
    Blend: CC-PVDZ-JKFIT
  Basis Set: CC-PVDZ
    Blend: CC-PVDZ
  Basis Set: (CC-PVDZ AUX)
    Blend: CC-PVDZ-JKFIT
  @DF-UKS Final Energy:  -239.57959177940518
    Total Energy =                       -239.5795917794051775
  Basis Set: CC-PVDZ
    Blend: CC-PVDZ
  Basis Set: (CC-PVDZ AUX)
    Blend: CC-PVDZ-JKFIT
  Basis Set: CC-PVDZ
    Blend: CC-PVDZ
  @DF-UKS Final Energy:  -239.60656390487514
    Total Energy =                       -239.6065639048751450
  @DF-UKS Final Energy:  -239.62187655340676
    Total Energy =                       -239.6218765534067643
  @DF-UKS Final Energy:  -239.62767876378965
    Total Energy =                       -239.6276787637896746
  @DF-UKS Final Energy:  -239.62972290934911
    Total Energy =                       -239.6297229093491126
  @DF-UKS Final Energy:  -239.63015154397172
    Total Energy =                       -239.6301515439717491
  @DF-UKS Final Energy:  -239.63027317920330
    Total Energy =                       -239.6302731792033001
  @DF-UKS Final Energy:  -239.63028829014769
    Total Energy =                       -239.6302882901476892
  Basis Set: (CC-PVDZ AUX)
    Blend: CC-PVDZ-JKFIT
  Basis Set: CC-PVDZ
    Blend: CC-PVDZ
  Basis Set: (CC-PVDZ AUX)
    Blend: CC-PVDZ-JKFIT
  @DF-UKS Final Energy:  -239.63029028509385
    Total Energy =                       -239.6302902850938494
  Basis Set: CC-PVDZ
    Blend: CC-PVDZ
  Basis Set: (CC-PVDZ AUX)
    Blend: CC-PVDZ-JKFIT
  Charge       = 1
  Multiplicity = 6
  Basis Set: CC-PVDZ
    Blend: CC-PVDZ
  Basis Set: (CC-PVDZ AUX)
    Blend: CC-PVDZ-JKFIT

    Orbital Energies [Eh]
    ---------------------

    Alpha Occupied:

       1A1   -57.845741     2A1    -5.361674     1B1    -4.064969
       3A1    -3.906398     1B2    -3.900476     4A1    -0.785141
       5A1    -0.627711     2B1    -0.503194     2B2    -0.487816

    Alpha Virtual:

       6A1    -0.367060     7A1    -0.088903     3B1    -0.068427
       3B2    -0.063686     8A1    -0.060897     1A2    -0.051983
       9A1    -0.051696     4B1    -0.050696     4B2    -0.045926
      10A1     0.054384    11A1     0.238617     5B1     0.944578
       5B2     0.944830    12A1     1.149759

    Beta Occupied:

       1A1   -57.773344     2A1    -5.196458     3A1    -3.835978
       1B2    -3.823424

    Beta Virtual:

       1B1    -3.509719     4A1    -0.550429     5A1    -0.381241
       2B2    -0.286720     2B1    -0.283206     6A1    -0.212959
       7A1    -0.033891     8A1    -0.025308     3B2    -0.006483
       3B1    -0.001452     4B1     0.050551     4B2     0.050782
       1A2     0.085040     9A1     0.087882    10A1     0.148496
      11A1     0.414766     5B1     1.153065     5B2     1.154954
      12A1     1.338257

    Final Occupation by Irrep:
             A1    A2    B1    B2
    DOCC [     3,    0,    0,    1 ]
    SOCC [     2,    0,    2,    1 ]
    NA   [     5,    0,    2,    2 ]
    NB   [     3,    0,    0,    1 ]

  @DF-UKS Final Energy:  -239.63029058172137

   => Energetics <=

    Nuclear Repulsion Energy =              3.1735863631168053
    One-Electron Energy =                -327.2620212821913697
    Two-Electron Energy =                  98.7827973382063078
    DFT Exchange-Correlation Energy =     -14.3246530008531021
    Empirical Dispersion Energy =           0.0000000000000000
    VV10 Nonlocal Energy =                  0.0000000000000000
    Total Energy =                       -239.6302905817213684

  UHF NO Occupations:
  HONO-2 :    2 B2 1.0000000
  HONO-1 :    1 B1 1.0000000
  HONO-0 :    2 B1 1.0000000
  LUNO+0 :    6 A1 0.0000030
  LUNO+1 :    7 A1 0.0000015
  LUNO+2 :    3 B2 0.0000004
  LUNO+3 :    8 A1 0.0000000

Computation Completed

Properties will be evaluated at   0.000000,   0.000000,   0.000000 [a0]

Properties computed using the SCF density matrix

 Multipole Moments:

 ------------------------------------------------------------------------------------
     Multipole            Electronic (a.u.)      Nuclear  (a.u.)        Total (a.u.)
 ------------------------------------------------------------------------------------

 L = 1.  Multiply by 2.5417464519 to convert [e a0] to [Debye]
 Dipole X            :          0.0000000            0.0000000            0.0000000
 Dipole Y            :          0.0000000            0.0000000            0.0000000
 Dipole Z            :         -1.2493367            2.0313447            0.7820080
 Magnitude           :                                                    0.7820080

 ------------------------------------------------------------------------------------

*** tstop() called on Joses-MacBook-Pro-2.local at Thu Jul 17 12:22:30 2025
Module time:
	user time   =       2.33 seconds =       0.04 minutes
	system time =       2.30 seconds =       0.04 minutes
	total time  =          0 seconds =       0.00 minutes
Total time:
	user time   =      38.03 seconds =       0.63 minutes
	system time =      45.91 seconds =       0.77 minutes
	total time  =          8 seconds =       0.13 minutes

*** tstart() called on Joses-MacBook-Pro-2.local
*** at Thu Jul 17 12:22:30 2025

         ------------------------------------------------------------
                                   SCF GRAD
                          Rob Parrish, Justin Turney,
                       Andy Simmonett, and Alex Sokolov
         ------------------------------------------------------------

  ==> Geometry <==

    Molecular point group: c2v
    Full point group: C_inf_v

    Geometry (in Angstrom), charge = 1, multiplicity = 6:

       Center              X                  Y                   Z               Mass
    ------------   -----------------  -----------------  -----------------  -----------------
         H            0.000000000000     0.000000000000     2.089622570898     1.007825032230
         AL           0.000000000000     0.000000000000    -0.078052403592    26.981538530000

  Nuclear repulsion =    3.173586363116805

  ==> Basis Set <==

  Basis Set: CC-PVDZ
    Blend: CC-PVDZ
    Number of shells: 11
    Number of basis functions: 23
    Number of Cartesian functions: 24
    Spherical Harmonics?: true
    Max angular momentum: 2

  ==> DFJKGrad: Density-Fitted SCF Gradients <==

    Gradient:                    1
    J tasked:                  Yes
    K tasked:                  Yes
    wK tasked:                  No
    OpenMP threads:              1
    Integrals threads:           1
    Memory [MiB]:              375
    Schwarz Cutoff:          1E-12
    Fitting Condition:       1E-10

   => Auxiliary Basis Set <=

  Basis Set: (CC-PVDZ AUX)
    Blend: CC-PVDZ-JKFIT
    Number of shells: 45
    Number of basis functions: 135
    Number of Cartesian functions: 155
    Spherical Harmonics?: true
    Max angular momentum: 3

  ==> DFT Potential <==

   => LibXC <=

    Version 6.2.2
    S. Lehtola, C. Steigemann, M. J.T. Oliveira, and M. A.L. Marques.,  SoftwareX 7, 1â€“5 (2018) (10.1016/j.softx.2017.11.002)

   => Composite Functional: B3LYP <=

    B3LYP Hyb-GGA Exchange-Correlation Functional

    P. J. Stephens, F. J. Devlin, C. F. Chabalowski, and M. J. Frisch.,  J. Phys. Chem. 98, 11623 (1994) (10.1021/j100096a001)

    Deriv               =              1
    GGA                 =           TRUE
    Meta                =          FALSE

    Exchange Hybrid     =           TRUE
    MP2 Hybrid          =          FALSE

   => Exchange Functionals <=

    0.0800   Slater exchange
    0.7200         Becke 88

   => Exact (HF) Exchange <=

    0.2000               HF

   => Correlation Functionals <=

    0.1900   Vosko, Wilk & Nusair (VWN5_RPA)
    0.8100   Lee, Yang & Parr

   => LibXC Density Thresholds  <==

    XC_HYB_GGA_XC_B3LYP:  1.00E-15

   => Molecular Quadrature <=

    Radial Scheme          =       TREUTLER
    Pruning Scheme         =           NONE
    Nuclear Scheme         =       TREUTLER

    Blocking Scheme        =         OCTREE
    BS radius alpha        =              1
    Pruning alpha          =              1
    Radial Points          =             75
    Spherical Points       =            302
    Total Points           =          43466
    Total Blocks           =            396
    Max Points             =            256
    Max Functions          =             23
    Weights Tolerance      =       1.00E-15

  -Total Gradient:
     Atom            X                  Y                   Z
    ------   -----------------  -----------------  -----------------
       1        0.000000000000    -0.000000000000    -0.000023817643
       2        0.000000000000    -0.000000000000     0.000022837995

*** tstop() called on Joses-MacBook-Pro-2.local at Thu Jul 17 12:22:30 2025
Module time:
	user time   =       0.50 seconds =       0.01 minutes
	system time =       1.15 seconds =       0.02 minutes
	total time  =          0 seconds =       0.00 minutes
Total time:
	user time   =      38.54 seconds =       0.64 minutes
	system time =      47.06 seconds =       0.78 minutes
	total time  =          8 seconds =       0.13 minutes

    			-----------------------------------------

    			 OPTKING 3.0: for geometry optimizations

    			     By R.A. King, Bethel University

    			        with contributions from

    			    A.V. Copan, J. Cayton, A. Heide

    			-----------------------------------------

	                            ===> Fragment 1 <==

	 Z (Atomic Numbers)          Masses                          Geom
	       1.000000             1.007825          0.00000000  0.00000000  3.94881436
	      13.000000            26.981539          0.00000000  0.00000000 -0.14749767

	 - Coordinate -           - BOHR/RAD -       - ANG/DEG -
	 R(1,2)           =         4.096312           2.167675

	        --- Internal Coordinate Step in ANG or DEG, aJ/ANG or AJ/DEG ---
	-------------------------------------------------------------------------------
	           Coordinate      Previous         Force          Change          New
	           ----------      --------        ------          ------        ------
	               R(1,2)       2.16767        0.00019        0.00054       2.16822
	-------------------------------------------------------------------------------

	                                 ==> Convergence Check <==

	Measures of convergence in internal coordinates in au.

	Criteria marked as inactive (o), active & met (*), and active & unmet ( ).

	----------------------------------------------------------------------------------------------
	   Step    Total Energy     Delta E     Max Force     RMS Force      Max Disp      RMS Disp
	----------------------------------------------------------------------------------------------
	  Convergence Criteria     1.00e-06 *    3.00e-04 *             o    1.20e-03 *             o
	----------------------------------------------------------------------------------------------
	    11    -239.63029058   -2.97e-07 *    2.33e-05 *    2.33e-05 o    1.02e-03 *    1.02e-03 o  ~
	----------------------------------------------------------------------------------------------

Next Geometry in Ang
	Fragment 1 (Ang)

	    H   0.0000000000   0.0000000000   2.0898928834
	   Al   0.0000000000   0.0000000000  -0.0783227161

    Final optimized geometry and variables:
    Molecular point group: c2v
    Full point group: C_inf_v

    Geometry (in Angstrom), charge = 1, multiplicity = 6:

    H            0.000000000000     0.000000000000     2.089622570898
    AL           0.000000000000     0.000000000000    -0.078052403592

    Psi4 stopped on: Thursday, 17 July 2025 12:22PM
    Psi4 wall time for execution: 0:00:08.84

*** Psi4 exiting successfully. Buy a developer a beer!
