                               Psi4 1.9.1 release

  ==> Input File <==

--------------------------------------------------------------------------
molecule {
1 6
O   0.00000        0.60000        0.00000
S   0.00000       -0.60000        0.00000
}

set {
basis              cc-pvdz
reference          uks
maxiter            500
geom_maxiter       500
DAMPING_PERCENTAGE 1
guess              SAP
}

optimize('b3lyp')
--------------------------------------------------------------------------

    Molecular point group: c2v
  Charge       = 1
  Multiplicity = 6
  Basis Set: CC-PVDZ
    Blend: CC-PVDZ
  Basis Set: (CC-PVDZ AUX)
    Blend: CC-PVDZ-JKFIT
  @DF-UKS Final Energy:  -472.10422287561084
    Total Energy =                       -472.1042228756108443
 Dipole X            :          0.0000000            0.0000000            0.0000000
 Dipole Y            :          0.0000000            0.0000000            0.0000000
 Dipole Z            :          0.0415036           -0.0067162            0.0347874
 Magnitude           :                                                    0.0347874
    Molecular point group: c2v
  Basis Set: CC-PVDZ
    Blend: CC-PVDZ
  Basis Set: (CC-PVDZ AUX)
    Blend: CC-PVDZ-JKFIT
  Basis Set: CC-PVDZ
    Blend: CC-PVDZ
  Basis Set: (CC-PVDZ AUX)
    Blend: CC-PVDZ-JKFIT
  @DF-UKS Final Energy:  -472.36079728561413
    Total Energy =                       -472.3607972856141259
  Basis Set: CC-PVDZ
    Blend: CC-PVDZ
  Basis Set: (CC-PVDZ AUX)
    Blend: CC-PVDZ-JKFIT
  Basis Set: CC-PVDZ
    Blend: CC-PVDZ
  @DF-UKS Final Energy:  -472.52575340550999
    Total Energy =                       -472.5257534055099882
  @DF-UKS Final Energy:  -472.64938904014355
    Total Energy =                       -472.6493890401435465
  @DF-UKS Final Energy:  -472.73769809012913
    Total Energy =                       -472.7376980901291290
  @DF-UKS Final Energy:  -472.77666724916674
    Total Energy =                       -472.7766672491666782
  @DF-UKS Final Energy:  -472.79611136915707
    Total Energy =                       -472.7961113691570745
  @DF-UKS Final Energy:  -472.80587061637863
    Total Energy =                       -472.8058706163785700
  @DF-UKS Final Energy:  -472.81082871796059
    Total Energy =                       -472.8108287179605327
  @DF-UKS Final Energy:  -472.81345593665270
    Total Energy =                       -472.8134559366527583
  @DF-UKS Final Energy:  -472.81500206496997
    Total Energy =                       -472.8150020649699741
  @DF-UKS Final Energy:  -472.81614091132570
    Total Energy =                       -472.8161409113257605
  @DF-UKS Final Energy:  -472.81738665597464
    Total Energy =                       -472.8173866559746443
  @DF-UKS Final Energy:  -472.81740135921928
    Total Energy =                       -472.8174013592192182
  @DF-UKS Final Energy:  -472.81741608713571
    Total Energy =                       -472.8174160871357117
  @DF-UKS Final Energy:  -472.81743084041301
    Total Energy =                       -472.8174308404130102
  @DF-UKS Final Energy:  -472.81744561979332
    Total Energy =                       -472.8174456197932614
  @DF-UKS Final Energy:  -472.81746042594870
    Total Energy =                       -472.8174604259486387
  @DF-UKS Final Energy:  -472.81747525938630
    Total Energy =                       -472.8174752593862991
  @DF-UKS Final Energy:  -472.81749012059498
    Total Energy =                       -472.8174901205949823
  @DF-UKS Final Energy:  -472.83334822684662
    Total Energy =                       -472.8333482268466810
  @DF-UKS Final Energy:  -472.83334928079228
    Total Energy =                       -472.8333492807922767
  @DF-UKS Final Energy:  -472.83335033426073
    Total Energy =                       -472.8333503342607287
  @DF-UKS Final Energy:  -472.83335138730581
    Total Energy =                       -472.8333513873058109
  @DF-UKS Final Energy:  -472.83335243982026
    Total Energy =                       -472.8333524398202599
  @DF-UKS Final Energy:  -472.83335349188513
    Total Energy =                       -472.8333534918851342
  @DF-UKS Final Energy:  -472.83335454343944
    Total Energy =                       -472.8333545434394409
  @DF-UKS Final Energy:  -472.83335559454434
    Total Energy =                       -472.8333555945444004
  @DF-UKS Final Energy:  -472.83335664512992
    Total Energy =                       -472.8333566451298680
  @DF-UKS Final Energy:  -472.83335769528230
    Total Energy =                       -472.8333576952822455
  @DF-UKS Final Energy:  -472.83335874490189
    Total Energy =                       -472.8333587449018864
  @DF-UKS Final Energy:  -472.83335979407724
    Total Energy =                       -472.8333597940772393
  @DF-UKS Final Energy:  -472.83336084275720
    Total Energy =                       -472.8333608427572017
  @DF-UKS Final Energy:  -472.83336189095780
    Total Energy =                       -472.8333618909578604
  @DF-UKS Final Energy:  -472.83336293868604
    Total Energy =                       -472.8333629386859798
  @DF-UKS Final Energy:  -472.83336398594741
    Total Energy =                       -472.8333639859474147
  @DF-UKS Final Energy:  -472.83336503270380
    Total Energy =                       -472.8333650327037958
  @DF-UKS Final Energy:  -472.83336607902805
    Total Energy =                       -472.8333660790279964
  Basis Set: (CC-PVDZ AUX)
    Blend: CC-PVDZ-JKFIT
  Basis Set: CC-PVDZ
    Blend: CC-PVDZ
  Basis Set: (CC-PVDZ AUX)
    Blend: CC-PVDZ-JKFIT
  @DF-UKS Final Energy:  -472.83358054545891
    Total Energy =                       -472.8335805454589149
  Basis Set: CC-PVDZ
    Blend: CC-PVDZ
  Basis Set: (CC-PVDZ AUX)
    Blend: CC-PVDZ-JKFIT
  Charge       = 1
  Multiplicity = 6
  Basis Set: CC-PVDZ
    Blend: CC-PVDZ
  Basis Set: (CC-PVDZ AUX)
    Blend: CC-PVDZ-JKFIT

    Orbital Energies [Eh]
    ---------------------

    Alpha Occupied:

       1A1   -89.250458     2A1   -19.498099     3A1    -8.304909
       4A1    -6.271068     1B1    -6.271067     1B2    -6.264960
       5A1    -1.208705     6A1    -1.018275     7A1    -0.637108
       2B1    -0.637077     8A1    -0.600499     3B1    -0.600467
       2B2    -0.586060     3B2    -0.581739

    Alpha Virtual:

       9A1     0.199546    10A1     0.222750     4B1     0.222817
       4B2     0.230601    11A1     0.249661     5B1     0.249661
       5B2     0.260813     1A2     0.260832    12A1     0.264630
      13A1     0.653795     6B1     0.653879     6B2     0.686112
      14A1     0.897316    15A1     2.250977     7B1     2.250978
       7B2     2.292284     2A2     2.292304    16A1     2.306646

    Beta Occupied:

       1A1   -89.234106     2A1   -19.438675     3A1    -8.288395
       4A1    -6.244850     1B1    -6.244848     1B2    -6.243411
       5A1    -1.025063     6A1    -0.888087     2B2    -0.456109

    Beta Virtual:

       3B2    -0.448941     7A1    -0.424135     2B1    -0.424095
       8A1    -0.338928     3B1    -0.338885     9A1     0.244896
       4B2     0.270436    10A1     0.273251     4B1     0.273317
      11A1     0.359928     5B2     0.360498     1A2     0.360519
      12A1     0.365659     5B1     0.365659     6B2     0.740670
      13A1     0.768781     6B1     0.768861    14A1     0.988895
       7B2     2.409636     2A2     2.409657    15A1     2.412983
      16A1     2.429958     7B1     2.429958

    Final Occupation by Irrep:
             A1    A2    B1    B2
    DOCC [     6,    0,    1,    2 ]
    SOCC [     2,    0,    2,    1 ]
    NA   [     8,    0,    3,    3 ]
    NB   [     6,    0,    1,    2 ]

  @DF-UKS Final Energy:  -472.83358148773488

   => Energetics <=

    Nuclear Repulsion Energy =              4.5953603759039785
    One-Electron Energy =                -655.6551366035272395
    Two-Electron Energy =                 205.4424393045686372
    DFT Exchange-Correlation Energy =     -27.2162445646802134
    Empirical Dispersion Energy =           0.0000000000000000
    VV10 Nonlocal Energy =                  0.0000000000000000
    Total Energy =                       -472.8335814877348184

  UHF NO Occupations:
  HONO-2 :    3 B1 1.0000000
  HONO-1 :    7 A1 1.0000000
  HONO-0 :    8 A1 1.0000000
  LUNO+0 :    4 B2 0.0011151
  LUNO+1 :    9 A1 0.0007072
  LUNO+2 :   10 A1 0.0002490
  LUNO+3 :   11 A1 0.0000000

Computation Completed

Properties will be evaluated at   0.000000,   0.000000,   0.000000 [a0]

Properties computed using the SCF density matrix

 Multipole Moments:

 ------------------------------------------------------------------------------------
     Multipole            Electronic (a.u.)      Nuclear  (a.u.)        Total (a.u.)
 ------------------------------------------------------------------------------------

 L = 1.  Multiply by 2.5417464519 to convert [e a0] to [Debye]
 Dipole X            :          0.0000000            0.0000000            0.0000000
 Dipole Y            :          0.0000000            0.0000000            0.0000000
 Dipole Z            :         -1.1152613           -0.0824961           -1.1977575
 Magnitude           :                                                    1.1977575

 ------------------------------------------------------------------------------------

*** tstop() called on Joses-MacBook-Pro-2.local at Thu Jul 17 14:14:06 2025
Module time:
	user time   =       2.97 seconds =       0.05 minutes
	system time =       2.23 seconds =       0.04 minutes
	total time  =          0 seconds =       0.00 minutes
Total time:
	user time   =     925.03 seconds =      15.42 minutes
	system time =     982.52 seconds =      16.38 minutes
	total time  =        187 seconds =       3.12 minutes

*** tstart() called on Joses-MacBook-Pro-2.local
*** at Thu Jul 17 14:14:06 2025

         ------------------------------------------------------------
                                   SCF GRAD
                          Rob Parrish, Justin Turney,
                       Andy Simmonett, and Alex Sokolov
         ------------------------------------------------------------

  ==> Geometry <==

    Molecular point group: c2v
    Full point group: C_inf_v

    Geometry (in Angstrom), charge = 1, multiplicity = 6:

       Center              X                  Y                   Z               Mass
    ------------   -----------------  -----------------  -----------------  -----------------
         O            0.000000000000     0.000000000000     9.824712935286    15.994914619570
         S            0.000000000000     0.000000000000    -4.915084909717    31.972071174400

  Nuclear repulsion =    4.595360375903979

  ==> Basis Set <==

  Basis Set: CC-PVDZ
    Blend: CC-PVDZ
    Number of shells: 14
    Number of basis functions: 32
    Number of Cartesian functions: 34
    Spherical Harmonics?: true
    Max angular momentum: 2

  ==> DFJKGrad: Density-Fitted SCF Gradients <==

    Gradient:                    1
    J tasked:                  Yes
    K tasked:                  Yes
    wK tasked:                  No
    OpenMP threads:              1
    Integrals threads:           1
    Memory [MiB]:              375
    Schwarz Cutoff:          1E-12
    Fitting Condition:       1E-10

   => Auxiliary Basis Set <=

  Basis Set: (CC-PVDZ AUX)
    Blend: CC-PVDZ-JKFIT
    Number of shells: 60
    Number of basis functions: 182
    Number of Cartesian functions: 211
    Spherical Harmonics?: true
    Max angular momentum: 3

  ==> DFT Potential <==

   => LibXC <=

    Version 6.2.2
    S. Lehtola, C. Steigemann, M. J.T. Oliveira, and M. A.L. Marques.,  SoftwareX 7, 1â€“5 (2018) (10.1016/j.softx.2017.11.002)

   => Composite Functional: B3LYP <=

    B3LYP Hyb-GGA Exchange-Correlation Functional

    P. J. Stephens, F. J. Devlin, C. F. Chabalowski, and M. J. Frisch.,  J. Phys. Chem. 98, 11623 (1994) (10.1021/j100096a001)

    Deriv               =              1
    GGA                 =           TRUE
    Meta                =          FALSE

    Exchange Hybrid     =           TRUE
    MP2 Hybrid          =          FALSE

   => Exchange Functionals <=

    0.0800   Slater exchange
    0.7200         Becke 88

   => Exact (HF) Exchange <=

    0.2000               HF

   => Correlation Functionals <=

    0.1900   Vosko, Wilk & Nusair (VWN5_RPA)
    0.8100   Lee, Yang & Parr

   => LibXC Density Thresholds  <==

    XC_HYB_GGA_XC_B3LYP:  1.00E-15

   => Molecular Quadrature <=

    Radial Scheme          =       TREUTLER
    Pruning Scheme         =           NONE
    Nuclear Scheme         =       TREUTLER

    Blocking Scheme        =         OCTREE
    BS radius alpha        =              1
    Pruning alpha          =              1
    Radial Points          =             75
    Spherical Points       =            302
    Total Points           =          41854
    Total Blocks           =            433
    Max Points             =            252
    Max Functions          =             18
    Weights Tolerance      =       1.00E-15

  -Total Gradient:
     Atom            X                  Y                   Z
    ------   -----------------  -----------------  -----------------
       1        0.000000000000     0.000000000000    -0.000212877526
       2        0.000000000000     0.000000000000     0.000214371348

*** tstop() called on Joses-MacBook-Pro-2.local at Thu Jul 17 14:14:06 2025
Module time:
	user time   =       0.57 seconds =       0.01 minutes
	system time =       1.09 seconds =       0.02 minutes
	total time  =          0 seconds =       0.00 minutes
Total time:
	user time   =     925.61 seconds =      15.43 minutes
	system time =     983.61 seconds =      16.39 minutes
	total time  =        187 seconds =       3.12 minutes

    			-----------------------------------------

    			 OPTKING 3.0: for geometry optimizations

    			     By R.A. King, Bethel University

    			        with contributions from

    			    A.V. Copan, J. Cayton, A. Heide

    			-----------------------------------------

	                            ===> Fragment 1 <==

	 Z (Atomic Numbers)          Masses                          Geom
	       8.000000            15.994915          0.00000000   0.00000000  18.56601671
	      16.000000            31.972071          0.00000000  0.00000000 -9.28816436

	 - Coordinate -           - BOHR/RAD -       - ANG/DEG -
	 R(1,2)           =        27.854181          14.739798

	        --- Internal Coordinate Step in ANG or DEG, aJ/ANG or AJ/DEG ---
	-------------------------------------------------------------------------------
	           Coordinate      Previous         Force          Change          New
	           ----------      --------        ------          ------        ------
	               R(1,2)      14.73980        0.00176        0.00232      14.74212
	-------------------------------------------------------------------------------

	                                 ==> Convergence Check <==

	Measures of convergence in internal coordinates in au.

	Criteria marked as inactive (o), active & met (*), and active & unmet ( ).

	----------------------------------------------------------------------------------------------
	   Step    Total Energy     Delta E     Max Force     RMS Force      Max Disp      RMS Disp
	----------------------------------------------------------------------------------------------
	  Convergence Criteria     1.00e-06 *    3.00e-04 *             o    1.20e-03 *             o
	----------------------------------------------------------------------------------------------
	   211    -472.83358149   -9.42e-07 *    2.14e-04 *    2.14e-04 o    4.39e-03      4.39e-03 o  ~
	----------------------------------------------------------------------------------------------

Next Geometry in Ang
	Fragment 1 (Ang)

	    O   0.0000000000   0.0000000000   9.8258739805
	    S   0.0000000000   0.0000000000  -4.9162459549

    Final optimized geometry and variables:
    Molecular point group: c2v
    Full point group: C_inf_v

    Geometry (in Angstrom), charge = 1, multiplicity = 6:

    O            0.000000000000     0.000000000000     9.824712935286
    S            0.000000000000     0.000000000000    -4.915084909717

    Psi4 stopped on: Thursday, 17 July 2025 02:14PM
    Psi4 wall time for execution: 0:03:07.57

*** Psi4 exiting successfully. Buy a developer a beer!
