                               Psi4 1.9.1 release

  ==> Input File <==

--------------------------------------------------------------------------
molecule {
1 6
S   0.00000        0.60000        0.00000
Ar   0.00000       -0.60000        0.00000
}

set {
basis              cc-pvdz
reference          uks
maxiter            500
geom_maxiter       500
DAMPING_PERCENTAGE 1
guess              SAP
}

optimize('b3lyp')
--------------------------------------------------------------------------

    Molecular point group: c2v
  Charge       = 1
  Multiplicity = 6
  Basis Set: CC-PVDZ
    Blend: CC-PVDZ
  Basis Set: (CC-PVDZ AUX)
    Blend: CC-PVDZ-JKFIT
  @DF-UKS Final Energy:  -923.12182203112604
    Total Energy =                       -923.1218220311260438
 Dipole X            :          0.0000000            0.0000000            0.0000000
 Dipole Y            :          0.0000000            0.0000000            0.0000000
 Dipole Z            :         -2.4889657            2.0144189           -0.4745468
 Magnitude           :                                                    0.4745468
    Molecular point group: c2v
  Basis Set: CC-PVDZ
    Blend: CC-PVDZ
  Basis Set: (CC-PVDZ AUX)
    Blend: CC-PVDZ-JKFIT
  Basis Set: CC-PVDZ
    Blend: CC-PVDZ
  Basis Set: (CC-PVDZ AUX)
    Blend: CC-PVDZ-JKFIT
  @DF-UKS Final Energy:  -923.16176862771772
    Total Energy =                       -923.1617686277177199
  Basis Set: CC-PVDZ
    Blend: CC-PVDZ
  Basis Set: (CC-PVDZ AUX)
    Blend: CC-PVDZ-JKFIT
  Basis Set: CC-PVDZ
    Blend: CC-PVDZ
  @DF-UKS Final Energy:  -923.23514089039725
    Total Energy =                       -923.2351408903972469
  @DF-UKS Final Energy:  -923.46888001502327
    Total Energy =                       -923.4688800150232737
  @DF-UKS Final Energy:  -924.00724030658296
    Total Energy =                       -924.0072403065829576
  @DF-UKS Final Energy:  -924.23730275205423
    Total Energy =                       -924.2373027520541200
  @DF-UKS Final Energy:  -924.36851312305441
    Total Energy =                       -924.3685131230542993
  @DF-UKS Final Energy:  -924.43475854163148
    Total Energy =                       -924.4347585416314814
  @DF-UKS Final Energy:  -924.46317690883575
    Total Energy =                       -924.4631769088357487
  @DF-UKS Final Energy:  -924.47196564130343
    Total Energy =                       -924.4719656413035409
  @DF-UKS Final Energy:  -924.47375876296564
    Total Energy =                       -924.4737587629656446
  @DF-UKS Final Energy:  -924.47443546123338
    Total Energy =                       -924.4744354612333836
  @DF-UKS Final Energy:  -924.47461873704003
    Total Energy =                       -924.4746187370400321
  @DF-UKS Final Energy:  -924.47468698858904
    Total Energy =                       -924.4746869885890419
  @DF-UKS Final Energy:  -924.47472820357405
    Total Energy =                       -924.4747282035740454
  @DF-UKS Final Energy:  -924.47474667031781
    Total Energy =                       -924.4747466703178134
  @DF-UKS Final Energy:  -924.47475426998301
    Total Energy =                       -924.4747542699830092
  Basis Set: (CC-PVDZ AUX)
    Blend: CC-PVDZ-JKFIT
  Basis Set: CC-PVDZ
    Blend: CC-PVDZ
  Basis Set: (CC-PVDZ AUX)
    Blend: CC-PVDZ-JKFIT
  @DF-UKS Final Energy:  -924.47475680466175
    Total Energy =                       -924.4747568046617516
  Basis Set: CC-PVDZ
    Blend: CC-PVDZ
  Basis Set: (CC-PVDZ AUX)
    Blend: CC-PVDZ-JKFIT
  Charge       = 1
  Multiplicity = 6
  Basis Set: CC-PVDZ
    Blend: CC-PVDZ
  Basis Set: (CC-PVDZ AUX)
    Blend: CC-PVDZ-JKFIT

    Orbital Energies [Eh]
    ---------------------

    Alpha Occupied:

       1A1  -115.534344     2A1   -89.264618     3A1   -11.558688
       4A1    -9.127267     1B2    -9.103424     1B1    -9.103424
       5A1    -8.304448     2B1    -6.272227     2B2    -6.272227
       6A1    -6.266085     7A1    -1.380277     8A1    -1.047003
       9A1    -0.858011     3B2    -0.797297     3B1    -0.797297
       4B2    -0.608417     4B1    -0.608417    10A1    -0.563128
      11A1     0.059032

    Alpha Virtual:

       5B1     0.165713     5B2     0.165713    12A1     0.193965
      13A1     0.213123     6B1     0.229110     6B2     0.229110
       1A2     0.239698    14A1     0.239698     7B2     0.323923
       7B1     0.323923    15A1     0.359508    16A1     0.411895
      17A1     0.463724     2A2     0.463728     8B1     0.506837
       8B2     0.506837    18A1     0.942516

    Beta Occupied:

       1A1  -115.525651     2A1   -89.243443     3A1   -11.550127
       4A1    -9.101265     1B2    -9.097718     1B1    -9.097718
       5A1    -8.281611     2B1    -6.242674     2B2    -6.242674
       6A1    -6.231910     7A1    -1.318164     8A1    -0.878506
       3B2    -0.772533     3B1    -0.772533

    Beta Virtual:

       9A1    -0.668161     4B2    -0.411425     4B1    -0.411425
      10A1    -0.345483     5B1     0.226422     5B2     0.226422
      11A1     0.248337    12A1     0.261179    13A1     0.276940
       6B1     0.302715     6B2     0.302715     7B2     0.377010
       7B1     0.377010     1A2     0.377310    14A1     0.377313
      15A1     0.432003    16A1     0.480407     2A2     0.480411
      17A1     0.491130     8B1     0.575934     8B2     0.575934
      18A1     1.012950

    Final Occupation by Irrep:
             A1    A2    B1    B2
    DOCC [     8,    0,    3,    3 ]
    SOCC [     3,    0,    1,    1 ]
    NA   [    11,    0,    4,    4 ]
    NB   [     8,    0,    3,    3 ]

  @DF-UKS Final Energy:  -924.47475754476250

   => Energetics <=

    Nuclear Repulsion Energy =             67.5319428635109773
    One-Electron Energy =               -1400.0535218158811404
    Two-Electron Energy =                 453.3672330786386624
    DFT Exchange-Correlation Energy =     -45.3204116710309748
    Empirical Dispersion Energy =           0.0000000000000000
    VV10 Nonlocal Energy =                  0.0000000000000000
    Total Energy =                       -924.4747575447624968

  UHF NO Occupations:
  HONO-2 :    4 B1 1.0000000
  HONO-1 :   10 A1 1.0000000
  HONO-0 :   11 A1 1.0000000
  LUNO+0 :   12 A1 0.0006023
  LUNO+1 :   13 A1 0.0003091
  LUNO+2 :    5 B1 0.0000677
  LUNO+3 :    5 B2 0.0000677

Computation Completed

Properties will be evaluated at   0.000000,   0.000000,   0.000000 [a0]

Properties computed using the SCF density matrix

 Multipole Moments:

 ------------------------------------------------------------------------------------
     Multipole            Electronic (a.u.)      Nuclear  (a.u.)        Total (a.u.)
 ------------------------------------------------------------------------------------

 L = 1.  Multiply by 2.5417464519 to convert [e a0] to [Debye]
 Dipole X            :          0.0000000            0.0000000            0.0000000
 Dipole Y            :          0.0000000            0.0000000            0.0000000
 Dipole Z            :         -4.3724675            3.7883746           -0.5840929
 Magnitude           :                                                    0.5840929

 ------------------------------------------------------------------------------------

*** tstop() called on Joses-MacBook-Pro-2.local at Thu Jul 17 15:59:41 2025
Module time:
	user time   =      13.17 seconds =       0.22 minutes
	system time =       2.31 seconds =       0.04 minutes
	total time  =          2 seconds =       0.03 minutes
Total time:
	user time   =     237.78 seconds =       3.96 minutes
	system time =      56.68 seconds =       0.94 minutes
	total time  =         28 seconds =       0.47 minutes

*** tstart() called on Joses-MacBook-Pro-2.local
*** at Thu Jul 17 15:59:41 2025

         ------------------------------------------------------------
                                   SCF GRAD
                          Rob Parrish, Justin Turney,
                       Andy Simmonett, and Alex Sokolov
         ------------------------------------------------------------

  ==> Geometry <==

    Molecular point group: c2v
    Full point group: C_inf_v

    Geometry (in Angstrom), charge = 1, multiplicity = 6:

       Center              X                  Y                   Z               Mass
    ------------   -----------------  -----------------  -----------------  -----------------
         S            0.000000000000     0.000000000000     1.253714942130    31.972071174400
         AR           0.000000000000     0.000000000000    -1.003039864717    39.962383123700

  Nuclear repulsion =   67.531942863510977

  ==> Basis Set <==

  Basis Set: CC-PVDZ
    Blend: CC-PVDZ
    Number of shells: 16
    Number of basis functions: 36
    Number of Cartesian functions: 38
    Spherical Harmonics?: true
    Max angular momentum: 2

  ==> DFJKGrad: Density-Fitted SCF Gradients <==

    Gradient:                    1
    J tasked:                  Yes
    K tasked:                  Yes
    wK tasked:                  No
    OpenMP threads:              1
    Integrals threads:           1
    Memory [MiB]:              375
    Schwarz Cutoff:          1E-12
    Fitting Condition:       1E-10

   => Auxiliary Basis Set <=

  Basis Set: (CC-PVDZ AUX)
    Blend: CC-PVDZ-JKFIT
    Number of shells: 72
    Number of basis functions: 224
    Number of Cartesian functions: 260
    Spherical Harmonics?: true
    Max angular momentum: 3

  ==> DFT Potential <==

   => LibXC <=

    Version 6.2.2
    S. Lehtola, C. Steigemann, M. J.T. Oliveira, and M. A.L. Marques.,  SoftwareX 7, 1â€“5 (2018) (10.1016/j.softx.2017.11.002)

   => Composite Functional: B3LYP <=

    B3LYP Hyb-GGA Exchange-Correlation Functional

    P. J. Stephens, F. J. Devlin, C. F. Chabalowski, and M. J. Frisch.,  J. Phys. Chem. 98, 11623 (1994) (10.1021/j100096a001)

    Deriv               =              1
    GGA                 =           TRUE
    Meta                =          FALSE

    Exchange Hybrid     =           TRUE
    MP2 Hybrid          =          FALSE

   => Exchange Functionals <=

    0.0800   Slater exchange
    0.7200         Becke 88

   => Exact (HF) Exchange <=

    0.2000               HF

   => Correlation Functionals <=

    0.1900   Vosko, Wilk & Nusair (VWN5_RPA)
    0.8100   Lee, Yang & Parr

   => LibXC Density Thresholds  <==

    XC_HYB_GGA_XC_B3LYP:  1.00E-15

   => Molecular Quadrature <=

    Radial Scheme          =       TREUTLER
    Pruning Scheme         =           NONE
    Nuclear Scheme         =       TREUTLER

    Blocking Scheme        =         OCTREE
    BS radius alpha        =              1
    Pruning alpha          =              1
    Radial Points          =             75
    Spherical Points       =            302
    Total Points           =          40250
    Total Blocks           =            362
    Max Points             =            254
    Max Functions          =             36
    Weights Tolerance      =       1.00E-15

  -Total Gradient:
     Atom            X                  Y                   Z
    ------   -----------------  -----------------  -----------------
       1        0.000000000000     0.000000000000    -0.000102323371
       2       -0.000000000000     0.000000000000     0.000103716505

*** tstop() called on Joses-MacBook-Pro-2.local at Thu Jul 17 15:59:41 2025
Module time:
	user time   =       2.21 seconds =       0.04 minutes
	system time =       1.44 seconds =       0.02 minutes
	total time  =          0 seconds =       0.00 minutes
Total time:
	user time   =     240.00 seconds =       4.00 minutes
	system time =      58.12 seconds =       0.97 minutes
	total time  =         28 seconds =       0.47 minutes

    			-----------------------------------------

    			 OPTKING 3.0: for geometry optimizations

    			     By R.A. King, Bethel University

    			        with contributions from

    			    A.V. Copan, J. Cayton, A. Heide

    			-----------------------------------------

	                            ===> Fragment 1 <==

	 Z (Atomic Numbers)          Masses                          Geom
	      16.000000            31.972071          0.00000000  0.00000000  2.36917788
	      18.000000            39.962383          0.00000000  0.00000000 -1.89547064

	 - Coordinate -           - BOHR/RAD -       - ANG/DEG -
	 R(1,2)           =         4.264649           2.256755

	        --- Internal Coordinate Step in ANG or DEG, aJ/ANG or AJ/DEG ---
	-------------------------------------------------------------------------------
	           Coordinate      Previous         Force          Change          New
	           ----------      --------        ------          ------        ------
	               R(1,2)       2.25675        0.00085        0.00184       2.25859
	-------------------------------------------------------------------------------

	                                 ==> Convergence Check <==

	Measures of convergence in internal coordinates in au.

	Criteria marked as inactive (o), active & met (*), and active & unmet ( ).

	----------------------------------------------------------------------------------------------
	   Step    Total Energy     Delta E     Max Force     RMS Force      Max Disp      RMS Disp
	----------------------------------------------------------------------------------------------
	  Convergence Criteria     1.00e-06 *    3.00e-04 *             o    1.20e-03 *             o
	----------------------------------------------------------------------------------------------
	    19    -924.47475754   -7.40e-07 *    1.03e-04 *    1.03e-04 o    3.47e-03      3.47e-03 o  ~
	----------------------------------------------------------------------------------------------

Next Geometry in Ang
	Fragment 1 (Ang)

	    S   0.0000000000   0.0000000000   1.2546338288
	   Ar   0.0000000000   0.0000000000  -1.0039587514

    Final optimized geometry and variables:
    Molecular point group: c2v
    Full point group: C_inf_v

    Geometry (in Angstrom), charge = 1, multiplicity = 6:

    S            0.000000000000     0.000000000000     1.253714942130
    AR           0.000000000000     0.000000000000    -1.003039864717

    Psi4 stopped on: Thursday, 17 July 2025 03:59PM
    Psi4 wall time for execution: 0:00:28.87

*** Psi4 exiting successfully. Buy a developer a beer!
