                               Psi4 1.9.1 release

  ==> Input File <==

--------------------------------------------------------------------------
molecule {
1 6
Li   0.00000        0.60000        0.00000
Al   0.00000       -0.60000        0.00000
}

set {
basis              cc-pvdz
reference          uks
maxiter            500
geom_maxiter       500
DAMPING_PERCENTAGE 1
guess              SAP
}

optimize('b3lyp')
--------------------------------------------------------------------------

    Molecular point group: c2v
  Charge       = 1
  Multiplicity = 6
  Basis Set: CC-PVDZ
    Blend: CC-PVDZ
  Basis Set: (CC-PVDZ AUX)
    Blend: CC-PVDZ-JKFIT + DEF2-UNIVERSAL-JKFIT
  @DF-UKS Final Energy:  -246.82798767496124
    Total Energy =                       -246.8279876749612356
 Dipole X            :          0.0000000            0.0000000            0.0000000
 Dipole Y            :          0.0000000            0.0000000            0.0000000
 Dipole Z            :          1.0572927           -0.6845814            0.3727113
 Magnitude           :                                                    0.3727113
    Molecular point group: c2v
  Basis Set: CC-PVDZ
    Blend: CC-PVDZ
  Basis Set: (CC-PVDZ AUX)
    Blend: CC-PVDZ-JKFIT + DEF2-UNIVERSAL-JKFIT
  Basis Set: CC-PVDZ
    Blend: CC-PVDZ
  Basis Set: (CC-PVDZ AUX)
    Blend: CC-PVDZ-JKFIT + DEF2-UNIVERSAL-JKFIT
  @DF-UKS Final Energy:  -246.94563449681209
    Total Energy =                       -246.9456344968120902
  Basis Set: CC-PVDZ
    Blend: CC-PVDZ
  Basis Set: (CC-PVDZ AUX)
    Blend: CC-PVDZ-JKFIT + DEF2-UNIVERSAL-JKFIT
  Basis Set: CC-PVDZ
    Blend: CC-PVDZ
  @DF-UKS Final Energy:  -247.09136144913842
    Total Energy =                       -247.0913614491384180
  @DF-UKS Final Energy:  -247.24875109473595
    Total Energy =                       -247.2487510947359510
  @DF-UKS Final Energy:  -247.29215675656530
    Total Energy =                       -247.2921567565653049
  @DF-UKS Final Energy:  -247.31071361550806
    Total Energy =                       -247.3107136155080639
  @DF-UKS Final Energy:  -247.31756341214543
    Total Energy =                       -247.3175634121454323
  @DF-UKS Final Energy:  -247.31975676279635
    Total Energy =                       -247.3197567627963451
  @DF-UKS Final Energy:  -247.32091983375034
    Total Energy =                       -247.3209198337503381
  @DF-UKS Final Energy:  -247.32123316326795
    Total Energy =                       -247.3212331632679479
  @DF-UKS Final Energy:  -247.32133789255954
    Total Energy =                       -247.3213378925595407
  @DF-UKS Final Energy:  -247.32135058273244
    Total Energy =                       -247.3213505827324354
  Basis Set: (CC-PVDZ AUX)
    Blend: CC-PVDZ-JKFIT + DEF2-UNIVERSAL-JKFIT
  Basis Set: CC-PVDZ
    Blend: CC-PVDZ
  Basis Set: (CC-PVDZ AUX)
    Blend: CC-PVDZ-JKFIT + DEF2-UNIVERSAL-JKFIT
  @DF-UKS Final Energy:  -247.32135219910444
    Total Energy =                       -247.3213521991044388
  Basis Set: CC-PVDZ
    Blend: CC-PVDZ
  Basis Set: (CC-PVDZ AUX)
    Blend: CC-PVDZ-JKFIT + DEF2-UNIVERSAL-JKFIT
  Charge       = 1
  Multiplicity = 6
  Basis Set: CC-PVDZ
    Blend: CC-PVDZ
  Basis Set: (CC-PVDZ AUX)
    Blend: CC-PVDZ-JKFIT + DEF2-UNIVERSAL-JKFIT

    Orbital Energies [Eh]
    ---------------------

    Alpha Occupied:

       1A1   -56.361855     2A1    -4.437281     3A1    -3.483819
       4A1    -2.991204     1B2    -2.989579     1B1    -2.989579
       5A1    -0.639609     6A1    -0.447519     2B2    -0.397289
       2B1    -0.397289

    Alpha Virtual:

       7A1    -0.331337     3B2    -0.257741     3B1    -0.257741
       8A1    -0.133960     9A1    -0.101399     4B2    -0.093267
       4B1    -0.093267    10A1    -0.080911     1A2    -0.049903
      11A1    -0.049903     5B2    -0.021583     5B1    -0.021583
      12A1    -0.012983     6B2     0.054231     6B1     0.054231
      13A1     0.075436     2A2     0.075436    14A1     0.085655
      15A1     0.195969     7B2     0.207220     7B1     0.207220
      16A1     0.429949

    Beta Occupied:

       1A1   -56.352977     2A1    -4.424232     3A1    -2.978303
       1B2    -2.977686     1B1    -2.977686

    Beta Virtual:

       4A1    -2.513024     5A1    -0.450116     6A1    -0.287003
       7A1    -0.260950     2B2    -0.247626     2B1    -0.247626
       3B2    -0.170047     3B1    -0.170047     8A1    -0.100434
       9A1    -0.075423     4B1    -0.073550     4B2    -0.073550
      10A1    -0.019013    11A1     0.035206     1A2     0.039626
      12A1     0.039662     5B2     0.052555     5B1     0.052555
       6B2     0.100065     6B1     0.100065    13A1     0.131998
      14A1     0.155293     2A2     0.155338    15A1     0.254510
       7B2     0.279404     7B1     0.279404    16A1     0.512856

    Final Occupation by Irrep:
             A1    A2    B1    B2
    DOCC [     3,    0,    1,    1 ]
    SOCC [     3,    0,    1,    1 ]
    NA   [     6,    0,    2,    2 ]
    NB   [     3,    0,    1,    1 ]

  @DF-UKS Final Energy:  -247.32135227988999

   => Energetics <=

    Nuclear Repulsion Energy =              8.7826592591612567
    One-Electron Energy =                -356.0668913003331681
    Two-Electron Energy =                 115.7942659828453742
    DFT Exchange-Correlation Energy =     -15.8313862215634700
    Empirical Dispersion Energy =           0.0000000000000000
    VV10 Nonlocal Energy =                  0.0000000000000000
    Total Energy =                       -247.3213522798899646

  UHF NO Occupations:
  HONO-2 :    5 A1 1.0000000
  HONO-1 :    2 B1 1.0000000
  HONO-0 :    6 A1 1.0000000
  LUNO+0 :    3 B2 0.0000006
  LUNO+1 :    3 B1 0.0000006
  LUNO+2 :    7 A1 0.0000004
  LUNO+3 :    8 A1 0.0000000

Computation Completed

Properties will be evaluated at   0.000000,   0.000000,   0.000000 [a0]

Properties computed using the SCF density matrix

 Multipole Moments:

 ------------------------------------------------------------------------------------
     Multipole            Electronic (a.u.)      Nuclear  (a.u.)        Total (a.u.)
 ------------------------------------------------------------------------------------

 L = 1.  Multiply by 2.5417464519 to convert [e a0] to [Debye]
 Dipole X            :          0.0000000            0.0000000            0.0000000
 Dipole Y            :          0.0000000            0.0000000            0.0000000
 Dipole Z            :          3.1920511           -1.3405516            1.8514995
 Magnitude           :                                                    1.8514995

 ------------------------------------------------------------------------------------

*** tstop() called on Joses-MacBook-Pro-2.local at Thu Jul 17 12:53:38 2025
Module time:
	user time   =       3.21 seconds =       0.05 minutes
	system time =       2.70 seconds =       0.05 minutes
	total time  =          1 seconds =       0.02 minutes
Total time:
	user time   =      68.96 seconds =       1.15 minutes
	system time =      73.98 seconds =       1.23 minutes
	total time  =         14 seconds =       0.23 minutes

*** tstart() called on Joses-MacBook-Pro-2.local
*** at Thu Jul 17 12:53:38 2025

         ------------------------------------------------------------
                                   SCF GRAD
                          Rob Parrish, Justin Turney,
                       Andy Simmonett, and Alex Sokolov
         ------------------------------------------------------------

  ==> Geometry <==

    Molecular point group: c2v
    Full point group: C_inf_v

    Geometry (in Angstrom), charge = 1, multiplicity = 6:

       Center              X                  Y                   Z               Mass
    ------------   -----------------  -----------------  -----------------  -----------------
         LI           0.000000000000     0.000000000000     1.864914379862     7.016003436600
         AL           0.000000000000     0.000000000000    -0.484933269596    26.981538530000

  Nuclear repulsion =    8.782659259161257

  ==> Basis Set <==

  Basis Set: CC-PVDZ
    Blend: CC-PVDZ
    Number of shells: 14
    Number of basis functions: 32
    Number of Cartesian functions: 34
    Spherical Harmonics?: true
    Max angular momentum: 2

  ==> DFJKGrad: Density-Fitted SCF Gradients <==

    Gradient:                    1
    J tasked:                  Yes
    K tasked:                  Yes
    wK tasked:                  No
    OpenMP threads:              1
    Integrals threads:           1
    Memory [MiB]:              375
    Schwarz Cutoff:          1E-12
    Fitting Condition:       1E-10

   => Auxiliary Basis Set <=

  Basis Set: (CC-PVDZ AUX)
    Blend: CC-PVDZ-JKFIT + DEF2-UNIVERSAL-JKFIT
    Number of shells: 53
    Number of basis functions: 163
    Number of Cartesian functions: 190
    Spherical Harmonics?: true
    Max angular momentum: 3

  ==> DFT Potential <==

   => LibXC <=

    Version 6.2.2
    S. Lehtola, C. Steigemann, M. J.T. Oliveira, and M. A.L. Marques.,  SoftwareX 7, 1â€“5 (2018) (10.1016/j.softx.2017.11.002)

   => Composite Functional: B3LYP <=

    B3LYP Hyb-GGA Exchange-Correlation Functional

    P. J. Stephens, F. J. Devlin, C. F. Chabalowski, and M. J. Frisch.,  J. Phys. Chem. 98, 11623 (1994) (10.1021/j100096a001)

    Deriv               =              1
    GGA                 =           TRUE
    Meta                =          FALSE

    Exchange Hybrid     =           TRUE
    MP2 Hybrid          =          FALSE

   => Exchange Functionals <=

    0.0800   Slater exchange
    0.7200         Becke 88

   => Exact (HF) Exchange <=

    0.2000               HF

   => Correlation Functionals <=

    0.1900   Vosko, Wilk & Nusair (VWN5_RPA)
    0.8100   Lee, Yang & Parr

   => LibXC Density Thresholds  <==

    XC_HYB_GGA_XC_B3LYP:  1.00E-15

   => Molecular Quadrature <=

    Radial Scheme          =       TREUTLER
    Pruning Scheme         =           NONE
    Nuclear Scheme         =       TREUTLER

    Blocking Scheme        =         OCTREE
    BS radius alpha        =              1
    Pruning alpha          =              1
    Radial Points          =             75
    Spherical Points       =            302
    Total Points           =          44301
    Total Blocks           =            450
    Max Points             =            255
    Max Functions          =             32
    Weights Tolerance      =       1.00E-15

  -Total Gradient:
     Atom            X                  Y                   Z
    ------   -----------------  -----------------  -----------------
       1        0.000000000000    -0.000000000000    -0.000008375245
       2        0.000000000000     0.000000000000     0.000008940245

*** tstop() called on Joses-MacBook-Pro-2.local at Thu Jul 17 12:53:38 2025
Module time:
	user time   =       0.99 seconds =       0.02 minutes
	system time =       1.49 seconds =       0.02 minutes
	total time  =          0 seconds =       0.00 minutes
Total time:
	user time   =      69.95 seconds =       1.17 minutes
	system time =      75.47 seconds =       1.26 minutes
	total time  =         14 seconds =       0.23 minutes

    			-----------------------------------------

    			 OPTKING 3.0: for geometry optimizations

    			     By R.A. King, Bethel University

    			        with contributions from

    			    A.V. Copan, J. Cayton, A. Heide

    			-----------------------------------------

	                            ===> Fragment 1 <==

	 Z (Atomic Numbers)          Masses                          Geom
	       3.000000             7.016003          0.00000000  0.00000000  3.52417743
	      13.000000            26.981539          0.00000000  0.00000000 -0.91639107

	 - Coordinate -           - BOHR/RAD -       - ANG/DEG -
	 R(1,2)           =         4.440568           2.349848

	        --- Internal Coordinate Step in ANG or DEG, aJ/ANG or AJ/DEG ---
	-------------------------------------------------------------------------------
	           Coordinate      Previous         Force          Change          New
	           ----------      --------        ------          ------        ------
	               R(1,2)       2.34985        0.00007        0.00013       2.34998
	-------------------------------------------------------------------------------

	                                 ==> Convergence Check <==

	Measures of convergence in internal coordinates in au.

	Criteria marked as inactive (o), active & met (*), and active & unmet ( ).

	----------------------------------------------------------------------------------------------
	   Step    Total Energy     Delta E     Max Force     RMS Force      Max Disp      RMS Disp
	----------------------------------------------------------------------------------------------
	  Convergence Criteria     1.00e-06 *    3.00e-04 *             o    1.20e-03 *             o
	----------------------------------------------------------------------------------------------
	    14    -247.32135228   -8.08e-08 *    8.66e-06 *    8.66e-06 o    2.51e-04 *    2.51e-04 o  ~
	----------------------------------------------------------------------------------------------

Next Geometry in Ang
	Fragment 1 (Ang)

	   Li   0.0000000000   0.0000000000   1.8649808920
	   Al   0.0000000000   0.0000000000  -0.4849997818

    Final optimized geometry and variables:
    Molecular point group: c2v
    Full point group: C_inf_v

    Geometry (in Angstrom), charge = 1, multiplicity = 6:

    LI           0.000000000000     0.000000000000     1.864914379862
    AL           0.000000000000     0.000000000000    -0.484933269596

    Psi4 stopped on: Thursday, 17 July 2025 12:53PM
    Psi4 wall time for execution: 0:00:15.10

*** Psi4 exiting successfully. Buy a developer a beer!
