                               Psi4 1.9.1 release

  ==> Input File <==

--------------------------------------------------------------------------
molecule {
1 6
Mg   0.00000        0.60000        0.00000
Mg   0.00000       -0.60000        0.00000
}

set {
basis              cc-pvdz
reference          uks
maxiter            500
geom_maxiter       500
DAMPING_PERCENTAGE 1
guess              SAP
}

optimize('b3lyp')
--------------------------------------------------------------------------

    Molecular point group: d2h
  Charge       = 1
  Multiplicity = 6
  Basis Set: CC-PVDZ
    Blend: CC-PVDZ
  Basis Set: (CC-PVDZ AUX)
    Blend: DEF2-UNIVERSAL-JKFIT
  @DF-UKS Final Energy:  -397.11927929274276
    Total Energy =                       -397.1192792927428172
 Dipole X            :          0.0000000            0.0000000            0.0000000
 Dipole Y            :          0.0000000            0.0000000            0.0000000
 Dipole Z            :          0.0000000            0.0000000            0.0000000
 Magnitude           :                                                    0.0000000
    Molecular point group: d2h
  Basis Set: CC-PVDZ
    Blend: CC-PVDZ
  Basis Set: (CC-PVDZ AUX)
    Blend: DEF2-UNIVERSAL-JKFIT
  Basis Set: CC-PVDZ
    Blend: CC-PVDZ
  Basis Set: (CC-PVDZ AUX)
    Blend: DEF2-UNIVERSAL-JKFIT
  @DF-UKS Final Energy:  -397.12563358316942
    Total Energy =                       -397.1256335831694173
  Basis Set: CC-PVDZ
    Blend: CC-PVDZ
  Basis Set: (CC-PVDZ AUX)
    Blend: DEF2-UNIVERSAL-JKFIT
  Basis Set: CC-PVDZ
    Blend: CC-PVDZ
  @DF-UKS Final Energy:  -397.13801112777702
    Total Energy =                       -397.1380111277770197
  @DF-UKS Final Energy:  -397.18405727415018
    Total Energy =                       -397.1840572741501205
  @DF-UKS Final Energy:  -397.42254802696579
    Total Energy =                       -397.4225480269657851
  @DF-UKS Final Energy:  -397.62011040467047
    Total Energy =                       -397.6201104046705268
  @DF-UKS Final Energy:  -397.76263011405626
    Total Energy =                       -397.7626301140562646
  @DF-UKS Final Energy:  -397.83470506349494
    Total Energy =                       -397.8347050634949369
  @DF-UKS Final Energy:  -397.86847381104087
    Total Energy =                       -397.8684738110408716
  @DF-UKS Final Energy:  -397.88305388826467
    Total Energy =                       -397.8830538882646692
  @DF-UKS Final Energy:  -397.88750607290859
    Total Energy =                       -397.8875060729085931
  @DF-UKS Final Energy:  -397.88854159358209
    Total Energy =                       -397.8885415935820902
  @DF-UKS Final Energy:  -397.88865464817047
    Total Energy =                       -397.8886546481705295
  @DF-UKS Final Energy:  -397.88866806869527
    Total Energy =                       -397.8886680686952673
  Basis Set: (CC-PVDZ AUX)
    Blend: DEF2-UNIVERSAL-JKFIT
  Basis Set: CC-PVDZ
    Blend: CC-PVDZ
  Basis Set: (CC-PVDZ AUX)
    Blend: DEF2-UNIVERSAL-JKFIT
  @DF-UKS Final Energy:  -397.88866992812990
    Total Energy =                       -397.8886699281299002
  Basis Set: CC-PVDZ
    Blend: CC-PVDZ
  Basis Set: (CC-PVDZ AUX)
    Blend: DEF2-UNIVERSAL-JKFIT
  Charge       = 1
  Multiplicity = 6
  Basis Set: CC-PVDZ
    Blend: CC-PVDZ
  Basis Set: (CC-PVDZ AUX)
    Blend: DEF2-UNIVERSAL-JKFIT

    Orbital Energies [Eh]
    ---------------------

    Alpha Occupied:

       1B2u  -47.746985     1Ag   -47.746985     2Ag    -3.783820
       2B2u   -3.783721     3Ag    -2.588101     3B2u   -2.587840
       1B1g   -2.513129     1B3g   -2.513129     1B3u   -2.513112
       1B1u   -2.513112     4Ag    -0.572641     4B2u   -0.444553
       2B3u   -0.349674     2B1u   -0.349674

    Alpha Virtual:

       5Ag    -0.316006     2B1g   -0.235488     2B3g   -0.235488
       5B2u   -0.148441     6Ag    -0.106631     7Ag    -0.058313
       3B1u   -0.057889     3B3u   -0.057889     6B2u   -0.041484
       3B1g   -0.014642     3B3g   -0.014642     4B1u   -0.007813
       4B3u   -0.007813     1B2g    0.013132     8Ag     0.013133
       7B2u    0.042648     1Au     0.081088     8B2u    0.081088
       9Ag     0.126387     4B3g    0.194677     4B1g    0.194677
       9B2u    0.360624

    Beta Occupied:

       1Ag   -47.717742     1B2u  -47.717736     2Ag    -3.713472
       2B2u   -3.712946     1B1g   -2.480936     1B3g   -2.480936
       1B3u   -2.480928     1B1u   -2.480928     3Ag    -2.379079

    Beta Virtual:

       3B2u   -2.338928     4Ag    -0.413064     4B2u   -0.328479
       5Ag    -0.232217     2B3u   -0.219366     2B1u   -0.219366
       2B1g   -0.158141     2B3g   -0.158141     5B2u   -0.094679
       6Ag    -0.063182     7Ag    -0.032659     3B1u   -0.021142
       3B3u   -0.021142     6B2u   -0.011145     3B1g    0.011780
       3B3g    0.011780     4B1u    0.064094     4B3u    0.064094
       7B2u    0.074294     8Ag     0.099865     1B2g    0.100093
       8B2u    0.159627     1Au     0.159837     9Ag     0.182772
       4B3g    0.260981     4B1g    0.260981     9B2u    0.413672

    Final Occupation by Irrep:
             Ag   B1g   B2g   B3g    Au   B1u   B2u   B3u
    DOCC [     3,    1,    0,    1,    0,    1,    2,    1 ]
    SOCC [     1,    0,    0,    0,    0,    1,    2,    1 ]
    NA   [     4,    1,    0,    1,    0,    2,    4,    2 ]
    NB   [     3,    1,    0,    1,    0,    1,    2,    1 ]

  @DF-UKS Final Energy:  -397.88867000878901

   => Energetics <=

    Nuclear Repulsion Energy =             27.8402386943319264
    One-Electron Energy =                -597.9447313229726433
    Two-Electron Energy =                 197.8901864246964806
    DFT Exchange-Correlation Energy =     -25.6743638048447309
    Empirical Dispersion Energy =           0.0000000000000000
    VV10 Nonlocal Energy =                  0.0000000000000000
    Total Energy =                       -397.8886700087890063

  UHF NO Occupations:
  HONO-2 :    4B2u 1.0000000
  HONO-1 :    2B3u 1.0000000
  HONO-0 :    2B1u 1.0000000
  LUNO+0 :    5 Ag 0.0000614
  LUNO+1 :    5B2u 0.0000012
  LUNO+2 :    6 Ag 0.0000011
  LUNO+3 :    2B3g 0.0000004

Computation Completed

Properties will be evaluated at   0.000000,   0.000000,   0.000000 [a0]

Properties computed using the SCF density matrix

 Multipole Moments:

 ------------------------------------------------------------------------------------
     Multipole            Electronic (a.u.)      Nuclear  (a.u.)        Total (a.u.)
 ------------------------------------------------------------------------------------

 L = 1.  Multiply by 2.5417464519 to convert [e a0] to [Debye]
 Dipole X            :          0.0000000            0.0000000            0.0000000
 Dipole Y            :          0.0000000            0.0000000            0.0000000
 Dipole Z            :          0.0000000            0.0000000            0.0000000
 Magnitude           :                                                    0.0000000

 ------------------------------------------------------------------------------------

*** tstop() called on Joses-MacBook-Pro-2.local at Thu Jul 17 15:04:15 2025
Module time:
	user time   =       4.82 seconds =       0.08 minutes
	system time =       2.59 seconds =       0.04 minutes
	total time  =          0 seconds =       0.00 minutes
Total time:
	user time   =     158.65 seconds =       2.64 minutes
	system time =      68.05 seconds =       1.13 minutes
	total time  =         21 seconds =       0.35 minutes

*** tstart() called on Joses-MacBook-Pro-2.local
*** at Thu Jul 17 15:04:15 2025

         ------------------------------------------------------------
                                   SCF GRAD
                          Rob Parrish, Justin Turney,
                       Andy Simmonett, and Alex Sokolov
         ------------------------------------------------------------

  ==> Geometry <==

    Molecular point group: d2h
    Full point group: D_inf_h

    Geometry (in Angstrom), charge = 1, multiplicity = 6:

       Center              X                  Y                   Z               Mass
    ------------   -----------------  -----------------  -----------------  -----------------
         MG          -0.000000000000     1.368550018071     0.000000000000    23.985041697000
         MG           0.000000000000    -1.368550018071     0.000000000000    23.985041697000

  Nuclear repulsion =   27.840238694331926

  ==> Basis Set <==

  Basis Set: CC-PVDZ
    Blend: CC-PVDZ
    Number of shells: 16
    Number of basis functions: 36
    Number of Cartesian functions: 38
    Spherical Harmonics?: true
    Max angular momentum: 2

  ==> DFJKGrad: Density-Fitted SCF Gradients <==

    Gradient:                    1
    J tasked:                  Yes
    K tasked:                  Yes
    wK tasked:                  No
    OpenMP threads:              1
    Integrals threads:           1
    Memory [MiB]:              375
    Schwarz Cutoff:          1E-12
    Fitting Condition:       1E-10

   => Auxiliary Basis Set <=

  Basis Set: (CC-PVDZ AUX)
    Blend: DEF2-UNIVERSAL-JKFIT
    Number of shells: 68
    Number of basis functions: 224
    Number of Cartesian functions: 274
    Spherical Harmonics?: true
    Max angular momentum: 4

  ==> DFT Potential <==

   => LibXC <=

    Version 6.2.2
    S. Lehtola, C. Steigemann, M. J.T. Oliveira, and M. A.L. Marques.,  SoftwareX 7, 1â€“5 (2018) (10.1016/j.softx.2017.11.002)

   => Composite Functional: B3LYP <=

    B3LYP Hyb-GGA Exchange-Correlation Functional

    P. J. Stephens, F. J. Devlin, C. F. Chabalowski, and M. J. Frisch.,  J. Phys. Chem. 98, 11623 (1994) (10.1021/j100096a001)

    Deriv               =              1
    GGA                 =           TRUE
    Meta                =          FALSE

    Exchange Hybrid     =           TRUE
    MP2 Hybrid          =          FALSE

   => Exchange Functionals <=

    0.0800   Slater exchange
    0.7200         Becke 88

   => Exact (HF) Exchange <=

    0.2000               HF

   => Correlation Functionals <=

    0.1900   Vosko, Wilk & Nusair (VWN5_RPA)
    0.8100   Lee, Yang & Parr

   => LibXC Density Thresholds  <==

    XC_HYB_GGA_XC_B3LYP:  1.00E-15

   => Molecular Quadrature <=

    Radial Scheme          =       TREUTLER
    Pruning Scheme         =           NONE
    Nuclear Scheme         =       TREUTLER

    Blocking Scheme        =         OCTREE
    BS radius alpha        =              1
    Pruning alpha          =              1
    Radial Points          =             75
    Spherical Points       =            302
    Total Points           =          42370
    Total Blocks           =            412
    Max Points             =            255
    Max Functions          =             36
    Weights Tolerance      =       1.00E-15

  -Total Gradient:
     Atom            X                  Y                   Z
    ------   -----------------  -----------------  -----------------
       1        0.000000000000    -0.000013576763    -0.000000000000
       2       -0.000000000000     0.000013576763    -0.000000000000

*** tstop() called on Joses-MacBook-Pro-2.local at Thu Jul 17 15:04:16 2025
Module time:
	user time   =       3.00 seconds =       0.05 minutes
	system time =       1.38 seconds =       0.02 minutes
	total time  =          1 seconds =       0.02 minutes
Total time:
	user time   =     161.65 seconds =       2.69 minutes
	system time =      69.43 seconds =       1.16 minutes
	total time  =         22 seconds =       0.37 minutes

    			-----------------------------------------

    			 OPTKING 3.0: for geometry optimizations

    			     By R.A. King, Bethel University

    			        with contributions from

    			    A.V. Copan, J. Cayton, A. Heide

    			-----------------------------------------

	                            ===> Fragment 1 <==

	 Z (Atomic Numbers)          Masses                          Geom
	      12.000000            23.985042         -0.00000000  2.58618472  0.00000000
	      12.000000            23.985042          0.00000000 -2.58618472  0.00000000

	 - Coordinate -           - BOHR/RAD -       - ANG/DEG -
	 R(1,2)           =         5.172369           2.737100

	        --- Internal Coordinate Step in ANG or DEG, aJ/ANG or AJ/DEG ---
	-------------------------------------------------------------------------------
	           Coordinate      Previous         Force          Change          New
	           ----------      --------        ------          ------        ------
	               R(1,2)       2.73710        0.00011        0.00018       2.73728
	-------------------------------------------------------------------------------

	                                 ==> Convergence Check <==

	Measures of convergence in internal coordinates in au.

	Criteria marked as inactive (o), active & met (*), and active & unmet ( ).

	----------------------------------------------------------------------------------------------
	   Step    Total Energy     Delta E     Max Force     RMS Force      Max Disp      RMS Disp
	----------------------------------------------------------------------------------------------
	  Convergence Criteria     1.00e-06 *    3.00e-04 *             o    1.20e-03 *             o
	----------------------------------------------------------------------------------------------
	    16    -397.88867001   -8.07e-08 *    1.36e-05 *    1.36e-05 o    3.43e-04 *    3.43e-04 o  ~
	----------------------------------------------------------------------------------------------

Next Geometry in Ang
	Fragment 1 (Ang)

	   Mg  -0.0000000000   1.3686407360   0.0000000000
	   Mg   0.0000000000  -1.3686407360   0.0000000000

    Final optimized geometry and variables:
    Molecular point group: d2h
    Full point group: D_inf_h

    Geometry (in Angstrom), charge = 1, multiplicity = 6:

    MG          -0.000000000000     1.368550018071     0.000000000000
    MG           0.000000000000    -1.368550018071     0.000000000000

    Psi4 stopped on: Thursday, 17 July 2025 03:04PM
    Psi4 wall time for execution: 0:00:22.43

*** Psi4 exiting successfully. Buy a developer a beer!
