                               Psi4 1.9.1 release

  ==> Input File <==

--------------------------------------------------------------------------
molecule {
1 6
Na   0.00000        0.60000        0.00000
Al   0.00000       -0.60000        0.00000
}

set {
basis              cc-pvdz
reference          uks
maxiter            500
geom_maxiter       500
DAMPING_PERCENTAGE 1
guess              SAP
}

optimize('b3lyp')
--------------------------------------------------------------------------

    Molecular point group: c2v
  Charge       = 1
  Multiplicity = 6
  Basis Set: CC-PVDZ
    Blend: CC-PVDZ
  Basis Set: (CC-PVDZ AUX)
    Blend: CC-PVDZ-JKFIT + DEF2-UNIVERSAL-JKFIT
  @DF-UKS Final Energy:  -402.16067237314235
    Total Energy =                       -402.1606723731423472
 Dipole X            :          0.0000000            0.0000000            0.0000000
 Dipole Y            :          0.0000000            0.0000000            0.0000000
 Dipole Z            :          0.7063146           -0.0939390            0.6123756
 Magnitude           :                                                    0.6123756
    Molecular point group: c2v
  Basis Set: CC-PVDZ
    Blend: CC-PVDZ
  Basis Set: (CC-PVDZ AUX)
    Blend: CC-PVDZ-JKFIT + DEF2-UNIVERSAL-JKFIT
  Basis Set: CC-PVDZ
    Blend: CC-PVDZ
  Basis Set: (CC-PVDZ AUX)
    Blend: CC-PVDZ-JKFIT + DEF2-UNIVERSAL-JKFIT
  @DF-UKS Final Energy:  -402.17062711468424
    Total Energy =                       -402.1706271146842369
  Basis Set: CC-PVDZ
    Blend: CC-PVDZ
  Basis Set: (CC-PVDZ AUX)
    Blend: CC-PVDZ-JKFIT + DEF2-UNIVERSAL-JKFIT
  Basis Set: CC-PVDZ
    Blend: CC-PVDZ
  @DF-UKS Final Energy:  -402.18984455867599
    Total Energy =                       -402.1898445586759863
  @DF-UKS Final Energy:  -402.25961248836245
    Total Energy =                       -402.2596124883624498
  @DF-UKS Final Energy:  -402.57617769712743
    Total Energy =                       -402.5761776971274912
  @DF-UKS Final Energy:  -402.75753870694263
    Total Energy =                       -402.7575387069426824
  @DF-UKS Final Energy:  -402.88774676531398
    Total Energy =                       -402.8877467653139774
  @DF-UKS Final Energy:  -402.96204093086027
    Total Energy =                       -402.9620409308602689
  @DF-UKS Final Energy:  -402.99348918894623
    Total Energy =                       -402.9934891889462278
  @DF-UKS Final Energy:  -403.00759313289007
    Total Energy =                       -403.0075931328900651
  @DF-UKS Final Energy:  -403.01584034737766
    Total Energy =                       -403.0158403473776616
  @DF-UKS Final Energy:  -403.02071190716549
    Total Energy =                       -403.0207119071654347
  @DF-UKS Final Energy:  -403.02226876415898
    Total Energy =                       -403.0222687641590369
  @DF-UKS Final Energy:  -403.02243609634513
    Total Energy =                       -403.0224360963451318
  Basis Set: (CC-PVDZ AUX)
    Blend: CC-PVDZ-JKFIT + DEF2-UNIVERSAL-JKFIT
  Basis Set: CC-PVDZ
    Blend: CC-PVDZ
  Basis Set: (CC-PVDZ AUX)
    Blend: CC-PVDZ-JKFIT + DEF2-UNIVERSAL-JKFIT
  @DF-UKS Final Energy:  -403.02244207162289
    Total Energy =                       -403.0224420716228337
  Basis Set: CC-PVDZ
    Blend: CC-PVDZ
  Basis Set: (CC-PVDZ AUX)
    Blend: CC-PVDZ-JKFIT + DEF2-UNIVERSAL-JKFIT
  Charge       = 1
  Multiplicity = 6
  Basis Set: CC-PVDZ
    Blend: CC-PVDZ
  Basis Set: (CC-PVDZ AUX)
    Blend: CC-PVDZ-JKFIT + DEF2-UNIVERSAL-JKFIT

    Orbital Energies [Eh]
    ---------------------

    Alpha Occupied:

       1A1   -56.307456     2A1   -39.986495     3A1    -4.385529
       4A1    -3.270947     5A1    -2.940399     1B1    -2.937389
       1B2    -2.937255     2B1    -2.284024     6A1    -2.166212
       2B2    -2.164248     7A1    -0.570517     8A1    -0.418963
       3B1    -0.339353     3B2    -0.338279

    Alpha Virtual:

       9A1    -0.295830     4B1    -0.228260     4B2    -0.222808
      10A1    -0.161632    11A1    -0.099662     5B1    -0.087513
       5B2    -0.085470     1A2    -0.078664    12A1    -0.078564
      13A1    -0.074529     6B1    -0.059698     6B2    -0.057628
      14A1    -0.033653     7B1     0.057449     7B2     0.057531
       2A2     0.069137    15A1     0.069148    16A1     0.085454
      17A1     0.103515     8B1     0.149416     8B2     0.150525
      18A1     0.307148

    Beta Occupied:

       1A1   -56.298420     2A1   -39.943030     3A1    -4.372271
       4A1    -3.151936     5A1    -2.930989     1B1    -2.923456
       1B2    -2.923034     6A1    -2.121043     2B2    -2.118985

    Beta Virtual:

       2B1    -1.882998     7A1    -0.406276     8A1    -0.319601
       9A1    -0.226719     3B2    -0.213597     3B1    -0.211841
       4B2    -0.162514     4B1    -0.161643    10A1    -0.118737
      11A1    -0.078980     5B2    -0.065292     5B1    -0.063533
      12A1    -0.054741     1A2    -0.034081    13A1    -0.032370
       6B1    -0.017131     6B2    -0.016976    14A1     0.006554
       7B1     0.110109     7B2     0.110384    15A1     0.135798
      16A1     0.148276     2A2     0.169821    17A1     0.169953
       8B1     0.224228     8B2     0.224569    18A1     0.359927

    Final Occupation by Irrep:
             A1    A2    B1    B2
    DOCC [     6,    0,    1,    2 ]
    SOCC [     2,    0,    2,    1 ]
    NA   [     8,    0,    3,    3 ]
    NB   [     6,    0,    1,    2 ]

  @DF-UKS Final Energy:  -403.02244228553707

   => Energetics <=

    Nuclear Repulsion Energy =             25.3231515656317789
    One-Electron Energy =                -600.4240727129847528
    Two-Electron Energy =                 197.8896336204216482
    DFT Exchange-Correlation Energy =     -25.8111547586056993
    Empirical Dispersion Energy =           0.0000000000000000
    VV10 Nonlocal Energy =                  0.0000000000000000
    Total Energy =                       -403.0224422855370676

  UHF NO Occupations:
  HONO-2 :    3 B1 1.0000000
  HONO-1 :    3 B2 1.0000000
  HONO-0 :    8 A1 1.0000000
  LUNO+0 :    9 A1 0.0000035
  LUNO+1 :   10 A1 0.0000020
  LUNO+2 :    4 B2 0.0000017
  LUNO+3 :    4 B1 0.0000004

Computation Completed

Properties will be evaluated at   0.000000,   0.000000,   0.000000 [a0]

Properties computed using the SCF density matrix

 Multipole Moments:

 ------------------------------------------------------------------------------------
     Multipole            Electronic (a.u.)      Nuclear  (a.u.)        Total (a.u.)
 ------------------------------------------------------------------------------------

 L = 1.  Multiply by 2.5417464519 to convert [e a0] to [Debye]
 Dipole X            :          0.0000000            0.0000000            0.0000000
 Dipole Y            :          0.0000000            0.0000000            0.0000000
 Dipole Z            :          2.1745473           -0.2339290            1.9406183
 Magnitude           :                                                    1.9406183

 ------------------------------------------------------------------------------------

*** tstop() called on Joses-MacBook-Pro-2.local at Thu Jul 17 14:50:05 2025
Module time:
	user time   =      10.11 seconds =       0.17 minutes
	system time =       1.54 seconds =       0.03 minutes
	total time  =          2 seconds =       0.03 minutes
Total time:
	user time   =     214.56 seconds =       3.58 minutes
	system time =      57.84 seconds =       0.96 minutes
	total time  =         27 seconds =       0.45 minutes

*** tstart() called on Joses-MacBook-Pro-2.local
*** at Thu Jul 17 14:50:05 2025

         ------------------------------------------------------------
                                   SCF GRAD
                          Rob Parrish, Justin Turney,
                       Andy Simmonett, and Alex Sokolov
         ------------------------------------------------------------

  ==> Geometry <==

    Molecular point group: c2v
    Full point group: C_inf_v

    Geometry (in Angstrom), charge = 1, multiplicity = 6:

       Center              X                  Y                   Z               Mass
    ------------   -----------------  -----------------  -----------------  -----------------
         NA           0.000000000000     0.000000000000     1.613486776497    22.989769282000
         AL           0.000000000000     0.000000000000    -1.374780340638    26.981538530000

  Nuclear repulsion =   25.323151565631779

  ==> Basis Set <==

  Basis Set: CC-PVDZ
    Blend: CC-PVDZ
    Number of shells: 16
    Number of basis functions: 36
    Number of Cartesian functions: 38
    Spherical Harmonics?: true
    Max angular momentum: 2

  ==> DFJKGrad: Density-Fitted SCF Gradients <==

    Gradient:                    1
    J tasked:                  Yes
    K tasked:                  Yes
    wK tasked:                  No
    OpenMP threads:              1
    Integrals threads:           1
    Memory [MiB]:              375
    Schwarz Cutoff:          1E-12
    Fitting Condition:       1E-10

   => Auxiliary Basis Set <=

  Basis Set: (CC-PVDZ AUX)
    Blend: CC-PVDZ-JKFIT + DEF2-UNIVERSAL-JKFIT
    Number of shells: 70
    Number of basis functions: 224
    Number of Cartesian functions: 267
    Spherical Harmonics?: true
    Max angular momentum: 4

  ==> DFT Potential <==

   => LibXC <=

    Version 6.2.2
    S. Lehtola, C. Steigemann, M. J.T. Oliveira, and M. A.L. Marques.,  SoftwareX 7, 1â€“5 (2018) (10.1016/j.softx.2017.11.002)

   => Composite Functional: B3LYP <=

    B3LYP Hyb-GGA Exchange-Correlation Functional

    P. J. Stephens, F. J. Devlin, C. F. Chabalowski, and M. J. Frisch.,  J. Phys. Chem. 98, 11623 (1994) (10.1021/j100096a001)

    Deriv               =              1
    GGA                 =           TRUE
    Meta                =          FALSE

    Exchange Hybrid     =           TRUE
    MP2 Hybrid          =          FALSE

   => Exchange Functionals <=

    0.0800   Slater exchange
    0.7200         Becke 88

   => Exact (HF) Exchange <=

    0.2000               HF

   => Correlation Functionals <=

    0.1900   Vosko, Wilk & Nusair (VWN5_RPA)
    0.8100   Lee, Yang & Parr

   => LibXC Density Thresholds  <==

    XC_HYB_GGA_XC_B3LYP:  1.00E-15

   => Molecular Quadrature <=

    Radial Scheme          =       TREUTLER
    Pruning Scheme         =           NONE
    Nuclear Scheme         =       TREUTLER

    Blocking Scheme        =         OCTREE
    BS radius alpha        =              1
    Pruning alpha          =              1
    Radial Points          =             75
    Spherical Points       =            302
    Total Points           =          43866
    Total Blocks           =            454
    Max Points             =            256
    Max Functions          =             36
    Weights Tolerance      =       1.00E-15

  -Total Gradient:
     Atom            X                  Y                   Z
    ------   -----------------  -----------------  -----------------
       1       -0.000000000000     0.000000000000    -0.000012312267
       2        0.000000000000     0.000000000000     0.000021635598

*** tstop() called on Joses-MacBook-Pro-2.local at Thu Jul 17 14:50:05 2025
Module time:
	user time   =       2.71 seconds =       0.05 minutes
	system time =       1.71 seconds =       0.03 minutes
	total time  =          0 seconds =       0.00 minutes
Total time:
	user time   =     217.27 seconds =       3.62 minutes
	system time =      59.55 seconds =       0.99 minutes
	total time  =         27 seconds =       0.45 minutes

    			-----------------------------------------

    			 OPTKING 3.0: for geometry optimizations

    			     By R.A. King, Bethel University

    			        with contributions from

    			    A.V. Copan, J. Cayton, A. Heide

    			-----------------------------------------

	                            ===> Fragment 1 <==

	 Z (Atomic Numbers)          Masses                          Geom
	      11.000000            22.989769          0.00000000  0.00000000  3.04904811
	      13.000000            26.981539          0.00000000  0.00000000 -2.59795833

	 - Coordinate -           - BOHR/RAD -       - ANG/DEG -
	 R(1,2)           =         5.647006           2.988267

	        --- Internal Coordinate Step in ANG or DEG, aJ/ANG or AJ/DEG ---
	-------------------------------------------------------------------------------
	           Coordinate      Previous         Force          Change          New
	           ----------      --------        ------          ------        ------
	               R(1,2)       2.98827        0.00014        0.00047       2.98874
	-------------------------------------------------------------------------------

	                                 ==> Convergence Check <==

	Measures of convergence in internal coordinates in au.

	Criteria marked as inactive (o), active & met (*), and active & unmet ( ).

	----------------------------------------------------------------------------------------------
	   Step    Total Energy     Delta E     Max Force     RMS Force      Max Disp      RMS Disp
	----------------------------------------------------------------------------------------------
	  Convergence Criteria     1.00e-06 *    3.00e-04 *             o    1.20e-03 *             o
	----------------------------------------------------------------------------------------------
	    16    -403.02244229   -2.14e-07 *    1.70e-05 *    1.70e-05 o    8.86e-04 *    8.86e-04 o  ~
	----------------------------------------------------------------------------------------------

Next Geometry in Ang
	Fragment 1 (Ang)

	   Na   0.0000000000   0.0000000000   1.6137211050
	   Al   0.0000000000   0.0000000000  -1.3750146692

    Final optimized geometry and variables:
    Molecular point group: c2v
    Full point group: C_inf_v

    Geometry (in Angstrom), charge = 1, multiplicity = 6:

    NA           0.000000000000     0.000000000000     1.613486776497
    AL           0.000000000000     0.000000000000    -1.374780340638

    Psi4 stopped on: Thursday, 17 July 2025 02:50PM
    Psi4 wall time for execution: 0:00:28.13

*** Psi4 exiting successfully. Buy a developer a beer!
