                               Psi4 1.9.1 release

  ==> Input File <==

--------------------------------------------------------------------------
molecule {
1 6
N   0.00000        0.60000        0.00000
Al   0.00000       -0.60000        0.00000
}

set {
basis              cc-pvdz
reference          uks
maxiter            500
geom_maxiter       500
DAMPING_PERCENTAGE 1
guess              SAP
}

optimize('b3lyp')
--------------------------------------------------------------------------

    Molecular point group: c2v
  Charge       = 1
  Multiplicity = 6
  Basis Set: CC-PVDZ
    Blend: CC-PVDZ
  Basis Set: (CC-PVDZ AUX)
    Blend: CC-PVDZ-JKFIT
  @DF-UKS Final Energy:  -295.96319411468852
    Total Energy =                       -295.9631941146885765
 Dipole X            :          0.0000000            0.0000000            0.0000000
 Dipole Y            :          0.0000000            0.0000000            0.0000000
 Dipole Z            :          0.5221963            0.3779474            0.9001437
 Magnitude           :                                                    0.9001437
    Molecular point group: c2v
  Basis Set: CC-PVDZ
    Blend: CC-PVDZ
  Basis Set: (CC-PVDZ AUX)
    Blend: CC-PVDZ-JKFIT
  Basis Set: CC-PVDZ
    Blend: CC-PVDZ
  Basis Set: (CC-PVDZ AUX)
    Blend: CC-PVDZ-JKFIT
  @DF-UKS Final Energy:  -296.26298634928668
    Total Energy =                       -296.2629863492866775
  Basis Set: CC-PVDZ
    Blend: CC-PVDZ
  Basis Set: (CC-PVDZ AUX)
    Blend: CC-PVDZ-JKFIT
  Basis Set: CC-PVDZ
    Blend: CC-PVDZ
  @DF-UKS Final Energy:  -296.41584131352334
    Total Energy =                       -296.4158413135233445
  @DF-UKS Final Energy:  -296.49937722385977
    Total Energy =                       -296.4993772238597671
  @DF-UKS Final Energy:  -296.54401442091938
    Total Energy =                       -296.5440144209193818
  @DF-UKS Final Energy:  -296.56719864771077
    Total Energy =                       -296.5671986477108248
  @DF-UKS Final Energy:  -296.57874246643291
    Total Energy =                       -296.5787424664329137
  @DF-UKS Final Energy:  -296.58408842875519
    Total Energy =                       -296.5840884287551376
  @DF-UKS Final Energy:  -296.58626821775704
    Total Energy =                       -296.5862682177570377
  @DF-UKS Final Energy:  -296.58698027535280
    Total Energy =                       -296.5869802753528006
  @DF-UKS Final Energy:  -296.58711505835214
    Total Energy =                       -296.5871150583521398
  @DF-UKS Final Energy:  -296.58715003512543
    Total Energy =                       -296.5871500351254326
  Basis Set: (CC-PVDZ AUX)
    Blend: CC-PVDZ-JKFIT
  Basis Set: CC-PVDZ
    Blend: CC-PVDZ
  Basis Set: (CC-PVDZ AUX)
    Blend: CC-PVDZ-JKFIT
  @DF-UKS Final Energy:  -296.58715389199506
    Total Energy =                       -296.5871538919951149
  Basis Set: CC-PVDZ
    Blend: CC-PVDZ
  Basis Set: (CC-PVDZ AUX)
    Blend: CC-PVDZ-JKFIT
  Charge       = 1
  Multiplicity = 6
  Basis Set: CC-PVDZ
    Blend: CC-PVDZ
  Basis Set: (CC-PVDZ AUX)
    Blend: CC-PVDZ-JKFIT

    Orbital Energies [Eh]
    ---------------------

    Alpha Occupied:

       1A1   -56.425939     2A1   -14.695396     3A1    -4.497871
       1B1    -3.052041     4A1    -3.051754     1B2    -3.047449
       5A1    -1.055976     6A1    -0.648650     2B2    -0.592789
       2B1    -0.592714     7A1    -0.568472     3B2    -0.394212

    Alpha Virtual:

       3B1    -0.328562     8A1    -0.295670     9A1    -0.052991
      10A1    -0.011553     4B2    -0.011426     1A2    -0.008083
       5B2    -0.004494     4B1    -0.000816    11A1    -0.000432
       5B1     0.005368    12A1     0.067730     6B1     0.473799
       6B2     0.475097    13A1     0.495276    14A1     0.840070
       2A2     1.434750    15A1     1.434810     7B1     1.441501
       7B2     1.442494    16A1     1.491098

    Beta Occupied:

       1A1   -56.417693     2A1   -14.637808     3A1    -4.485418
       1B1    -3.044420     4A1    -3.043580     1B2    -3.030252
       5A1    -0.861687

    Beta Virtual:

       6A1    -0.478299     7A1    -0.359576     2B1    -0.344149
       2B2    -0.339176     3B1    -0.262639     3B2    -0.232363
       8A1    -0.213226     9A1    -0.021313    10A1     0.021489
       4B1     0.024313     4B2     0.043907     5B1     0.054846
      11A1     0.077244     5B2     0.080727     1A2     0.081444
      12A1     0.134845     6B1     0.574862     6B2     0.578208
      13A1     0.596525    14A1     0.928494     2A2     1.584373
      15A1     1.584433     7B1     1.585871     7B2     1.587912
      16A1     1.633455

    Final Occupation by Irrep:
             A1    A2    B1    B2
    DOCC [     5,    0,    1,    1 ]
    SOCC [     2,    0,    1,    2 ]
    NA   [     7,    0,    2,    3 ]
    NB   [     5,    0,    1,    1 ]

  @DF-UKS Final Energy:  -296.58715437026837

   => Energetics <=

    Nuclear Repulsion Energy =             18.4524623319640568
    One-Electron Energy =                -441.4438778822903942
    Two-Electron Energy =                 146.6774612643905868
    DFT Exchange-Correlation Energy =     -20.2732000843326219
    Empirical Dispersion Energy =           0.0000000000000000
    VV10 Nonlocal Energy =                  0.0000000000000000
    Total Energy =                       -296.5871543702684221

  UHF NO Occupations:
  HONO-2 :    3 B2 1.0000000
  HONO-1 :    2 B1 1.0000000
  HONO-0 :    7 A1 1.0000000
  LUNO+0 :    8 A1 0.0013550
  LUNO+1 :    3 B1 0.0000012
  LUNO+2 :    9 A1 0.0000010
  LUNO+3 :   10 A1 0.0000003

Computation Completed

Properties will be evaluated at   0.000000,   0.000000,   0.000000 [a0]

Properties computed using the SCF density matrix

 Multipole Moments:

 ------------------------------------------------------------------------------------
     Multipole            Electronic (a.u.)      Nuclear  (a.u.)        Total (a.u.)
 ------------------------------------------------------------------------------------

 L = 1.  Multiply by 2.5417464519 to convert [e a0] to [Debye]
 Dipole X            :          0.0000000            0.0000000            0.0000000
 Dipole Y            :          0.0000000            0.0000000            0.0000000
 Dipole Z            :         -1.7425178            0.8219365           -0.9205813
 Magnitude           :                                                    0.9205813

 ------------------------------------------------------------------------------------

*** tstop() called on Joses-MacBook-Pro-2.local at Thu Jul 17 13:55:19 2025
Module time:
	user time   =       1.72 seconds =       0.03 minutes
	system time =       3.54 seconds =       0.06 minutes
	total time  =          1 seconds =       0.02 minutes
Total time:
	user time   =      41.56 seconds =       0.69 minutes
	system time =     103.47 seconds =       1.72 minutes
	total time  =         15 seconds =       0.25 minutes

*** tstart() called on Joses-MacBook-Pro-2.local
*** at Thu Jul 17 13:55:19 2025

         ------------------------------------------------------------
                                   SCF GRAD
                          Rob Parrish, Justin Turney,
                       Andy Simmonett, and Alex Sokolov
         ------------------------------------------------------------

  ==> Geometry <==

    Molecular point group: c2v
    Full point group: C_inf_v

    Geometry (in Angstrom), charge = 1, multiplicity = 6:

       Center              X                  Y                   Z               Mass
    ------------   -----------------  -----------------  -----------------  -----------------
         N            0.000000000000     0.000000000000     1.718043177327    14.003074004430
         AL           0.000000000000     0.000000000000    -0.891642473544    26.981538530000

  Nuclear repulsion =   18.452462331964057

  ==> Basis Set <==

  Basis Set: CC-PVDZ
    Blend: CC-PVDZ
    Number of shells: 14
    Number of basis functions: 32
    Number of Cartesian functions: 34
    Spherical Harmonics?: true
    Max angular momentum: 2

  ==> DFJKGrad: Density-Fitted SCF Gradients <==

    Gradient:                    1
    J tasked:                  Yes
    K tasked:                  Yes
    wK tasked:                  No
    OpenMP threads:              1
    Integrals threads:           1
    Memory [MiB]:              375
    Schwarz Cutoff:          1E-12
    Fitting Condition:       1E-10

   => Auxiliary Basis Set <=

  Basis Set: (CC-PVDZ AUX)
    Blend: CC-PVDZ-JKFIT
    Number of shells: 60
    Number of basis functions: 182
    Number of Cartesian functions: 211
    Spherical Harmonics?: true
    Max angular momentum: 3

  ==> DFT Potential <==

   => LibXC <=

    Version 6.2.2
    S. Lehtola, C. Steigemann, M. J.T. Oliveira, and M. A.L. Marques.,  SoftwareX 7, 1â€“5 (2018) (10.1016/j.softx.2017.11.002)

   => Composite Functional: B3LYP <=

    B3LYP Hyb-GGA Exchange-Correlation Functional

    P. J. Stephens, F. J. Devlin, C. F. Chabalowski, and M. J. Frisch.,  J. Phys. Chem. 98, 11623 (1994) (10.1021/j100096a001)

    Deriv               =              1
    GGA                 =           TRUE
    Meta                =          FALSE

    Exchange Hybrid     =           TRUE
    MP2 Hybrid          =          FALSE

   => Exchange Functionals <=

    0.0800   Slater exchange
    0.7200         Becke 88

   => Exact (HF) Exchange <=

    0.2000               HF

   => Correlation Functionals <=

    0.1900   Vosko, Wilk & Nusair (VWN5_RPA)
    0.8100   Lee, Yang & Parr

   => LibXC Density Thresholds  <==

    XC_HYB_GGA_XC_B3LYP:  1.00E-15

   => Molecular Quadrature <=

    Radial Scheme          =       TREUTLER
    Pruning Scheme         =           NONE
    Nuclear Scheme         =       TREUTLER

    Blocking Scheme        =         OCTREE
    BS radius alpha        =              1
    Pruning alpha          =              1
    Radial Points          =             75
    Spherical Points       =            302
    Total Points           =          43517
    Total Blocks           =            404
    Max Points             =            256
    Max Functions          =             32
    Weights Tolerance      =       1.00E-15

  -Total Gradient:
     Atom            X                  Y                   Z
    ------   -----------------  -----------------  -----------------
       1       -0.000000000000    -0.000000000000    -0.000040366112
       2       -0.000000000000     0.000000000000     0.000028596246

*** tstop() called on Joses-MacBook-Pro-2.local at Thu Jul 17 13:55:19 2025
Module time:
	user time   =       0.79 seconds =       0.01 minutes
	system time =       1.76 seconds =       0.03 minutes
	total time  =          0 seconds =       0.00 minutes
Total time:
	user time   =      42.36 seconds =       0.71 minutes
	system time =     105.23 seconds =       1.75 minutes
	total time  =         15 seconds =       0.25 minutes

    			-----------------------------------------

    			 OPTKING 3.0: for geometry optimizations

    			     By R.A. King, Bethel University

    			        with contributions from

    			    A.V. Copan, J. Cayton, A. Heide

    			-----------------------------------------

	                            ===> Fragment 1 <==

	 Z (Atomic Numbers)          Masses                          Geom
	       7.000000            14.003074          0.00000000  0.00000000  3.24663108
	      13.000000            26.981539          0.00000000  0.00000000 -1.68496008

	 - Coordinate -           - BOHR/RAD -       - ANG/DEG -
	 R(1,2)           =         4.931591           2.609686

	        --- Internal Coordinate Step in ANG or DEG, aJ/ANG or AJ/DEG ---
	-------------------------------------------------------------------------------
	           Coordinate      Previous         Force          Change          New
	           ----------      --------        ------          ------        ------
	               R(1,2)       2.60969        0.00028        0.00140       2.61108
	-------------------------------------------------------------------------------

	                                 ==> Convergence Check <==

	Measures of convergence in internal coordinates in au.

	Criteria marked as inactive (o), active & met (*), and active & unmet ( ).

	----------------------------------------------------------------------------------------------
	   Step    Total Energy     Delta E     Max Force     RMS Force      Max Disp      RMS Disp
	----------------------------------------------------------------------------------------------
	  Convergence Criteria     1.00e-06 *    3.00e-04 *             o    1.20e-03 *             o
	----------------------------------------------------------------------------------------------
	    14    -296.58715437   -4.78e-07 *    3.45e-05 *    3.45e-05 o    2.64e-03      2.64e-03 o  ~
	----------------------------------------------------------------------------------------------

Next Geometry in Ang
	Fragment 1 (Ang)

	    N   0.0000000000   0.0000000000   1.7187418276
	   Al   0.0000000000   0.0000000000  -0.8923411238

    Final optimized geometry and variables:
    Molecular point group: c2v
    Full point group: C_inf_v

    Geometry (in Angstrom), charge = 1, multiplicity = 6:

    N            0.000000000000     0.000000000000     1.718043177327
    AL           0.000000000000     0.000000000000    -0.891642473544

    Psi4 stopped on: Thursday, 17 July 2025 01:55PM
    Psi4 wall time for execution: 0:00:15.93

*** Psi4 exiting successfully. Buy a developer a beer!
