                               Psi4 1.9.1 release

  ==> Input File <==

--------------------------------------------------------------------------
molecule {
1 6
F   0.00000        0.60000        0.00000
Al   0.00000       -0.60000        0.00000
}

set {
basis              cc-pvdz
reference          uks
maxiter            500
geom_maxiter       500
DAMPING_PERCENTAGE 1
guess              SAP
}

optimize('b3lyp')
--------------------------------------------------------------------------

    Molecular point group: c2v
  Charge       = 1
  Multiplicity = 6
  Basis Set: CC-PVDZ
    Blend: CC-PVDZ
  Basis Set: (CC-PVDZ AUX)
    Blend: CC-PVDZ-JKFIT
  @DF-UKS Final Energy:  -340.52766849368300
    Total Energy =                       -340.5276684936829952
 Dipole X            :          0.0000000            0.0000000            0.0000000
 Dipole Y            :          0.0000000            0.0000000            0.0000000
 Dipole Z            :          1.6677069           -0.2044455            1.4632614
 Magnitude           :                                                    1.4632614
    Molecular point group: c2v
  Basis Set: CC-PVDZ
    Blend: CC-PVDZ
  Basis Set: (CC-PVDZ AUX)
    Blend: CC-PVDZ-JKFIT
  Basis Set: CC-PVDZ
    Blend: CC-PVDZ
  Basis Set: (CC-PVDZ AUX)
    Blend: CC-PVDZ-JKFIT
  @DF-UKS Final Energy:  -340.81231942118717
    Total Energy =                       -340.8123194211871692
  Basis Set: CC-PVDZ
    Blend: CC-PVDZ
  Basis Set: (CC-PVDZ AUX)
    Blend: CC-PVDZ-JKFIT
  Basis Set: CC-PVDZ
    Blend: CC-PVDZ
  @DF-UKS Final Energy:  -340.99338330235344
    Total Energy =                       -340.9933833023534362
  @DF-UKS Final Energy:  -341.11622581849514
    Total Energy =                       -341.1162258184951384
  @DF-UKS Final Energy:  -341.20368247307641
    Total Energy =                       -341.2036824730763556
  @DF-UKS Final Energy:  -341.25573134756144
    Total Energy =                       -341.2557313475614933
  @DF-UKS Final Energy:  -341.28454363894974
    Total Energy =                       -341.2845436389497422
  @DF-UKS Final Energy:  -341.30009376150554
    Total Energy =                       -341.3000937615055363
  @DF-UKS Final Energy:  -341.30884066505683
    Total Energy =                       -341.3088406650567777
  @DF-UKS Final Energy:  -341.31411975956763
    Total Energy =                       -341.3141197595676317
  @DF-UKS Final Energy:  -341.31758656339053
    Total Energy =                       -341.3175865633905914
  @DF-UKS Final Energy:  -341.31767882800392
    Total Energy =                       -341.3176788280039204
  @DF-UKS Final Energy:  -341.32043119511155
    Total Energy =                       -341.3204311951116097
  @DF-UKS Final Energy:  -341.32047096924163
    Total Energy =                       -341.3204709692416259
  @DF-UKS Final Energy:  -341.32240429919432
    Total Energy =                       -341.3224042991943747
  @DF-UKS Final Energy:  -341.32242412531485
    Total Energy =                       -341.3224241253148534
  @DF-UKS Final Energy:  -341.32244381692652
    Total Energy =                       -341.3224438169264658
  @DF-UKS Final Energy:  -341.32387119676048
    Total Energy =                       -341.3238711967604786
  @DF-UKS Final Energy:  -341.32388236944291
    Total Energy =                       -341.3238823694429698
  @DF-UKS Final Energy:  -341.32389348439648
    Total Energy =                       -341.3238934843964216
  @DF-UKS Final Energy:  -341.32685574083968
    Total Energy =                       -341.3268557408396759
  @DF-UKS Final Energy:  -341.32685744780701
    Total Energy =                       -341.3268574478070150
  @DF-UKS Final Energy:  -341.32685915173641
    Total Energy =                       -341.3268591517364143
  @DF-UKS Final Energy:  -341.32686085263947
    Total Energy =                       -341.3268608526395269
  @DF-UKS Final Energy:  -341.32686255054756
    Total Energy =                       -341.3268625505475597
  @DF-UKS Final Energy:  -341.32686424543505
    Total Energy =                       -341.3268642454351038
  @DF-UKS Final Energy:  -341.32722168931872
    Total Energy =                       -341.3272216893187192
  @DF-UKS Final Energy:  -341.32722281262500
    Total Energy =                       -341.3272228126249956
  @DF-UKS Final Energy:  -341.32722393241698
    Total Energy =                       -341.3272239324169846
  @DF-UKS Final Energy:  -341.32722505105926
    Total Energy =                       -341.3272250510593153
  @DF-UKS Final Energy:  -341.32722616827948
    Total Energy =                       -341.3272261682794806
  @DF-UKS Final Energy:  -341.32722728406577
    Total Energy =                       -341.3272272840657706
  @DF-UKS Final Energy:  -341.32722839841864
    Total Energy =                       -341.3272283984186402
  @DF-UKS Final Energy:  -341.32722951134565
    Total Energy =                       -341.3272295113456494
  @DF-UKS Final Energy:  -341.32723062284930
    Total Energy =                       -341.3272306228492994
  @DF-UKS Final Energy:  -341.32723173292464
    Total Energy =                       -341.3272317329246448
  @DF-UKS Final Energy:  -341.32723284159260
    Total Energy =                       -341.3272328415925472
  @DF-UKS Final Energy:  -341.32723394886034
    Total Energy =                       -341.3272339488603393
  Basis Set: (CC-PVDZ AUX)
    Blend: CC-PVDZ-JKFIT
  Basis Set: CC-PVDZ
    Blend: CC-PVDZ
  Basis Set: (CC-PVDZ AUX)
    Blend: CC-PVDZ-JKFIT
  @DF-UKS Final Energy:  -341.32751467169402
    Total Energy =                       -341.3275146716940185
  Basis Set: CC-PVDZ
    Blend: CC-PVDZ
  Basis Set: (CC-PVDZ AUX)
    Blend: CC-PVDZ-JKFIT
  Charge       = 1
  Multiplicity = 6
  Basis Set: CC-PVDZ
    Blend: CC-PVDZ
  Basis Set: (CC-PVDZ AUX)
    Blend: CC-PVDZ-JKFIT

    Orbital Energies [Eh]
    ---------------------

    Alpha Occupied:

       1A1   -56.193779     2A1   -25.589636     3A1    -4.274021
       4A1    -2.829592     1B1    -2.825539     1B2    -2.825539
       5A1    -1.927517     6A1    -1.221036     2B1    -1.221008
       2B2    -1.123339     7A1    -0.443947     3B1    -0.233649
       3B2    -0.233642

    Alpha Virtual:

       8A1    -0.179099     9A1     0.068000     4B1     0.118664
       4B2     0.118676    10A1     0.123461    11A1     0.149314
       1A2     0.149314     5B1     0.152526     5B2     0.152531
      12A1     0.161933    13A1     0.496269     6B1     0.496348
       6B2     0.546683    14A1     0.832032    15A1     2.727037
       7B1     2.727044     7B2     2.798343     2A2     2.798358
      16A1     2.823483

    Beta Occupied:

       1A1   -56.184652     2A1   -25.520932     3A1    -4.260753
       4A1    -2.821843     1B1    -2.810325     1B2    -2.810324
       5A1    -1.733550     2B2    -1.055555

    Beta Virtual:

       6A1    -0.861493     2B1    -0.861457     7A1    -0.282012
       8A1    -0.117263     3B1    -0.085904     3B2    -0.085896
       9A1     0.120433    10A1     0.155522     4B1     0.180398
       4B2     0.180409    11A1     0.232703     5B1     0.241736
       5B2     0.241741    12A1     0.267116     1A2     0.267116
       6B2     0.576954    13A1     0.612976     6B1     0.613049
      14A1     0.922806     7B2     2.910644     2A2     2.910661
      15A1     2.919964    16A1     2.940570     7B1     2.940575

    Final Occupation by Irrep:
             A1    A2    B1    B2
    DOCC [     5,    0,    1,    2 ]
    SOCC [     2,    0,    2,    1 ]
    NA   [     7,    0,    3,    3 ]
    NB   [     5,    0,    1,    2 ]

  @DF-UKS Final Energy:  -341.32751542243756

   => Energetics <=

    Nuclear Repulsion Energy =              8.3924085781794133
    One-Electron Energy =                -484.8827161315928151
    Two-Electron Energy =                 158.1307142600558109
    DFT Exchange-Correlation Energy =     -22.9679221290799553
    Empirical Dispersion Energy =           0.0000000000000000
    VV10 Nonlocal Energy =                  0.0000000000000000
    Total Energy =                       -341.3275154224375569

  UHF NO Occupations:
  HONO-2 :    3 B2 1.0000000
  HONO-1 :    7 A1 1.0000000
  HONO-0 :    3 B1 1.0000000
  LUNO+0 :    8 A1 0.0006204
  LUNO+1 :    4 B2 0.0001884
  LUNO+2 :    9 A1 0.0000009
  LUNO+3 :    4 B1 0.0000002

Computation Completed

Properties will be evaluated at   0.000000,   0.000000,   0.000000 [a0]

Properties computed using the SCF density matrix

 Multipole Moments:

 ------------------------------------------------------------------------------------
     Multipole            Electronic (a.u.)      Nuclear  (a.u.)        Total (a.u.)
 ------------------------------------------------------------------------------------

 L = 1.  Multiply by 2.5417464519 to convert [e a0] to [Debye]
 Dipole X            :          0.0000000            0.0000000            0.0000000
 Dipole Y            :          0.0000000            0.0000000            0.0000000
 Dipole Z            :          9.2969127           -1.2568883            8.0400245
 Magnitude           :                                                    8.0400245

 ------------------------------------------------------------------------------------

*** tstop() called on Joses-MacBook-Pro-2.local at Thu Jul 17 14:28:19 2025
Module time:
	user time   =       1.69 seconds =       0.03 minutes
	system time =       1.63 seconds =       0.03 minutes
	total time  =          0 seconds =       0.00 minutes
Total time:
	user time   =     188.90 seconds =       3.15 minutes
	system time =     242.43 seconds =       4.04 minutes
	total time  =         42 seconds =       0.70 minutes

*** tstart() called on Joses-MacBook-Pro-2.local
*** at Thu Jul 17 14:28:19 2025

         ------------------------------------------------------------
                                   SCF GRAD
                          Rob Parrish, Justin Turney,
                       Andy Simmonett, and Alex Sokolov
         ------------------------------------------------------------

  ==> Geometry <==

    Molecular point group: c2v
    Full point group: C_inf_v

    Geometry (in Angstrom), charge = 1, multiplicity = 6:

       Center              X                  Y                   Z               Mass
    ------------   -----------------  -----------------  -----------------  -----------------
         F            0.000000000000     0.000000000000     4.329110482462    18.998403162730
         AL           0.000000000000     0.000000000000    -3.048239305937    26.981538530000

  Nuclear repulsion =    8.392408578179413

  ==> Basis Set <==

  Basis Set: CC-PVDZ
    Blend: CC-PVDZ
    Number of shells: 14
    Number of basis functions: 32
    Number of Cartesian functions: 34
    Spherical Harmonics?: true
    Max angular momentum: 2

  ==> DFJKGrad: Density-Fitted SCF Gradients <==

    Gradient:                    1
    J tasked:                  Yes
    K tasked:                  Yes
    wK tasked:                  No
    OpenMP threads:              1
    Integrals threads:           1
    Memory [MiB]:              375
    Schwarz Cutoff:          1E-12
    Fitting Condition:       1E-10

   => Auxiliary Basis Set <=

  Basis Set: (CC-PVDZ AUX)
    Blend: CC-PVDZ-JKFIT
    Number of shells: 60
    Number of basis functions: 182
    Number of Cartesian functions: 211
    Spherical Harmonics?: true
    Max angular momentum: 3

  ==> DFT Potential <==

   => LibXC <=

    Version 6.2.2
    S. Lehtola, C. Steigemann, M. J.T. Oliveira, and M. A.L. Marques.,  SoftwareX 7, 1â€“5 (2018) (10.1016/j.softx.2017.11.002)

   => Composite Functional: B3LYP <=

    B3LYP Hyb-GGA Exchange-Correlation Functional

    P. J. Stephens, F. J. Devlin, C. F. Chabalowski, and M. J. Frisch.,  J. Phys. Chem. 98, 11623 (1994) (10.1021/j100096a001)

    Deriv               =              1
    GGA                 =           TRUE
    Meta                =          FALSE

    Exchange Hybrid     =           TRUE
    MP2 Hybrid          =          FALSE

   => Exchange Functionals <=

    0.0800   Slater exchange
    0.7200         Becke 88

   => Exact (HF) Exchange <=

    0.2000               HF

   => Correlation Functionals <=

    0.1900   Vosko, Wilk & Nusair (VWN5_RPA)
    0.8100   Lee, Yang & Parr

   => LibXC Density Thresholds  <==

    XC_HYB_GGA_XC_B3LYP:  1.00E-15

   => Molecular Quadrature <=

    Radial Scheme          =       TREUTLER
    Pruning Scheme         =           NONE
    Nuclear Scheme         =       TREUTLER

    Blocking Scheme        =         OCTREE
    BS radius alpha        =              1
    Pruning alpha          =              1
    Radial Points          =             75
    Spherical Points       =            302
    Total Points           =          43662
    Total Blocks           =            451
    Max Points             =            256
    Max Functions          =             32
    Weights Tolerance      =       1.00E-15

  -Total Gradient:
     Atom            X                  Y                   Z
    ------   -----------------  -----------------  -----------------
       1       -0.000000000000     0.000000000000    -0.000301075864
       2       -0.000000000000     0.000000000000     0.000284845541

*** tstop() called on Joses-MacBook-Pro-2.local at Thu Jul 17 14:28:19 2025
Module time:
	user time   =       0.70 seconds =       0.01 minutes
	system time =       1.32 seconds =       0.02 minutes
	total time  =          0 seconds =       0.00 minutes
Total time:
	user time   =     189.60 seconds =       3.16 minutes
	system time =     243.75 seconds =       4.06 minutes
	total time  =         42 seconds =       0.70 minutes

    			-----------------------------------------

    			 OPTKING 3.0: for geometry optimizations

    			     By R.A. King, Bethel University

    			        with contributions from

    			    A.V. Copan, J. Cayton, A. Heide

    			-----------------------------------------

	                            ===> Fragment 1 <==

	 Z (Atomic Numbers)          Masses                          Geom
	       9.000000            18.998403          0.00000000  0.00000000  8.18083318
	      13.000000            26.981539          0.00000000  0.00000000 -5.76033745

	 - Coordinate -           - BOHR/RAD -       - ANG/DEG -
	 R(1,2)           =        13.941171           7.377350

	        --- Internal Coordinate Step in ANG or DEG, aJ/ANG or AJ/DEG ---
	-------------------------------------------------------------------------------
	           Coordinate      Previous         Force          Change          New
	           ----------      --------        ------          ------        ------
	               R(1,2)       7.37735        0.00241        0.00138       7.37873
	-------------------------------------------------------------------------------

	                                 ==> Convergence Check <==

	Measures of convergence in internal coordinates in au.

	Criteria marked as inactive (o), active & met (*), and active & unmet ( ).

	----------------------------------------------------------------------------------------------
	   Step    Total Energy     Delta E     Max Force     RMS Force      Max Disp      RMS Disp
	----------------------------------------------------------------------------------------------
	  Convergence Criteria     1.00e-06 *    3.00e-04 *             o    1.20e-03 *             o
	----------------------------------------------------------------------------------------------
	    59    -341.32751542   -7.51e-07 *    2.93e-04 *    2.93e-04 o    2.61e-03      2.61e-03 o  ~
	----------------------------------------------------------------------------------------------

Next Geometry in Ang
	Fragment 1 (Ang)

	    F   0.0000000000   0.0000000000   4.3298009393
	   Al   0.0000000000   0.0000000000  -3.0489297628

    Final optimized geometry and variables:
    Molecular point group: c2v
    Full point group: C_inf_v

    Geometry (in Angstrom), charge = 1, multiplicity = 6:

    F            0.000000000000     0.000000000000     4.329110482462
    AL           0.000000000000     0.000000000000    -3.048239305937

    Psi4 stopped on: Thursday, 17 July 2025 02:28PM
    Psi4 wall time for execution: 0:00:42.81

*** Psi4 exiting successfully. Buy a developer a beer!
