                               Psi4 1.9.1 release

  ==> Input File <==

--------------------------------------------------------------------------
molecule {
1 6
F   0.00000        0.60000        0.00000
Na   0.00000       -0.60000        0.00000
}

set {
basis              cc-pvdz
reference          uks
maxiter            500
geom_maxiter       500
DAMPING_PERCENTAGE 1
guess              SAP
}

optimize('b3lyp')
--------------------------------------------------------------------------

    Molecular point group: c2v
  Charge       = 1
  Multiplicity = 6
  Basis Set: CC-PVDZ
    Blend: CC-PVDZ
  Basis Set: (CC-PVDZ AUX)
    Blend: CC-PVDZ-JKFIT + DEF2-UNIVERSAL-JKFIT
  @DF-UKS Final Energy:  -259.94088977600131
    Total Energy =                       -259.9408897760013133
 Dipole X            :          0.0000000            0.0000000            0.0000000
 Dipole Y            :          0.0000000            0.0000000            0.0000000
 Dipole Z            :          0.4470551           -0.1120389            0.3350162
 Magnitude           :                                                    0.3350162
    Molecular point group: c2v
  Basis Set: CC-PVDZ
    Blend: CC-PVDZ
  Basis Set: (CC-PVDZ AUX)
    Blend: CC-PVDZ-JKFIT + DEF2-UNIVERSAL-JKFIT
  Basis Set: CC-PVDZ
    Blend: CC-PVDZ
  Basis Set: (CC-PVDZ AUX)
    Blend: CC-PVDZ-JKFIT + DEF2-UNIVERSAL-JKFIT
  @DF-UKS Final Energy:  -260.12374285319316
    Total Energy =                       -260.1237428531931641
  Basis Set: CC-PVDZ
    Blend: CC-PVDZ
  Basis Set: (CC-PVDZ AUX)
    Blend: CC-PVDZ-JKFIT + DEF2-UNIVERSAL-JKFIT
  Basis Set: CC-PVDZ
    Blend: CC-PVDZ
  @DF-UKS Final Energy:  -260.25175810459325
    Total Energy =                       -260.2517581045932502
  @DF-UKS Final Energy:  -260.33506226894639
    Total Energy =                       -260.3350622689463876
  @DF-UKS Final Energy:  -260.39218369804428
    Total Energy =                       -260.3921836980442777
  @DF-UKS Final Energy:  -260.42960679281708
    Total Energy =                       -260.4296067928170828
  @DF-UKS Final Energy:  -260.45051002314563
    Total Energy =                       -260.4505100231456254
  @DF-UKS Final Energy:  -260.45705319121276
    Total Energy =                       -260.4570531912127649
  @DF-UKS Final Energy:  -260.45781884312004
    Total Energy =                       -260.4578188431200374
  Basis Set: (CC-PVDZ AUX)
    Blend: CC-PVDZ-JKFIT + DEF2-UNIVERSAL-JKFIT
  Basis Set: CC-PVDZ
    Blend: CC-PVDZ
  Basis Set: (CC-PVDZ AUX)
    Blend: CC-PVDZ-JKFIT + DEF2-UNIVERSAL-JKFIT
  @DF-UKS Final Energy:  -260.45783942654691
    Total Energy =                       -260.4578394265469115
  Basis Set: CC-PVDZ
    Blend: CC-PVDZ
  Basis Set: (CC-PVDZ AUX)
    Blend: CC-PVDZ-JKFIT + DEF2-UNIVERSAL-JKFIT
  Charge       = 1
  Multiplicity = 6
  Basis Set: CC-PVDZ
    Blend: CC-PVDZ
  Basis Set: (CC-PVDZ AUX)
    Blend: CC-PVDZ-JKFIT + DEF2-UNIVERSAL-JKFIT

    Orbital Energies [Eh]
    ---------------------

    Alpha Occupied:

       1A1   -38.664086     2A1   -26.200361     3A1    -2.410230
       4A1    -2.387274     5A1    -1.657171     1B1    -1.656873
       1B2    -1.655757     6A1    -1.347282     2B1    -1.339807
       2B2    -1.337608     7A1    -0.388774     3B2    -0.239362

    Alpha Virtual:

       3B1    -0.187916     8A1    -0.176454     9A1    -0.134505
       4B2    -0.067083     4B1    -0.059683    10A1    -0.037979
       5B1    -0.000249     5B2    -0.000142    11A1     0.002047
       1A2     0.010184    12A1     0.023805    13A1     0.331502
       6B2     0.340415     6B1     0.341286    14A1     0.945976
      15A1     2.344017     2A2     2.345414    16A1     2.347546
       7B1     2.348539     7B2     2.351252

    Beta Occupied:

       1A1   -38.661443     2A1   -26.085485     3A1    -2.405034
       4A1    -2.079017     5A1    -1.339774     1B1    -1.337461
       1B2    -1.332616

    Beta Virtual:

       6A1    -1.232386     2B1    -1.230497     2B2    -1.225613
       7A1    -0.271964     8A1    -0.165067     3B1    -0.147605
       3B2    -0.133384     9A1    -0.104694     4B1    -0.042452
       4B2    -0.034723    10A1    -0.030896     5B1     0.002707
       5B2     0.013268    11A1     0.026826     1A2     0.045008
      12A1     0.049540    13A1     0.436443     6B1     0.439844
       6B2     0.449129    14A1     1.067779    15A1     2.574459
       2A2     2.577288     7B1     2.578149    16A1     2.578249
       7B2     2.581401

    Final Occupation by Irrep:
             A1    A2    B1    B2
    DOCC [     5,    0,    1,    1 ]
    SOCC [     2,    0,    1,    2 ]
    NA   [     7,    0,    2,    3 ]
    NB   [     5,    0,    1,    1 ]

  @DF-UKS Final Energy:  -260.45783978996559

   => Energetics <=

    Nuclear Repulsion Energy =             20.6560726532504582
    One-Electron Energy =                -395.8254386078252764
    Two-Electron Energy =                 134.0994559334534131
    DFT Exchange-Correlation Energy =     -19.3879297688441987
    Empirical Dispersion Energy =           0.0000000000000000
    VV10 Nonlocal Energy =                  0.0000000000000000
    Total Energy =                       -260.4578397899655897

  UHF NO Occupations:
  HONO-2 :    6 A1 1.0000000
  HONO-1 :    3 B2 1.0000000
  HONO-0 :    7 A1 1.0000000
  LUNO+0 :    8 A1 0.0006975
  LUNO+1 :    9 A1 0.0000288
  LUNO+2 :    4 B2 0.0000014
  LUNO+3 :    3 B1 0.0000009

Computation Completed

Properties will be evaluated at   0.000000,   0.000000,   0.000000 [a0]

Properties computed using the SCF density matrix

 Multipole Moments:

 ------------------------------------------------------------------------------------
     Multipole            Electronic (a.u.)      Nuclear  (a.u.)        Total (a.u.)
 ------------------------------------------------------------------------------------

 L = 1.  Multiply by 2.5417464519 to convert [e a0] to [Debye]
 Dipole X            :          0.0000000            0.0000000            0.0000000
 Dipole Y            :          0.0000000            0.0000000            0.0000000
 Dipole Z            :          3.1754999           -0.2367970            2.9387029
 Magnitude           :                                                    2.9387029

 ------------------------------------------------------------------------------------

*** tstop() called on Joses-MacBook-Pro-2.local at Thu Jul 17 14:26:13 2025
Module time:
	user time   =       3.43 seconds =       0.06 minutes
	system time =       2.11 seconds =       0.04 minutes
	total time  =          0 seconds =       0.00 minutes
Total time:
	user time   =      57.99 seconds =       0.97 minutes
	system time =      48.40 seconds =       0.81 minutes
	total time  =         11 seconds =       0.18 minutes

*** tstart() called on Joses-MacBook-Pro-2.local
*** at Thu Jul 17 14:26:13 2025

         ------------------------------------------------------------
                                   SCF GRAD
                          Rob Parrish, Justin Turney,
                       Andy Simmonett, and Alex Sokolov
         ------------------------------------------------------------

  ==> Geometry <==

    Molecular point group: c2v
    Full point group: C_inf_v

    Geometry (in Angstrom), charge = 1, multiplicity = 6:

       Center              X                  Y                   Z               Mass
    ------------   -----------------  -----------------  -----------------  -----------------
         F            0.000000000000     0.000000000000     1.388660926129    18.998403162730
         NA           0.000000000000     0.000000000000    -1.147568720996    22.989769282000

  Nuclear repulsion =   20.656072653250458

  ==> Basis Set <==

  Basis Set: CC-PVDZ
    Blend: CC-PVDZ
    Number of shells: 14
    Number of basis functions: 32
    Number of Cartesian functions: 34
    Spherical Harmonics?: true
    Max angular momentum: 2

  ==> DFJKGrad: Density-Fitted SCF Gradients <==

    Gradient:                    1
    J tasked:                  Yes
    K tasked:                  Yes
    wK tasked:                  No
    OpenMP threads:              1
    Integrals threads:           1
    Memory [MiB]:              375
    Schwarz Cutoff:          1E-12
    Fitting Condition:       1E-10

   => Auxiliary Basis Set <=

  Basis Set: (CC-PVDZ AUX)
    Blend: CC-PVDZ-JKFIT + DEF2-UNIVERSAL-JKFIT
    Number of shells: 58
    Number of basis functions: 182
    Number of Cartesian functions: 218
    Spherical Harmonics?: true
    Max angular momentum: 4

  ==> DFT Potential <==

   => LibXC <=

    Version 6.2.2
    S. Lehtola, C. Steigemann, M. J.T. Oliveira, and M. A.L. Marques.,  SoftwareX 7, 1â€“5 (2018) (10.1016/j.softx.2017.11.002)

   => Composite Functional: B3LYP <=

    B3LYP Hyb-GGA Exchange-Correlation Functional

    P. J. Stephens, F. J. Devlin, C. F. Chabalowski, and M. J. Frisch.,  J. Phys. Chem. 98, 11623 (1994) (10.1021/j100096a001)

    Deriv               =              1
    GGA                 =           TRUE
    Meta                =          FALSE

    Exchange Hybrid     =           TRUE
    MP2 Hybrid          =          FALSE

   => Exchange Functionals <=

    0.0800   Slater exchange
    0.7200         Becke 88

   => Exact (HF) Exchange <=

    0.2000               HF

   => Correlation Functionals <=

    0.1900   Vosko, Wilk & Nusair (VWN5_RPA)
    0.8100   Lee, Yang & Parr

   => LibXC Density Thresholds  <==

    XC_HYB_GGA_XC_B3LYP:  1.00E-15

   => Molecular Quadrature <=

    Radial Scheme          =       TREUTLER
    Pruning Scheme         =           NONE
    Nuclear Scheme         =       TREUTLER

    Blocking Scheme        =         OCTREE
    BS radius alpha        =              1
    Pruning alpha          =              1
    Radial Points          =             75
    Spherical Points       =            302
    Total Points           =          43823
    Total Blocks           =            421
    Max Points             =            252
    Max Functions          =             32
    Weights Tolerance      =       1.00E-15

  -Total Gradient:
     Atom            X                  Y                   Z
    ------   -----------------  -----------------  -----------------
       1        0.000000000000    -0.000000000000    -0.000006575096
       2       -0.000000000000     0.000000000000     0.000077600708

*** tstop() called on Joses-MacBook-Pro-2.local at Thu Jul 17 14:26:13 2025
Module time:
	user time   =       1.63 seconds =       0.03 minutes
	system time =       1.29 seconds =       0.02 minutes
	total time  =          0 seconds =       0.00 minutes
Total time:
	user time   =      59.63 seconds =       0.99 minutes
	system time =      49.69 seconds =       0.83 minutes
	total time  =         11 seconds =       0.18 minutes

    			-----------------------------------------

    			 OPTKING 3.0: for geometry optimizations

    			     By R.A. King, Bethel University

    			        with contributions from

    			    A.V. Copan, J. Cayton, A. Heide

    			-----------------------------------------

	                            ===> Fragment 1 <==

	 Z (Atomic Numbers)          Masses                          Geom
	       9.000000            18.998403          0.00000000  0.00000000  2.62418883
	      11.000000            22.989769          0.00000000  0.00000000 -2.16859059

	 - Coordinate -           - BOHR/RAD -       - ANG/DEG -
	 R(1,2)           =         4.792779           2.536230

	        --- Internal Coordinate Step in ANG or DEG, aJ/ANG or AJ/DEG ---
	-------------------------------------------------------------------------------
	           Coordinate      Previous         Force          Change          New
	           ----------      --------        ------          ------        ------
	               R(1,2)       2.53623        0.00035        0.00041       2.53664
	-------------------------------------------------------------------------------

	                                 ==> Convergence Check <==

	Measures of convergence in internal coordinates in au.

	Criteria marked as inactive (o), active & met (*), and active & unmet ( ).

	----------------------------------------------------------------------------------------------
	   Step    Total Energy     Delta E     Max Force     RMS Force      Max Disp      RMS Disp
	----------------------------------------------------------------------------------------------
	  Convergence Criteria     1.00e-06 *    3.00e-04 *             o    1.20e-03 *             o
	----------------------------------------------------------------------------------------------
	    11    -260.45783979   -3.63e-07 *    4.21e-05 *    4.21e-05 o    7.70e-04 *    7.70e-04 o  ~
	----------------------------------------------------------------------------------------------

Next Geometry in Ang
	Fragment 1 (Ang)

	    F   0.0000000000   0.0000000000   1.3888645711
	   Na   0.0000000000   0.0000000000  -1.1477723660

    Final optimized geometry and variables:
    Molecular point group: c2v
    Full point group: C_inf_v

    Geometry (in Angstrom), charge = 1, multiplicity = 6:

    F            0.000000000000     0.000000000000     1.388660926129
    NA           0.000000000000     0.000000000000    -1.147568720996

    Psi4 stopped on: Thursday, 17 July 2025 02:26PM
    Psi4 wall time for execution: 0:00:11.63

*** Psi4 exiting successfully. Buy a developer a beer!
