                               Psi4 1.9.1 release

  ==> Input File <==

--------------------------------------------------------------------------
molecule {
1 6
P   0.00000        0.60000        0.00000
P   0.00000       -0.60000        0.00000
}

set {
basis              cc-pvdz
reference          uks
maxiter            500
geom_maxiter       500
DAMPING_PERCENTAGE 1
guess              SAP
}

optimize('b3lyp')
--------------------------------------------------------------------------

    Molecular point group: d2h
  Charge       = 1
  Multiplicity = 6
  Basis Set: CC-PVDZ
    Blend: CC-PVDZ
  Basis Set: (CC-PVDZ AUX)
    Blend: CC-PVDZ-JKFIT
  @DF-UKS Final Energy:  -680.67154721557802
    Total Energy =                       -680.6715472155779025
 Dipole X            :          0.0000000            0.0000000            0.0000000
 Dipole Y            :          0.0000000            0.0000000            0.0000000
 Dipole Z            :          0.0000000            0.0000000            0.0000000
 Magnitude           :                                                    0.0000000
    Molecular point group: d2h
  Basis Set: CC-PVDZ
    Blend: CC-PVDZ
  Basis Set: (CC-PVDZ AUX)
    Blend: CC-PVDZ-JKFIT
  Basis Set: CC-PVDZ
    Blend: CC-PVDZ
  Basis Set: (CC-PVDZ AUX)
    Blend: CC-PVDZ-JKFIT
  @DF-UKS Final Energy:  -680.71045790557116
    Total Energy =                       -680.7104579055710474
  Basis Set: CC-PVDZ
    Blend: CC-PVDZ
  Basis Set: (CC-PVDZ AUX)
    Blend: CC-PVDZ-JKFIT
  Basis Set: CC-PVDZ
    Blend: CC-PVDZ
  @DF-UKS Final Energy:  -680.78366300152675
    Total Energy =                       -680.7836630015267474
  @DF-UKS Final Energy:  -681.03008003905620
    Total Energy =                       -681.0300800390562017
  @DF-UKS Final Energy:  -681.64803667036358
    Total Energy =                       -681.6480366703638083
  @DF-UKS Final Energy:  -681.92094872057510
    Total Energy =                       -681.9209487205750975
  @DF-UKS Final Energy:  -682.09709239875019
    Total Energy =                       -682.0970923987500782
  @DF-UKS Final Energy:  -682.17432945945768
    Total Energy =                       -682.1743294594576810
  @DF-UKS Final Energy:  -682.21387219690246
    Total Energy =                       -682.2138721969023436
  @DF-UKS Final Energy:  -682.23201319889404
    Total Energy =                       -682.2320131988940375
  @DF-UKS Final Energy:  -682.23962733497797
    Total Energy =                       -682.2396273349779676
  @DF-UKS Final Energy:  -682.24225823547840
    Total Energy =                       -682.2422582354784026
  @DF-UKS Final Energy:  -682.24280667788128
    Total Energy =                       -682.2428066778812763
  @DF-UKS Final Energy:  -682.24296444597621
    Total Energy =                       -682.2429644459762130
  @DF-UKS Final Energy:  -682.24298420530818
    Total Energy =                       -682.2429842053081757
  Basis Set: (CC-PVDZ AUX)
    Blend: CC-PVDZ-JKFIT
  Basis Set: CC-PVDZ
    Blend: CC-PVDZ
  Basis Set: (CC-PVDZ AUX)
    Blend: CC-PVDZ-JKFIT
  @DF-UKS Final Energy:  -682.24298680578102
    Total Energy =                       -682.2429868057810154
  Basis Set: CC-PVDZ
    Blend: CC-PVDZ
  Basis Set: (CC-PVDZ AUX)
    Blend: CC-PVDZ-JKFIT
  Charge       = 1
  Multiplicity = 6
  Basis Set: CC-PVDZ
    Blend: CC-PVDZ
  Basis Set: (CC-PVDZ AUX)
    Blend: CC-PVDZ-JKFIT

    Orbital Energies [Eh]
    ---------------------

    Alpha Occupied:

       1Ag   -77.412300     1B2u  -77.412300     2B2u   -6.877034
       2Ag    -6.877002     3Ag    -5.041973     3B2u   -5.041951
       1B3g   -5.039386     1B1g   -5.039386     1B1u   -5.039383
       1B3u   -5.039383     4Ag    -0.904697     4B2u   -0.828076
       5Ag    -0.568358     2B1u   -0.536305     2B3u   -0.536305
       2B3g   -0.485326     2B1g   -0.485326

    Alpha Virtual:

       5B2u   -0.350198     6Ag     0.061824     3B1u    0.082111
       3B3u    0.082111     7Ag     0.098948     6B2u    0.134985
       8Ag     0.161043     1B2g    0.161044     4B1u    0.171997
       4B3u    0.171997     3B3g    0.174208     3B1g    0.174208
       7B2u    0.187866     1Au     0.187867     8B2u    0.194538
       9Ag     0.288368     4B3g    0.316406     4B1g    0.316406
       9B2u    0.626464

    Beta Occupied:

       1B2u  -77.400763     1Ag   -77.400762     2B2u   -6.864717
       2Ag    -6.864671     3Ag    -5.028970     3B2u   -5.028952
       1B3g   -5.019026     1B1g   -5.019026     1B1u   -5.019023
       1B3u   -5.019023     4Ag    -0.804202     4B2u   -0.716145

    Beta Virtual:

       5Ag    -0.444995     2B1u   -0.387363     2B3u   -0.387363
       2B1g   -0.329732     2B3g   -0.329732     5B2u   -0.277524
       6Ag     0.120826     7Ag     0.141756     3B1u    0.163265
       3B3u    0.163265     6B2u    0.170395     4B1u    0.221327
       4B3u    0.221327     3B3g    0.227058     3B1g    0.227058
       7B2u    0.241023     1B2g    0.261784     8Ag     0.261785
       1Au     0.289117     8B2u    0.289118     9Ag     0.329942
       4B3g    0.387448     4B1g    0.387448     9B2u    0.681151

    Final Occupation by Irrep:
             Ag   B1g   B2g   B3g    Au   B1u   B2u   B3u
    DOCC [     4,    1,    0,    1,    0,    1,    4,    1 ]
    SOCC [     1,    1,    0,    1,    0,    1,    0,    1 ]
    NA   [     5,    2,    0,    2,    0,    2,    4,    2 ]
    NB   [     4,    1,    0,    1,    0,    1,    4,    1 ]

  @DF-UKS Final Energy:  -682.24298716283602

   => Energetics <=

    Nuclear Repulsion Energy =             45.3689993482645804
    One-Electron Energy =               -1025.4420153272890275
    Two-Electron Energy =                 334.9615752640399933
    DFT Exchange-Correlation Energy =     -37.1315464478515338
    Empirical Dispersion Energy =           0.0000000000000000
    VV10 Nonlocal Energy =                  0.0000000000000000
    Total Energy =                       -682.2429871628360161

  UHF NO Occupations:
  HONO-2 :    2B1u 1.0000000
  HONO-1 :    5 Ag 1.0000000
  HONO-0 :    2B1g 1.0000000
  LUNO+0 :    5B2u 0.0004822
  LUNO+1 :    6 Ag 0.0003027
  LUNO+2 :    6B2u 0.0000001
  LUNO+3 :    3B1u 0.0000000

Computation Completed

Properties will be evaluated at   0.000000,   0.000000,   0.000000 [a0]

Properties computed using the SCF density matrix

 Multipole Moments:

 ------------------------------------------------------------------------------------
     Multipole            Electronic (a.u.)      Nuclear  (a.u.)        Total (a.u.)
 ------------------------------------------------------------------------------------

 L = 1.  Multiply by 2.5417464519 to convert [e a0] to [Debye]
 Dipole X            :          0.0000000            0.0000000            0.0000000
 Dipole Y            :          0.0000000            0.0000000            0.0000000
 Dipole Z            :          0.0000000            0.0000000            0.0000000
 Magnitude           :                                                    0.0000000

 ------------------------------------------------------------------------------------

*** tstop() called on Joses-MacBook-Pro-2.local at Thu Jul 17 15:45:34 2025
Module time:
	user time   =       7.34 seconds =       0.12 minutes
	system time =       1.91 seconds =       0.03 minutes
	total time  =          1 seconds =       0.02 minutes
Total time:
	user time   =     180.99 seconds =       3.02 minutes
	system time =      53.61 seconds =       0.89 minutes
	total time  =         22 seconds =       0.37 minutes

*** tstart() called on Joses-MacBook-Pro-2.local
*** at Thu Jul 17 15:45:34 2025

         ------------------------------------------------------------
                                   SCF GRAD
                          Rob Parrish, Justin Turney,
                       Andy Simmonett, and Alex Sokolov
         ------------------------------------------------------------

  ==> Geometry <==

    Molecular point group: d2h
    Full point group: D_inf_h

    Geometry (in Angstrom), charge = 1, multiplicity = 6:

       Center              X                  Y                   Z               Mass
    ------------   -----------------  -----------------  -----------------  -----------------
         P           -0.000000000000     1.312183143899     0.000000000000    30.973761998420
         P            0.000000000000    -1.312183143899     0.000000000000    30.973761998420

  Nuclear repulsion =   45.368999348264580

  ==> Basis Set <==

  Basis Set: CC-PVDZ
    Blend: CC-PVDZ
    Number of shells: 16
    Number of basis functions: 36
    Number of Cartesian functions: 38
    Spherical Harmonics?: true
    Max angular momentum: 2

  ==> DFJKGrad: Density-Fitted SCF Gradients <==

    Gradient:                    1
    J tasked:                  Yes
    K tasked:                  Yes
    wK tasked:                  No
    OpenMP threads:              1
    Integrals threads:           1
    Memory [MiB]:              375
    Schwarz Cutoff:          1E-12
    Fitting Condition:       1E-10

   => Auxiliary Basis Set <=

  Basis Set: (CC-PVDZ AUX)
    Blend: CC-PVDZ-JKFIT
    Number of shells: 72
    Number of basis functions: 224
    Number of Cartesian functions: 260
    Spherical Harmonics?: true
    Max angular momentum: 3

  ==> DFT Potential <==

   => LibXC <=

    Version 6.2.2
    S. Lehtola, C. Steigemann, M. J.T. Oliveira, and M. A.L. Marques.,  SoftwareX 7, 1â€“5 (2018) (10.1016/j.softx.2017.11.002)

   => Composite Functional: B3LYP <=

    B3LYP Hyb-GGA Exchange-Correlation Functional

    P. J. Stephens, F. J. Devlin, C. F. Chabalowski, and M. J. Frisch.,  J. Phys. Chem. 98, 11623 (1994) (10.1021/j100096a001)

    Deriv               =              1
    GGA                 =           TRUE
    Meta                =          FALSE

    Exchange Hybrid     =           TRUE
    MP2 Hybrid          =          FALSE

   => Exchange Functionals <=

    0.0800   Slater exchange
    0.7200         Becke 88

   => Exact (HF) Exchange <=

    0.2000               HF

   => Correlation Functionals <=

    0.1900   Vosko, Wilk & Nusair (VWN5_RPA)
    0.8100   Lee, Yang & Parr

   => LibXC Density Thresholds  <==

    XC_HYB_GGA_XC_B3LYP:  1.00E-15

   => Molecular Quadrature <=

    Radial Scheme          =       TREUTLER
    Pruning Scheme         =           NONE
    Nuclear Scheme         =       TREUTLER

    Blocking Scheme        =         OCTREE
    BS radius alpha        =              1
    Pruning alpha          =              1
    Radial Points          =             75
    Spherical Points       =            302
    Total Points           =          40880
    Total Blocks           =            376
    Max Points             =            254
    Max Functions          =             36
    Weights Tolerance      =       1.00E-15

  -Total Gradient:
     Atom            X                  Y                   Z
    ------   -----------------  -----------------  -----------------
       1        0.000000000000    -0.000035213778     0.000000000000
       2       -0.000000000000     0.000035213778    -0.000000000000

*** tstop() called on Joses-MacBook-Pro-2.local at Thu Jul 17 15:45:34 2025
Module time:
	user time   =       2.97 seconds =       0.05 minutes
	system time =       0.91 seconds =       0.02 minutes
	total time  =          0 seconds =       0.00 minutes
Total time:
	user time   =     183.97 seconds =       3.07 minutes
	system time =      54.52 seconds =       0.91 minutes
	total time  =         22 seconds =       0.37 minutes

    			-----------------------------------------

    			 OPTKING 3.0: for geometry optimizations

    			     By R.A. King, Bethel University

    			        with contributions from

    			    A.V. Copan, J. Cayton, A. Heide

    			-----------------------------------------

	                            ===> Fragment 1 <==

	 Z (Atomic Numbers)          Masses                          Geom
	      15.000000            30.973762         -0.00000000  2.47966677  0.00000000
	      15.000000            30.973762          0.00000000 -2.47966677  0.00000000

	 - Coordinate -           - BOHR/RAD -       - ANG/DEG -
	 R(1,2)           =         4.959334           2.624366

	        --- Internal Coordinate Step in ANG or DEG, aJ/ANG or AJ/DEG ---
	-------------------------------------------------------------------------------
	           Coordinate      Previous         Force          Change          New
	           ----------      --------        ------          ------        ------
	               R(1,2)       2.62437        0.00029        0.00054       2.62490
	-------------------------------------------------------------------------------

	                                 ==> Convergence Check <==

	Measures of convergence in internal coordinates in au.

	Criteria marked as inactive (o), active & met (*), and active & unmet ( ).

	----------------------------------------------------------------------------------------------
	   Step    Total Energy     Delta E     Max Force     RMS Force      Max Disp      RMS Disp
	----------------------------------------------------------------------------------------------
	  Convergence Criteria     1.00e-06 *    3.00e-04 *             o    1.20e-03 *             o
	----------------------------------------------------------------------------------------------
	    17    -682.24298716   -3.57e-07 *    3.52e-05 *    3.52e-05 o    1.02e-03 *    1.02e-03 o  ~
	----------------------------------------------------------------------------------------------

Next Geometry in Ang
	Fragment 1 (Ang)

	    P  -0.0000000000   1.3124519731   0.0000000000
	    P   0.0000000000  -1.3124519731   0.0000000000

    Final optimized geometry and variables:
    Molecular point group: d2h
    Full point group: D_inf_h

    Geometry (in Angstrom), charge = 1, multiplicity = 6:

    P           -0.000000000000     1.312183143899     0.000000000000
    P            0.000000000000    -1.312183143899     0.000000000000

    Psi4 stopped on: Thursday, 17 July 2025 03:45PM
    Psi4 wall time for execution: 0:00:23.19

*** Psi4 exiting successfully. Buy a developer a beer!
