                               Psi4 1.9.1 release

  ==> Input File <==

--------------------------------------------------------------------------
molecule {
1 1
Ne   0.00000        0.60000        0.00000
P   0.00000       -0.60000        0.00000
}

set {
basis              cc-pvdz
reference          uks
maxiter            500
geom_maxiter       500
DAMPING_PERCENTAGE 1
guess              SAP
}

optimize('b3lyp')
--------------------------------------------------------------------------

    Molecular point group: c2v
  Charge       = 1
  Multiplicity = 1
  Basis Set: CC-PVDZ
    Blend: CC-PVDZ
  Basis Set: (CC-PVDZ AUX)
    Blend: CC-PVDZ-JKFIT
  @DF-UKS Final Energy:  -469.29183129025051
    Total Energy =                       -469.2918312902505136
 Dipole X            :          0.0000000            0.0000000            0.0000000
 Dipole Y            :          0.0000000            0.0000000            0.0000000
 Dipole Z            :          0.1755087            0.4383075            0.6138162
 Magnitude           :                                                    0.6138162
    Molecular point group: c2v
  Basis Set: CC-PVDZ
    Blend: CC-PVDZ
  Basis Set: (CC-PVDZ AUX)
    Blend: CC-PVDZ-JKFIT
  Basis Set: CC-PVDZ
    Blend: CC-PVDZ
  Basis Set: (CC-PVDZ AUX)
    Blend: CC-PVDZ-JKFIT
  @DF-UKS Final Energy:  -469.51570909804508
    Total Energy =                       -469.5157090980450789
  Basis Set: CC-PVDZ
    Blend: CC-PVDZ
  Basis Set: (CC-PVDZ AUX)
    Blend: CC-PVDZ-JKFIT
  Basis Set: CC-PVDZ
    Blend: CC-PVDZ
  @DF-UKS Final Energy:  -469.63914785048689
    Total Energy =                       -469.6391478504868928
  @DF-UKS Final Energy:  -469.70387758914251
    Total Energy =                       -469.7038775891425075
  @DF-UKS Final Energy:  -469.73626996170299
    Total Energy =                       -469.7362699617029875
  @DF-UKS Final Energy:  -469.75126831690534
    Total Energy =                       -469.7512683169053389
  @DF-UKS Final Energy:  -469.75758456050573
    Total Energy =                       -469.7575845605057907
  @DF-UKS Final Energy:  -469.75943555852649
    Total Energy =                       -469.7594355585264907
  @DF-UKS Final Energy:  -469.76028964534572
    Total Energy =                       -469.7602896453457788
  @DF-UKS Final Energy:  -469.76051240201321
    Total Energy =                       -469.7605124020132052
  @DF-UKS Final Energy:  -469.76059422616896
    Total Energy =                       -469.7605942261690188
  @DF-UKS Final Energy:  -469.76060796208327
    Total Energy =                       -469.7606079620832134
  Basis Set: (CC-PVDZ AUX)
    Blend: CC-PVDZ-JKFIT
  Basis Set: CC-PVDZ
    Blend: CC-PVDZ
  Basis Set: (CC-PVDZ AUX)
    Blend: CC-PVDZ-JKFIT
  @DF-UKS Final Energy:  -469.76061070423981
    Total Energy =                       -469.7606107042398094
  Basis Set: CC-PVDZ
    Blend: CC-PVDZ
  Basis Set: (CC-PVDZ AUX)
    Blend: CC-PVDZ-JKFIT
  Charge       = 1
  Multiplicity = 1
  Basis Set: CC-PVDZ
    Blend: CC-PVDZ
  Basis Set: (CC-PVDZ AUX)
    Blend: CC-PVDZ-JKFIT

    Orbital Energies [Eh]
    ---------------------

    Alpha Occupied:

       1A1   -77.530056     2A1   -31.288717     3A1    -6.984019
       1B1    -5.153265     4A1    -5.152765     1B2    -5.128771
       5A1    -1.745082     6A1    -0.914656     2B1    -0.846355
       2B2    -0.844681     7A1    -0.829078     3B2    -0.517444

    Alpha Virtual:

       3B1    -0.481069     8A1    -0.456252     9A1     0.073178
      10A1     0.110198     4B1     0.128509     5B1     0.131916
       4B2     0.148775     1A2     0.152617     5B2     0.153128
      11A1     0.159084    12A1     0.205385     6B1     1.106721
       6B2     1.110921    13A1     1.205983    14A1     1.813580
       7B1     4.411407     7B2     4.412982    15A1     4.418392
       2A2     4.419724    16A1     4.420013

    Beta Occupied:

       1A1   -77.530056     2A1   -31.288717     3A1    -6.984019
       1B1    -5.153265     4A1    -5.152765     1B2    -5.128771
       5A1    -1.745082     6A1    -0.914656     2B1    -0.846355
       2B2    -0.844681     7A1    -0.829078     3B2    -0.517444

    Beta Virtual:

       3B1    -0.481069     8A1    -0.456252     9A1     0.073178
      10A1     0.110198     4B1     0.128509     5B1     0.131916
       4B2     0.148775     1A2     0.152617     5B2     0.153128
      11A1     0.159084    12A1     0.205385     6B1     1.106721
       6B2     1.110921    13A1     1.205983    14A1     1.813580
       7B1     4.411407     7B2     4.412982    15A1     4.418392
       2A2     4.419724    16A1     4.420013

    Final Occupation by Irrep:
             A1    A2    B1    B2
    DOCC [     7,    0,    2,    3 ]
    SOCC [     0,    0,    0,    0 ]
    NA   [     7,    0,    2,    3 ]
    NB   [     7,    0,    2,    3 ]

  @DF-UKS Final Energy:  -469.76061095771223

   => Energetics <=

    Nuclear Repulsion Energy =             35.5980102687811950
    One-Electron Energy =                -716.5118022921798229
    Two-Electron Energy =                 239.6548424028708268
    DFT Exchange-Correlation Energy =     -28.5016613371844265
    Empirical Dispersion Energy =           0.0000000000000000
    VV10 Nonlocal Energy =                  0.0000000000000000
    Total Energy =                       -469.7606109577122311

  UHF NO Occupations:
  HONO-2 :    5 A1 2.0000000
  HONO-1 :    6 A1 2.0000000
  HONO-0 :    7 A1 2.0000000
  LUNO+0 :    8 A1 0.0000000
  LUNO+1 :    9 A1 0.0000000
  LUNO+2 :   10 A1 0.0000000
  LUNO+3 :   11 A1 0.0000000

Computation Completed

Properties will be evaluated at   0.000000,   0.000000,   0.000000 [a0]

Properties computed using the SCF density matrix

 Multipole Moments:

 ------------------------------------------------------------------------------------
     Multipole            Electronic (a.u.)      Nuclear  (a.u.)        Total (a.u.)
 ------------------------------------------------------------------------------------

 L = 1.  Multiply by 2.5417464519 to convert [e a0] to [Debye]
 Dipole X            :          0.0000000            0.0000000            0.0000000
 Dipole Y            :          0.0000000            0.0000000            0.0000000
 Dipole Z            :         -1.9817613            0.8144498           -1.1673114
 Magnitude           :                                                    1.1673114

 ------------------------------------------------------------------------------------

*** tstop() called on Joses-MacBook-Pro-2.local at Thu Jul 17 14:41:19 2025
Module time:
	user time   =       1.88 seconds =       0.03 minutes
	system time =       3.36 seconds =       0.06 minutes
	total time  =          0 seconds =       0.00 minutes
Total time:
	user time   =      54.50 seconds =       0.91 minutes
	system time =      77.20 seconds =       1.29 minutes
	total time  =         13 seconds =       0.22 minutes

*** tstart() called on Joses-MacBook-Pro-2.local
*** at Thu Jul 17 14:41:19 2025

         ------------------------------------------------------------
                                   SCF GRAD
                          Rob Parrish, Justin Turney,
                       Andy Simmonett, and Alex Sokolov
         ------------------------------------------------------------

  ==> Geometry <==

    Molecular point group: c2v
    Full point group: C_inf_v

    Geometry (in Angstrom), charge = 1, multiplicity = 1:

       Center              X                  Y                   Z               Mass
    ------------   -----------------  -----------------  -----------------  -----------------
         NE           0.000000000000     0.000000000000     1.355121863010    19.992440176200
         P            0.000000000000     0.000000000000    -0.874682022128    30.973761998420

  Nuclear repulsion =   35.598010268781195

  ==> Basis Set <==

  Basis Set: CC-PVDZ
    Blend: CC-PVDZ
    Number of shells: 14
    Number of basis functions: 32
    Number of Cartesian functions: 34
    Spherical Harmonics?: true
    Max angular momentum: 2

  ==> DFJKGrad: Density-Fitted SCF Gradients <==

    Gradient:                    1
    J tasked:                  Yes
    K tasked:                  Yes
    wK tasked:                  No
    OpenMP threads:              1
    Integrals threads:           1
    Memory [MiB]:              375
    Schwarz Cutoff:          1E-12
    Fitting Condition:       1E-10

   => Auxiliary Basis Set <=

  Basis Set: (CC-PVDZ AUX)
    Blend: CC-PVDZ-JKFIT
    Number of shells: 60
    Number of basis functions: 182
    Number of Cartesian functions: 211
    Spherical Harmonics?: true
    Max angular momentum: 3

  ==> DFT Potential <==

   => LibXC <=

    Version 6.2.2
    S. Lehtola, C. Steigemann, M. J.T. Oliveira, and M. A.L. Marques.,  SoftwareX 7, 1â€“5 (2018) (10.1016/j.softx.2017.11.002)

   => Composite Functional: B3LYP <=

    B3LYP Hyb-GGA Exchange-Correlation Functional

    P. J. Stephens, F. J. Devlin, C. F. Chabalowski, and M. J. Frisch.,  J. Phys. Chem. 98, 11623 (1994) (10.1021/j100096a001)

    Deriv               =              1
    GGA                 =           TRUE
    Meta                =          FALSE

    Exchange Hybrid     =           TRUE
    MP2 Hybrid          =          FALSE

   => Exchange Functionals <=

    0.0800   Slater exchange
    0.7200         Becke 88

   => Exact (HF) Exchange <=

    0.2000               HF

   => Correlation Functionals <=

    0.1900   Vosko, Wilk & Nusair (VWN5_RPA)
    0.8100   Lee, Yang & Parr

   => LibXC Density Thresholds  <==

    XC_HYB_GGA_XC_B3LYP:  1.00E-15

   => Molecular Quadrature <=

    Radial Scheme          =       TREUTLER
    Pruning Scheme         =           NONE
    Nuclear Scheme         =       TREUTLER

    Blocking Scheme        =         OCTREE
    BS radius alpha        =              1
    Pruning alpha          =              1
    Radial Points          =             75
    Spherical Points       =            302
    Total Points           =          42755
    Total Blocks           =            384
    Max Points             =            254
    Max Functions          =             32
    Weights Tolerance      =       1.00E-15

  -Total Gradient:
     Atom            X                  Y                   Z
    ------   -----------------  -----------------  -----------------
       1        0.000000000000     0.000000000000     0.000001284403
       2        0.000000000000     0.000000000000     0.000045885209

*** tstop() called on Joses-MacBook-Pro-2.local at Thu Jul 17 14:41:20 2025
Module time:
	user time   =       1.36 seconds =       0.02 minutes
	system time =       1.15 seconds =       0.02 minutes
	total time  =          1 seconds =       0.02 minutes
Total time:
	user time   =      55.88 seconds =       0.93 minutes
	system time =      78.35 seconds =       1.31 minutes
	total time  =         14 seconds =       0.23 minutes

    			-----------------------------------------

    			 OPTKING 3.0: for geometry optimizations

    			     By R.A. King, Bethel University

    			        with contributions from

    			    A.V. Copan, J. Cayton, A. Heide

    			-----------------------------------------

	                            ===> Fragment 1 <==

	 Z (Atomic Numbers)          Masses                          Geom
	      10.000000            19.992440          0.00000000  0.00000000  2.56080919
	      15.000000            30.973762          0.00000000  0.00000000 -1.65290947

	 - Coordinate -           - BOHR/RAD -       - ANG/DEG -
	 R(1,2)           =         4.213719           2.229804

	        --- Internal Coordinate Step in ANG or DEG, aJ/ANG or AJ/DEG ---
	-------------------------------------------------------------------------------
	           Coordinate      Previous         Force          Change          New
	           ----------      --------        ------          ------        ------
	               R(1,2)       2.22980        0.00018        0.00040       2.23020
	-------------------------------------------------------------------------------

	                                 ==> Convergence Check <==

	Measures of convergence in internal coordinates in au.

	Criteria marked as inactive (o), active & met (*), and active & unmet ( ).

	----------------------------------------------------------------------------------------------
	   Step    Total Energy     Delta E     Max Force     RMS Force      Max Disp      RMS Disp
	----------------------------------------------------------------------------------------------
	  Convergence Criteria     1.00e-06 *    3.00e-04 *             o    1.20e-03 *             o
	----------------------------------------------------------------------------------------------
	    14    -469.76061096   -2.53e-07 *    2.23e-05 *    2.23e-05 o    7.57e-04 *    7.57e-04 o  ~
	----------------------------------------------------------------------------------------------

Next Geometry in Ang
	Fragment 1 (Ang)

	   Ne   0.0000000000   0.0000000000   1.3553220477
	    P   0.0000000000   0.0000000000  -0.8748822068

    Final optimized geometry and variables:
    Molecular point group: c2v
    Full point group: C_inf_v

    Geometry (in Angstrom), charge = 1, multiplicity = 1:

    NE           0.000000000000     0.000000000000     1.355121863010
    P            0.000000000000     0.000000000000    -0.874682022128

    Psi4 stopped on: Thursday, 17 July 2025 02:41PM
    Psi4 wall time for execution: 0:00:14.11

*** Psi4 exiting successfully. Buy a developer a beer!
