                               Psi4 1.9.1 release

  ==> Input File <==

--------------------------------------------------------------------------
molecule {
1 1
C   0.00000        0.60000        0.00000
Na   0.00000       -0.60000        0.00000
}

set {
basis              cc-pvdz
reference          uks
maxiter            500
geom_maxiter       500
DAMPING_PERCENTAGE 1
guess              SAP
}

optimize('b3lyp')
--------------------------------------------------------------------------

    Molecular point group: c2v
  Charge       = 1
  Multiplicity = 1
  Basis Set: CC-PVDZ
    Blend: CC-PVDZ
  Basis Set: (CC-PVDZ AUX)
    Blend: CC-PVDZ-JKFIT + DEF2-UNIVERSAL-JKFIT
  @DF-UKS Final Energy:  -199.44573826028542
    Total Energy =                       -199.4457382602853954
 Dipole X            :          0.0000000            0.0000000            0.0000000
 Dipole Y            :          0.0000000            0.0000000            0.0000000
 Dipole Z            :         -1.5160881            0.3848790           -1.1312091
 Magnitude           :                                                    1.1312091
    Molecular point group: c2v
  Basis Set: CC-PVDZ
    Blend: CC-PVDZ
  Basis Set: (CC-PVDZ AUX)
    Blend: CC-PVDZ-JKFIT + DEF2-UNIVERSAL-JKFIT
  Basis Set: CC-PVDZ
    Blend: CC-PVDZ
  Basis Set: (CC-PVDZ AUX)
    Blend: CC-PVDZ-JKFIT + DEF2-UNIVERSAL-JKFIT
  @DF-UKS Final Energy:  -199.55568824390335
    Total Energy =                       -199.5556882439033473
  Basis Set: CC-PVDZ
    Blend: CC-PVDZ
  Basis Set: (CC-PVDZ AUX)
    Blend: CC-PVDZ-JKFIT + DEF2-UNIVERSAL-JKFIT
  Basis Set: CC-PVDZ
    Blend: CC-PVDZ
  @DF-UKS Final Energy:  -199.66960736986888
    Total Energy =                       -199.6696073698688565
  @DF-UKS Final Energy:  -199.77037217673239
    Total Energy =                       -199.7703721767323941
  @DF-UKS Final Energy:  -199.82315040068141
    Total Energy =                       -199.8231504006813850
  @DF-UKS Final Energy:  -199.84880172886966
    Total Energy =                       -199.8488017288696597
  @DF-UKS Final Energy:  -199.86171916251868
    Total Energy =                       -199.8617191625186820
  @DF-UKS Final Energy:  -199.86838183231185
    Total Energy =                       -199.8683818323118544
  @DF-UKS Final Energy:  -199.87189752535704
    Total Energy =                       -199.8718975253570420
  @DF-UKS Final Energy:  -199.87371688633596
    Total Energy =                       -199.8737168863359841
  @DF-UKS Final Energy:  -199.87460971381381
    Total Energy =                       -199.8746097138137827
  @DF-UKS Final Energy:  -199.87500882057239
    Total Energy =                       -199.8750088205723898
  @DF-UKS Final Energy:  -199.87517325451569
    Total Energy =                       -199.8751732545156869
  @DF-UKS Final Energy:  -199.87522634828403
    Total Energy =                       -199.8752263482840306
  @DF-UKS Final Energy:  -199.87523775882124
    Total Energy =                       -199.8752377588212710
  Basis Set: (CC-PVDZ AUX)
    Blend: CC-PVDZ-JKFIT + DEF2-UNIVERSAL-JKFIT
  Basis Set: CC-PVDZ
    Blend: CC-PVDZ
  Basis Set: (CC-PVDZ AUX)
    Blend: CC-PVDZ-JKFIT + DEF2-UNIVERSAL-JKFIT
  @DF-UKS Final Energy:  -199.87524126531372
    Total Energy =                       -199.8752412653137185
  Basis Set: CC-PVDZ
    Blend: CC-PVDZ
  Basis Set: (CC-PVDZ AUX)
    Blend: CC-PVDZ-JKFIT + DEF2-UNIVERSAL-JKFIT
  Charge       = 1
  Multiplicity = 1
  Basis Set: CC-PVDZ
    Blend: CC-PVDZ
  Basis Set: (CC-PVDZ AUX)
    Blend: CC-PVDZ-JKFIT + DEF2-UNIVERSAL-JKFIT

    Orbital Energies [Eh]
    ---------------------

    Alpha Occupied:

       1A1   -38.772774     2A1   -10.494671     3A1    -2.509688
       4A1    -1.441043     1B2    -1.440862     1B1    -1.440663
       5A1    -0.707840     2B1    -0.369033

    Alpha Virtual:

       6A1    -0.325106     2B2    -0.306849     7A1    -0.243955
       3B1    -0.151515     3B2    -0.147954     8A1    -0.134589
       9A1    -0.070889     4B1    -0.050450     4B2    -0.047857
      10A1    -0.047721     5B1     0.006117     5B2     0.007379
       1A2     0.008862    11A1     0.010826    12A1     0.037928
       6B2     0.347646     6B1     0.354999    13A1     0.380149
      14A1     0.594907     7B2     0.978571    15A1     0.990652
       2A2     0.992196     7B1     0.997942    16A1     1.024203

    Beta Occupied:

       1A1   -38.772774     2A1   -10.494671     3A1    -2.509688
       4A1    -1.441043     1B2    -1.440862     1B1    -1.440663
       5A1    -0.707840     2B1    -0.369033

    Beta Virtual:

       6A1    -0.325106     2B2    -0.306849     7A1    -0.243955
       3B1    -0.151515     3B2    -0.147954     8A1    -0.134589
       9A1    -0.070889     4B1    -0.050450     4B2    -0.047857
      10A1    -0.047721     5B1     0.006117     5B2     0.007379
       1A2     0.008862    11A1     0.010826    12A1     0.037928
       6B2     0.347646     6B1     0.354999    13A1     0.380149
      14A1     0.594907     7B2     0.978571    15A1     0.990652
       2A2     0.992196     7B1     0.997942    16A1     1.024203

    Final Occupation by Irrep:
             A1    A2    B1    B2
    DOCC [     5,    0,    2,    1 ]
    SOCC [     0,    0,    0,    0 ]
    NA   [     5,    0,    2,    1 ]
    NB   [     5,    0,    2,    1 ]

  @DF-UKS Final Energy:  -199.87524171495849

   => Energetics <=

    Nuclear Repulsion Energy =             10.5324946312798655
    One-Electron Energy =                -295.1933481056064466
    Two-Electron Energy =                 100.5033854547323386
    DFT Exchange-Correlation Energy =     -15.7177736953642420
    Empirical Dispersion Energy =           0.0000000000000000
    VV10 Nonlocal Energy =                  0.0000000000000000
    Total Energy =                       -199.8752417149584915

  UHF NO Occupations:
  HONO-2 :    4 A1 2.0000000
  HONO-1 :    2 B1 2.0000000
  HONO-0 :    5 A1 2.0000000
  LUNO+0 :    6 A1 0.0000000
  LUNO+1 :    7 A1 0.0000000
  LUNO+2 :    8 A1 0.0000000
  LUNO+3 :    3 B1 0.0000000

Computation Completed

Properties will be evaluated at   0.000000,   0.000000,   0.000000 [a0]

Properties computed using the SCF density matrix

 Multipole Moments:

 ------------------------------------------------------------------------------------
     Multipole            Electronic (a.u.)      Nuclear  (a.u.)        Total (a.u.)
 ------------------------------------------------------------------------------------

 L = 1.  Multiply by 2.5417464519 to convert [e a0] to [Debye]
 Dipole X            :          0.0000000            0.0000000            0.0000000
 Dipole Y            :          0.0000000            0.0000000            0.0000000
 Dipole Z            :         -2.9129036            1.0635474           -1.8493562
 Magnitude           :                                                    1.8493562

 ------------------------------------------------------------------------------------

*** tstop() called on Joses-MacBook-Pro-2.local at Thu Jul 17 13:42:31 2025
Module time:
	user time   =       1.88 seconds =       0.03 minutes
	system time =       4.10 seconds =       0.07 minutes
	total time  =          0 seconds =       0.00 minutes
Total time:
	user time   =      58.49 seconds =       0.97 minutes
	system time =     108.29 seconds =       1.80 minutes
	total time  =         16 seconds =       0.27 minutes

*** tstart() called on Joses-MacBook-Pro-2.local
*** at Thu Jul 17 13:42:31 2025

         ------------------------------------------------------------
                                   SCF GRAD
                          Rob Parrish, Justin Turney,
                       Andy Simmonett, and Alex Sokolov
         ------------------------------------------------------------

  ==> Geometry <==

    Molecular point group: c2v
    Full point group: C_inf_v

    Geometry (in Angstrom), charge = 1, multiplicity = 1:

       Center              X                  Y                   Z               Mass
    ------------   -----------------  -----------------  -----------------  -----------------
         C            0.000000000000     0.000000000000     2.178749778288    12.000000000000
         NA           0.000000000000     0.000000000000    -1.137244877004    22.989769282000

  Nuclear repulsion =   10.532494631279866

  ==> Basis Set <==

  Basis Set: CC-PVDZ
    Blend: CC-PVDZ
    Number of shells: 14
    Number of basis functions: 32
    Number of Cartesian functions: 34
    Spherical Harmonics?: true
    Max angular momentum: 2

  ==> DFJKGrad: Density-Fitted SCF Gradients <==

    Gradient:                    1
    J tasked:                  Yes
    K tasked:                  Yes
    wK tasked:                  No
    OpenMP threads:              1
    Integrals threads:           1
    Memory [MiB]:              375
    Schwarz Cutoff:          1E-12
    Fitting Condition:       1E-10

   => Auxiliary Basis Set <=

  Basis Set: (CC-PVDZ AUX)
    Blend: CC-PVDZ-JKFIT + DEF2-UNIVERSAL-JKFIT
    Number of shells: 58
    Number of basis functions: 182
    Number of Cartesian functions: 218
    Spherical Harmonics?: true
    Max angular momentum: 4

  ==> DFT Potential <==

   => LibXC <=

    Version 6.2.2
    S. Lehtola, C. Steigemann, M. J.T. Oliveira, and M. A.L. Marques.,  SoftwareX 7, 1â€“5 (2018) (10.1016/j.softx.2017.11.002)

   => Composite Functional: B3LYP <=

    B3LYP Hyb-GGA Exchange-Correlation Functional

    P. J. Stephens, F. J. Devlin, C. F. Chabalowski, and M. J. Frisch.,  J. Phys. Chem. 98, 11623 (1994) (10.1021/j100096a001)

    Deriv               =              1
    GGA                 =           TRUE
    Meta                =          FALSE

    Exchange Hybrid     =           TRUE
    MP2 Hybrid          =          FALSE

   => Exchange Functionals <=

    0.0800   Slater exchange
    0.7200         Becke 88

   => Exact (HF) Exchange <=

    0.2000               HF

   => Correlation Functionals <=

    0.1900   Vosko, Wilk & Nusair (VWN5_RPA)
    0.8100   Lee, Yang & Parr

   => LibXC Density Thresholds  <==

    XC_HYB_GGA_XC_B3LYP:  1.00E-15

   => Molecular Quadrature <=

    Radial Scheme          =       TREUTLER
    Pruning Scheme         =           NONE
    Nuclear Scheme         =       TREUTLER

    Blocking Scheme        =         OCTREE
    BS radius alpha        =              1
    Pruning alpha          =              1
    Radial Points          =             75
    Spherical Points       =            302
    Total Points           =          43879
    Total Blocks           =            430
    Max Points             =            255
    Max Functions          =             32
    Weights Tolerance      =       1.00E-15

  -Total Gradient:
     Atom            X                  Y                   Z
    ------   -----------------  -----------------  -----------------
       1        0.000000000000    -0.000000000000     0.000000895070
       2       -0.000000000000     0.000000000000     0.000017686521

*** tstop() called on Joses-MacBook-Pro-2.local at Thu Jul 17 13:42:31 2025
Module time:
	user time   =       0.73 seconds =       0.01 minutes
	system time =       2.10 seconds =       0.04 minutes
	total time  =          0 seconds =       0.00 minutes
Total time:
	user time   =      59.23 seconds =       0.99 minutes
	system time =     110.39 seconds =       1.84 minutes
	total time  =         16 seconds =       0.27 minutes

    			-----------------------------------------

    			 OPTKING 3.0: for geometry optimizations

    			     By R.A. King, Bethel University

    			        with contributions from

    			    A.V. Copan, J. Cayton, A. Heide

    			-----------------------------------------

	                            ===> Fragment 1 <==

	 Z (Atomic Numbers)          Masses                          Geom
	       6.000000            12.000000          0.00000000  0.00000000  4.11724038
	      11.000000            22.989769          0.00000000  0.00000000 -2.14908136

	 - Coordinate -           - BOHR/RAD -       - ANG/DEG -
	 R(1,2)           =         6.266322           3.315995

	        --- Internal Coordinate Step in ANG or DEG, aJ/ANG or AJ/DEG ---
	-------------------------------------------------------------------------------
	           Coordinate      Previous         Force          Change          New
	           ----------      --------        ------          ------        ------
	               R(1,2)       3.31599        0.00007        0.00395       3.31994
	-------------------------------------------------------------------------------

	                                 ==> Convergence Check <==

	Measures of convergence in internal coordinates in au.

	Criteria marked as inactive (o), active & met (*), and active & unmet ( ).

	----------------------------------------------------------------------------------------------
	   Step    Total Energy     Delta E     Max Force     RMS Force      Max Disp      RMS Disp
	----------------------------------------------------------------------------------------------
	  Convergence Criteria     1.00e-06 *    3.00e-04 *             o    1.20e-03 *             o
	----------------------------------------------------------------------------------------------
	    17    -199.87524171   -4.50e-07 *    8.40e-06 *    8.40e-06 o    7.46e-03      7.46e-03 o  ~
	----------------------------------------------------------------------------------------------

Next Geometry in Ang
	Fragment 1 (Ang)

	    C   0.0000000000   0.0000000000   2.1807231282
	   Na   0.0000000000   0.0000000000  -1.1392182269

    Final optimized geometry and variables:
    Molecular point group: c2v
    Full point group: C_inf_v

    Geometry (in Angstrom), charge = 1, multiplicity = 1:

    C            0.000000000000     0.000000000000     2.178749778288
    NA           0.000000000000     0.000000000000    -1.137244877004

    Psi4 stopped on: Thursday, 17 July 2025 01:42PM
    Psi4 wall time for execution: 0:00:17.29

*** Psi4 exiting successfully. Buy a developer a beer!
