                               Psi4 1.9.1 release

  ==> Input File <==

--------------------------------------------------------------------------
molecule {
1 1
Li   0.00000        0.60000        0.00000
Si   0.00000       -0.60000        0.00000
}

set {
basis              cc-pvdz
reference          uks
maxiter            500
geom_maxiter       500
DAMPING_PERCENTAGE 1
guess              SAP
}

optimize('b3lyp')
--------------------------------------------------------------------------

    Molecular point group: c2v
  Charge       = 1
  Multiplicity = 1
  Basis Set: CC-PVDZ
    Blend: CC-PVDZ
  Basis Set: (CC-PVDZ AUX)
    Blend: CC-PVDZ-JKFIT + DEF2-UNIVERSAL-JKFIT
  @DF-UKS Final Energy:  -296.20846829284875
    Total Energy =                       -296.2084682928488064
 Dipole X            :          0.0000000            0.0000000            0.0000000
 Dipole Y            :          0.0000000            0.0000000            0.0000000
 Dipole Z            :          1.5590104           -0.9262567            0.6327537
 Magnitude           :                                                    0.6327537
    Molecular point group: c2v
  Basis Set: CC-PVDZ
    Blend: CC-PVDZ
  Basis Set: (CC-PVDZ AUX)
    Blend: CC-PVDZ-JKFIT + DEF2-UNIVERSAL-JKFIT
  Basis Set: CC-PVDZ
    Blend: CC-PVDZ
  Basis Set: (CC-PVDZ AUX)
    Blend: CC-PVDZ-JKFIT + DEF2-UNIVERSAL-JKFIT
  @DF-UKS Final Energy:  -296.29675396639448
    Total Energy =                       -296.2967539663944763
  Basis Set: CC-PVDZ
    Blend: CC-PVDZ
  Basis Set: (CC-PVDZ AUX)
    Blend: CC-PVDZ-JKFIT + DEF2-UNIVERSAL-JKFIT
  Basis Set: CC-PVDZ
    Blend: CC-PVDZ
  @DF-UKS Final Energy:  -296.39922326039749
    Total Energy =                       -296.3992232603974912
  @DF-UKS Final Energy:  -296.51355206747456
    Total Energy =                       -296.5135520674745635
  @DF-UKS Final Energy:  -296.57296011490143
    Total Energy =                       -296.5729601149013774
  @DF-UKS Final Energy:  -296.60240914488378
    Total Energy =                       -296.6024091448837225
  @DF-UKS Final Energy:  -296.61719874038351
    Total Energy =                       -296.6171987403835146
  @DF-UKS Final Energy:  -296.62449858113069
    Total Energy =                       -296.6244985811307515
  @DF-UKS Final Energy:  -296.69009891628480
    Total Energy =                       -296.6900989162847964
  @DF-UKS Final Energy:  -296.69119138929921
    Total Energy =                       -296.6911913892992061
  @DF-UKS Final Energy:  -296.69126572886307
    Total Energy =                       -296.6912657288630157
  @DF-UKS Final Energy:  -296.69160353179689
    Total Energy =                       -296.6916035317968863
  Basis Set: (CC-PVDZ AUX)
    Blend: CC-PVDZ-JKFIT + DEF2-UNIVERSAL-JKFIT
  Basis Set: CC-PVDZ
    Blend: CC-PVDZ
  Basis Set: (CC-PVDZ AUX)
    Blend: CC-PVDZ-JKFIT + DEF2-UNIVERSAL-JKFIT
  @DF-UKS Final Energy:  -296.69160948291130
    Total Energy =                       -296.6916094829112467
  Basis Set: CC-PVDZ
    Blend: CC-PVDZ
  Basis Set: (CC-PVDZ AUX)
    Blend: CC-PVDZ-JKFIT + DEF2-UNIVERSAL-JKFIT
  Charge       = 1
  Multiplicity = 1
  Basis Set: CC-PVDZ
    Blend: CC-PVDZ
  Basis Set: (CC-PVDZ AUX)
    Blend: CC-PVDZ-JKFIT + DEF2-UNIVERSAL-JKFIT

    Orbital Energies [Eh]
    ---------------------

    Alpha Occupied:

       1A1   -66.402604     2A1    -5.539134     1B2    -3.901833
       1B1    -3.901833     3A1    -3.886914     4A1    -2.235617
       5A1    -0.634338     6A1    -0.376699

    Alpha Virtual:

       2B2    -0.314989     2B1    -0.314989     7A1    -0.204721
       3B1    -0.157421     3B2    -0.157421     8A1    -0.116345
       4B1    -0.056904     4B2    -0.056904     9A1    -0.047007
      10A1    -0.033943     5B2     0.057038     5B1     0.057038
       1A2     0.064067    11A1     0.064068    12A1     0.074837
       6B2     0.150316     6B1     0.150316     2A2     0.176217
      13A1     0.176220    14A1     0.187815    15A1     0.248776
       7B1     0.294747     7B2     0.294747    16A1     0.486968

    Beta Occupied:

       1A1   -66.402604     2A1    -5.539134     1B2    -3.901833
       1B1    -3.901833     3A1    -3.886914     4A1    -2.235617
       5A1    -0.634338     6A1    -0.376699

    Beta Virtual:

       2B2    -0.314989     2B1    -0.314989     7A1    -0.204721
       3B1    -0.157421     3B2    -0.157421     8A1    -0.116345
       4B1    -0.056904     4B2    -0.056904     9A1    -0.047007
      10A1    -0.033943     5B2     0.057038     5B1     0.057038
       1A2     0.064067    11A1     0.064068    12A1     0.074837
       6B2     0.150316     6B1     0.150316     2A2     0.176217
      13A1     0.176220    14A1     0.187815    15A1     0.248776
       7B1     0.294747     7B2     0.294747    16A1     0.486968

    Final Occupation by Irrep:
             A1    A2    B1    B2
    DOCC [     6,    0,    1,    1 ]
    SOCC [     0,    0,    0,    0 ]
    NA   [     6,    0,    1,    1 ]
    NB   [     6,    0,    1,    1 ]

  @DF-UKS Final Energy:  -296.69160976097800

   => Energetics <=

    Nuclear Repulsion Energy =              8.0339129768235278
    One-Electron Energy =                -422.7564408068703870
    Two-Electron Energy =                 136.1574380821686816
    DFT Exchange-Correlation Energy =     -18.1265200130997783
    Empirical Dispersion Energy =           0.0000000000000000
    VV10 Nonlocal Energy =                  0.0000000000000000
    Total Energy =                       -296.6916097609779968

  UHF NO Occupations:
  HONO-2 :    4 A1 2.0000000
  HONO-1 :    5 A1 2.0000000
  HONO-0 :    6 A1 2.0000000
  LUNO+0 :    7 A1 0.0000000
  LUNO+1 :    8 A1 0.0000000
  LUNO+2 :    9 A1 0.0000000
  LUNO+3 :    2 B1 0.0000000

Computation Completed

Properties will be evaluated at   0.000000,   0.000000,   0.000000 [a0]

Properties computed using the SCF density matrix

 Multipole Moments:

 ------------------------------------------------------------------------------------
     Multipole            Electronic (a.u.)      Nuclear  (a.u.)        Total (a.u.)
 ------------------------------------------------------------------------------------

 L = 1.  Multiply by 2.5417464519 to convert [e a0] to [Debye]
 Dipole X            :          0.0000000            0.0000000            0.0000000
 Dipole Y            :          0.0000000            0.0000000            0.0000000
 Dipole Z            :          4.7696739           -2.1353714            2.6343026
 Magnitude           :                                                    2.6343026

 ------------------------------------------------------------------------------------

*** tstop() called on Joses-MacBook-Pro-2.local at Thu Jul 17 12:53:53 2025
Module time:
	user time   =       4.05 seconds =       0.07 minutes
	system time =       1.64 seconds =       0.03 minutes
	total time  =          0 seconds =       0.00 minutes
Total time:
	user time   =      75.45 seconds =       1.26 minutes
	system time =      60.91 seconds =       1.02 minutes
	total time  =         14 seconds =       0.23 minutes

*** tstart() called on Joses-MacBook-Pro-2.local
*** at Thu Jul 17 12:53:53 2025

         ------------------------------------------------------------
                                   SCF GRAD
                          Rob Parrish, Justin Turney,
                       Andy Simmonett, and Alex Sokolov
         ------------------------------------------------------------

  ==> Geometry <==

    Molecular point group: c2v
    Full point group: C_inf_v

    Geometry (in Angstrom), charge = 1, multiplicity = 1:

       Center              X                  Y                   Z               Mass
    ------------   -----------------  -----------------  -----------------  -----------------
         LI           0.000000000000     0.000000000000     2.211785439905     7.016003436600
         SI           0.000000000000     0.000000000000    -0.554667583953    27.976926534650

  Nuclear repulsion =    8.033912976823528

  ==> Basis Set <==

  Basis Set: CC-PVDZ
    Blend: CC-PVDZ
    Number of shells: 14
    Number of basis functions: 32
    Number of Cartesian functions: 34
    Spherical Harmonics?: true
    Max angular momentum: 2

  ==> DFJKGrad: Density-Fitted SCF Gradients <==

    Gradient:                    1
    J tasked:                  Yes
    K tasked:                  Yes
    wK tasked:                  No
    OpenMP threads:              1
    Integrals threads:           1
    Memory [MiB]:              375
    Schwarz Cutoff:          1E-12
    Fitting Condition:       1E-10

   => Auxiliary Basis Set <=

  Basis Set: (CC-PVDZ AUX)
    Blend: CC-PVDZ-JKFIT + DEF2-UNIVERSAL-JKFIT
    Number of shells: 53
    Number of basis functions: 163
    Number of Cartesian functions: 190
    Spherical Harmonics?: true
    Max angular momentum: 3

  ==> DFT Potential <==

   => LibXC <=

    Version 6.2.2
    S. Lehtola, C. Steigemann, M. J.T. Oliveira, and M. A.L. Marques.,  SoftwareX 7, 1â€“5 (2018) (10.1016/j.softx.2017.11.002)

   => Composite Functional: B3LYP <=

    B3LYP Hyb-GGA Exchange-Correlation Functional

    P. J. Stephens, F. J. Devlin, C. F. Chabalowski, and M. J. Frisch.,  J. Phys. Chem. 98, 11623 (1994) (10.1021/j100096a001)

    Deriv               =              1
    GGA                 =           TRUE
    Meta                =          FALSE

    Exchange Hybrid     =           TRUE
    MP2 Hybrid          =          FALSE

   => Exchange Functionals <=

    0.0800   Slater exchange
    0.7200         Becke 88

   => Exact (HF) Exchange <=

    0.2000               HF

   => Correlation Functionals <=

    0.1900   Vosko, Wilk & Nusair (VWN5_RPA)
    0.8100   Lee, Yang & Parr

   => LibXC Density Thresholds  <==

    XC_HYB_GGA_XC_B3LYP:  1.00E-15

   => Molecular Quadrature <=

    Radial Scheme          =       TREUTLER
    Pruning Scheme         =           NONE
    Nuclear Scheme         =       TREUTLER

    Blocking Scheme        =         OCTREE
    BS radius alpha        =              1
    Pruning alpha          =              1
    Radial Points          =             75
    Spherical Points       =            302
    Total Points           =          44129
    Total Blocks           =            437
    Max Points             =            255
    Max Functions          =             32
    Weights Tolerance      =       1.00E-15

  -Total Gradient:
     Atom            X                  Y                   Z
    ------   -----------------  -----------------  -----------------
       1        0.000000000000     0.000000000000    -0.000016771503
       2        0.000000000000     0.000000000000     0.000039967258

*** tstop() called on Joses-MacBook-Pro-2.local at Thu Jul 17 12:53:53 2025
Module time:
	user time   =       0.91 seconds =       0.02 minutes
	system time =       1.60 seconds =       0.03 minutes
	total time  =          0 seconds =       0.00 minutes
Total time:
	user time   =      76.36 seconds =       1.27 minutes
	system time =      62.52 seconds =       1.04 minutes
	total time  =         14 seconds =       0.23 minutes

    			-----------------------------------------

    			 OPTKING 3.0: for geometry optimizations

    			     By R.A. King, Bethel University

    			        with contributions from

    			    A.V. Copan, J. Cayton, A. Heide

    			-----------------------------------------

	                            ===> Fragment 1 <==

	 Z (Atomic Numbers)          Masses                          Geom
	       3.000000             7.016003          0.00000000  0.00000000  4.17966873
	      14.000000            27.976927          0.00000000  0.00000000 -1.04816982

	 - Coordinate -           - BOHR/RAD -       - ANG/DEG -
	 R(1,2)           =         5.227839           2.766453

	        --- Internal Coordinate Step in ANG or DEG, aJ/ANG or AJ/DEG ---
	-------------------------------------------------------------------------------
	           Coordinate      Previous         Force          Change          New
	           ----------      --------        ------          ------        ------
	               R(1,2)       2.76645        0.00023        0.00074       2.76719
	-------------------------------------------------------------------------------

	                                 ==> Convergence Check <==

	Measures of convergence in internal coordinates in au.

	Criteria marked as inactive (o), active & met (*), and active & unmet ( ).

	----------------------------------------------------------------------------------------------
	   Step    Total Energy     Delta E     Max Force     RMS Force      Max Disp      RMS Disp
	----------------------------------------------------------------------------------------------
	  Convergence Criteria     1.00e-06 *    3.00e-04 *             o    1.20e-03 *             o
	----------------------------------------------------------------------------------------------
	    14    -296.69160976   -2.78e-07 *    2.84e-05 *    2.84e-05 o    1.40e-03      1.40e-03 o  ~
	----------------------------------------------------------------------------------------------

Next Geometry in Ang
	Fragment 1 (Ang)

	   Li   0.0000000000   0.0000000000   2.2121553092
	   Si   0.0000000000   0.0000000000  -0.5550374532

    Final optimized geometry and variables:
    Molecular point group: c2v
    Full point group: C_inf_v

    Geometry (in Angstrom), charge = 1, multiplicity = 1:

    LI           0.000000000000     0.000000000000     2.211785439905
    SI           0.000000000000     0.000000000000    -0.554667583953

    Psi4 stopped on: Thursday, 17 July 2025 12:53PM
    Psi4 wall time for execution: 0:00:14.74

*** Psi4 exiting successfully. Buy a developer a beer!
