                               Psi4 1.9.1 release

  ==> Input File <==

--------------------------------------------------------------------------
molecule {
1 1
Li   0.00000        0.60000        0.00000
O   0.00000       -0.60000        0.00000
}

set {
basis              cc-pvdz
reference          uks
maxiter            500
geom_maxiter       500
DAMPING_PERCENTAGE 1
guess              SAP
}

optimize('b3lyp')
--------------------------------------------------------------------------

    Molecular point group: c2v
  Charge       = 1
  Multiplicity = 1
  Basis Set: CC-PVDZ
    Blend: CC-PVDZ
  Basis Set: (CC-PVDZ AUX)
    Blend: CC-PVDZ-JKFIT + DEF2-UNIVERSAL-JKFIT
  @DF-UKS Final Energy:   -82.09554429067549
    Total Energy =                        -82.0955442906754911
 Dipole X            :          0.0000000            0.0000000            0.0000000
 Dipole Y            :          0.0000000            0.0000000            0.0000000
 Dipole Z            :          2.0634665           -0.8025013            1.2609652
 Magnitude           :                                                    1.2609652
    Molecular point group: c2v
  Basis Set: CC-PVDZ
    Blend: CC-PVDZ
  Basis Set: (CC-PVDZ AUX)
    Blend: CC-PVDZ-JKFIT + DEF2-UNIVERSAL-JKFIT
  Basis Set: CC-PVDZ
    Blend: CC-PVDZ
  Basis Set: (CC-PVDZ AUX)
    Blend: CC-PVDZ-JKFIT + DEF2-UNIVERSAL-JKFIT
  @DF-UKS Final Energy:   -82.16176737006326
    Total Energy =                        -82.1617673700632452
  Basis Set: CC-PVDZ
    Blend: CC-PVDZ
  Basis Set: (CC-PVDZ AUX)
    Blend: CC-PVDZ-JKFIT + DEF2-UNIVERSAL-JKFIT
  Basis Set: CC-PVDZ
    Blend: CC-PVDZ
  @DF-UKS Final Energy:   -82.20010604966686
    Total Energy =                        -82.2001060496668572
  @DF-UKS Final Energy:   -82.22001964943902
    Total Energy =                        -82.2200196494390241
  @DF-UKS Final Energy:   -82.23144451085312
    Total Energy =                        -82.2314445108531231
  @DF-UKS Final Energy:   -82.23820080853659
    Total Energy =                        -82.2382008085365896
  @DF-UKS Final Energy:   -82.24228702229051
    Total Energy =                        -82.2422870222905118
  @DF-UKS Final Energy:   -82.24470284693113
    Total Energy =                        -82.2447028469311334
  @DF-UKS Final Energy:   -82.24606304738724
    Total Energy =                        -82.2460630473872243
  @DF-UKS Final Energy:   -82.24680874437958
    Total Energy =                        -82.2468087443795781
  @DF-UKS Final Energy:   -82.24724465380713
    Total Energy =                        -82.2472446538071296
  @DF-UKS Final Energy:   -82.24756303504556
    Total Energy =                        -82.2475630350455589
  @DF-UKS Final Energy:   -82.24791981904485
    Total Energy =                        -82.2479198190448813
  @DF-UKS Final Energy:   -82.24792407163133
    Total Energy =                        -82.2479240716313456
  @DF-UKS Final Energy:   -82.24792833649731
    Total Energy =                        -82.2479283364973242
  @DF-UKS Final Energy:   -82.24793261384121
    Total Energy =                        -82.2479326138412148
  @DF-UKS Final Energy:   -82.24793690360644
    Total Energy =                        -82.2479369036064440
  @DF-UKS Final Energy:   -82.24794120573188
    Total Energy =                        -82.2479412057318768
  @DF-UKS Final Energy:   -82.24794552013648
    Total Energy =                        -82.2479455201364829
  @DF-UKS Final Energy:   -82.24794984674223
    Total Energy =                        -82.2479498467422303
  @DF-UKS Final Energy:   -82.24930117944908
    Total Energy =                        -82.2493011794490769
  @DF-UKS Final Energy:   -82.24930275954144
    Total Energy =                        -82.2493027595414361
  @DF-UKS Final Energy:   -82.24930433703996
    Total Energy =                        -82.2493043370399590
  @DF-UKS Final Energy:   -82.24930591042472
    Total Energy =                        -82.2493059104247237
  @DF-UKS Final Energy:   -82.24930747970137
    Total Energy =                        -82.2493074797013719
  @DF-UKS Final Energy:   -82.24930904487103
    Total Energy =                        -82.2493090448710120
  @DF-UKS Final Energy:   -82.24931060593265
    Total Energy =                        -82.2493106059326493
  @DF-UKS Final Energy:   -82.24931216288398
    Total Energy =                        -82.2493121628839816
  @DF-UKS Final Energy:   -82.24950901861116
    Total Energy =                        -82.2495090186111497
  @DF-UKS Final Energy:   -82.24951009411947
    Total Energy =                        -82.2495100941194579
  @DF-UKS Final Energy:   -82.24951116816280
    Total Energy =                        -82.2495111681627975
  @DF-UKS Final Energy:   -82.24951223982275
    Total Energy =                        -82.2495122398227352
  @DF-UKS Final Energy:   -82.24951330910922
    Total Energy =                        -82.2495133091092043
  @DF-UKS Final Energy:   -82.24951437604695
    Total Energy =                        -82.2495143760469460
  @DF-UKS Final Energy:   -82.24951544065158
    Total Energy =                        -82.2495154406515923
  @DF-UKS Final Energy:   -82.24951650294153
    Total Energy =                        -82.2495165029415318
  @DF-UKS Final Energy:   -82.24951756293828
    Total Energy =                        -82.2495175629382800
  @DF-UKS Final Energy:   -82.24951862066303
    Total Energy =                        -82.2495186206630251
  Basis Set: (CC-PVDZ AUX)
    Blend: CC-PVDZ-JKFIT + DEF2-UNIVERSAL-JKFIT
  Basis Set: CC-PVDZ
    Blend: CC-PVDZ
  Basis Set: (CC-PVDZ AUX)
    Blend: CC-PVDZ-JKFIT + DEF2-UNIVERSAL-JKFIT
  @DF-UKS Final Energy:   -82.24967786319201
    Total Energy =                        -82.2496778631920193
  Basis Set: CC-PVDZ
    Blend: CC-PVDZ
  Basis Set: (CC-PVDZ AUX)
    Blend: CC-PVDZ-JKFIT + DEF2-UNIVERSAL-JKFIT
  Charge       = 1
  Multiplicity = 1
  Basis Set: CC-PVDZ
    Blend: CC-PVDZ
  Basis Set: (CC-PVDZ AUX)
    Blend: CC-PVDZ-JKFIT + DEF2-UNIVERSAL-JKFIT

    Orbital Energies [Eh]
    ---------------------

    Alpha Occupied:

       1A1   -19.364056     2A1    -2.351620     3A1    -1.021832
       1B2    -0.435247     1B1    -0.435247

    Alpha Virtual:

       4A1    -0.356288     5A1    -0.252367     6A1    -0.175776
       2B1    -0.175598     2B2    -0.175598     7A1    -0.062801
       3B2    -0.062319     3B1    -0.062319     8A1    -0.042351
       9A1     0.074832     4B1     0.075026     4B2     0.075026
      10A1     0.075233     1A2     0.075237    11A1     0.774010
       5B2     0.787676     5B1     0.787676    12A1     1.024245
      13A1     2.423784     6B1     2.425109     6B2     2.425109
       2A2     2.475993    14A1     2.476022

    Beta Occupied:

       1A1   -19.364056     2A1    -2.351620     3A1    -1.021832
       1B2    -0.435247     1B1    -0.435247

    Beta Virtual:

       4A1    -0.356288     5A1    -0.252367     6A1    -0.175776
       2B1    -0.175598     2B2    -0.175598     7A1    -0.062801
       3B2    -0.062319     3B1    -0.062319     8A1    -0.042351
       9A1     0.074832     4B1     0.075026     4B2     0.075026
      10A1     0.075233     1A2     0.075237    11A1     0.774010
       5B2     0.787676     5B1     0.787676    12A1     1.024245
      13A1     2.423784     6B1     2.425109     6B2     2.425109
       2A2     2.475993    14A1     2.476022

    Final Occupation by Irrep:
             A1    A2    B1    B2
    DOCC [     3,    0,    1,    1 ]
    SOCC [     0,    0,    0,    0 ]
    NA   [     3,    0,    1,    1 ]
    NB   [     3,    0,    1,    1 ]

  @DF-UKS Final Energy:   -82.24967865069377

   => Energetics <=

    Nuclear Repulsion Energy =              2.0231325339655952
    One-Electron Energy =                -115.4348429290399736
    Two-Electron Energy =                  39.3464882219907182
    DFT Exchange-Correlation Energy =      -8.1844564776101176
    Empirical Dispersion Energy =           0.0000000000000000
    VV10 Nonlocal Energy =                  0.0000000000000000
    Total Energy =                        -82.2496786506937809

  UHF NO Occupations:
  HONO-2 :    1 B1 2.0000000
  HONO-1 :    1 B2 2.0000000
  HONO-0 :    3 A1 2.0000000
  LUNO+0 :    4 A1 0.0000000
  LUNO+1 :    5 A1 0.0000000
  LUNO+2 :    6 A1 0.0000000
  LUNO+3 :    2 B1 0.0000000

Computation Completed

Properties will be evaluated at   0.000000,   0.000000,   0.000000 [a0]

Properties computed using the SCF density matrix

 Multipole Moments:

 ------------------------------------------------------------------------------------
     Multipole            Electronic (a.u.)      Nuclear  (a.u.)        Total (a.u.)
 ------------------------------------------------------------------------------------

 L = 1.  Multiply by 2.5417464519 to convert [e a0] to [Debye]
 Dipole X            :          0.0000000            0.0000000            0.0000000
 Dipole Y            :          0.0000000            0.0000000            0.0000000
 Dipole Z            :         12.4263001           -4.1980975            8.2282026
 Magnitude           :                                                    8.2282026

 ------------------------------------------------------------------------------------

*** tstop() called on Joses-MacBook-Pro-2.local at Thu Jul 17 12:49:29 2025
Module time:
	user time   =       2.98 seconds =       0.05 minutes
	system time =       1.51 seconds =       0.03 minutes
	total time  =          1 seconds =       0.02 minutes
Total time:
	user time   =     283.71 seconds =       4.73 minutes
	system time =     315.40 seconds =       5.26 minutes
	total time  =         58 seconds =       0.97 minutes

*** tstart() called on Joses-MacBook-Pro-2.local
*** at Thu Jul 17 12:49:29 2025

         ------------------------------------------------------------
                                   SCF GRAD
                          Rob Parrish, Justin Turney,
                       Andy Simmonett, and Alex Sokolov
         ------------------------------------------------------------

  ==> Geometry <==

    Molecular point group: c2v
    Full point group: C_inf_v

    Geometry (in Angstrom), charge = 1, multiplicity = 1:

       Center              X                  Y                   Z               Mass
    ------------   -----------------  -----------------  -----------------  -----------------
         LI           0.000000000000     0.000000000000     4.363510453895     7.016003436600
         O            0.000000000000     0.000000000000    -1.914008612632    15.994914619570

  Nuclear repulsion =    2.023132533965595

  ==> Basis Set <==

  Basis Set: CC-PVDZ
    Blend: CC-PVDZ
    Number of shells: 12
    Number of basis functions: 28
    Number of Cartesian functions: 30
    Spherical Harmonics?: true
    Max angular momentum: 2

  ==> DFJKGrad: Density-Fitted SCF Gradients <==

    Gradient:                    1
    J tasked:                  Yes
    K tasked:                  Yes
    wK tasked:                  No
    OpenMP threads:              1
    Integrals threads:           1
    Memory [MiB]:              375
    Schwarz Cutoff:          1E-12
    Fitting Condition:       1E-10

   => Auxiliary Basis Set <=

  Basis Set: (CC-PVDZ AUX)
    Blend: CC-PVDZ-JKFIT + DEF2-UNIVERSAL-JKFIT
    Number of shells: 41
    Number of basis functions: 121
    Number of Cartesian functions: 141
    Spherical Harmonics?: true
    Max angular momentum: 3

  ==> DFT Potential <==

   => LibXC <=

    Version 6.2.2
    S. Lehtola, C. Steigemann, M. J.T. Oliveira, and M. A.L. Marques.,  SoftwareX 7, 1â€“5 (2018) (10.1016/j.softx.2017.11.002)

   => Composite Functional: B3LYP <=

    B3LYP Hyb-GGA Exchange-Correlation Functional

    P. J. Stephens, F. J. Devlin, C. F. Chabalowski, and M. J. Frisch.,  J. Phys. Chem. 98, 11623 (1994) (10.1021/j100096a001)

    Deriv               =              1
    GGA                 =           TRUE
    Meta                =          FALSE

    Exchange Hybrid     =           TRUE
    MP2 Hybrid          =          FALSE

   => Exchange Functionals <=

    0.0800   Slater exchange
    0.7200         Becke 88

   => Exact (HF) Exchange <=

    0.2000               HF

   => Correlation Functionals <=

    0.1900   Vosko, Wilk & Nusair (VWN5_RPA)
    0.8100   Lee, Yang & Parr

   => LibXC Density Thresholds  <==

    XC_HYB_GGA_XC_B3LYP:  1.00E-15

   => Molecular Quadrature <=

    Radial Scheme          =       TREUTLER
    Pruning Scheme         =           NONE
    Nuclear Scheme         =       TREUTLER

    Blocking Scheme        =         OCTREE
    BS radius alpha        =              1
    Pruning alpha          =              1
    Radial Points          =             75
    Spherical Points       =            302
    Total Points           =          44441
    Total Blocks           =            452
    Max Points             =            252
    Max Functions          =             28
    Weights Tolerance      =       1.00E-15

  -Total Gradient:
     Atom            X                  Y                   Z
    ------   -----------------  -----------------  -----------------
       1        0.000000000000     0.000000000000    -0.000162529484
       2        0.000000000000    -0.000000000000     0.000162057117

*** tstop() called on Joses-MacBook-Pro-2.local at Thu Jul 17 12:49:29 2025
Module time:
	user time   =       0.53 seconds =       0.01 minutes
	system time =       1.15 seconds =       0.02 minutes
	total time  =          0 seconds =       0.00 minutes
Total time:
	user time   =     284.24 seconds =       4.74 minutes
	system time =     316.56 seconds =       5.28 minutes
	total time  =         58 seconds =       0.97 minutes

    			-----------------------------------------

    			 OPTKING 3.0: for geometry optimizations

    			     By R.A. King, Bethel University

    			        with contributions from

    			    A.V. Copan, J. Cayton, A. Heide

    			-----------------------------------------

	                            ===> Fragment 1 <==

	 Z (Atomic Numbers)          Masses                          Geom
	       3.000000             7.016003          0.00000000  0.00000000  8.24583970
	       8.000000            15.994915          0.00000000  0.00000000 -3.61695208

	 - Coordinate -           - BOHR/RAD -       - ANG/DEG -
	 R(1,2)           =        11.862792           6.277519

	        --- Internal Coordinate Step in ANG or DEG, aJ/ANG or AJ/DEG ---
	-------------------------------------------------------------------------------
	           Coordinate      Previous         Force          Change          New
	           ----------      --------        ------          ------        ------
	               R(1,2)       6.27752        0.00134        0.00260       6.28012
	-------------------------------------------------------------------------------

	                                 ==> Convergence Check <==

	Measures of convergence in internal coordinates in au.

	Criteria marked as inactive (o), active & met (*), and active & unmet ( ).

	----------------------------------------------------------------------------------------------
	   Step    Total Energy     Delta E     Max Force     RMS Force      Max Disp      RMS Disp
	----------------------------------------------------------------------------------------------
	  Convergence Criteria     1.00e-06 *    3.00e-04 *             o    1.20e-03 *             o
	----------------------------------------------------------------------------------------------
	    85     -82.24967865   -7.88e-07 *    1.62e-04 *    1.62e-04 o    4.92e-03      4.92e-03 o  ~
	----------------------------------------------------------------------------------------------

Next Geometry in Ang
	Fragment 1 (Ang)

	   Li   0.0000000000   0.0000000000   4.3648117783
	    O   0.0000000000   0.0000000000  -1.9153099371

    Final optimized geometry and variables:
    Molecular point group: c2v
    Full point group: C_inf_v

    Geometry (in Angstrom), charge = 1, multiplicity = 1:

    LI           0.000000000000     0.000000000000     4.363510453895
    O            0.000000000000     0.000000000000    -1.914008612632

    Psi4 stopped on: Thursday, 17 July 2025 12:49PM
    Psi4 wall time for execution: 0:00:58.80

*** Psi4 exiting successfully. Buy a developer a beer!
