                               Psi4 1.9.1 release

  ==> Input File <==

--------------------------------------------------------------------------
molecule {
1 1
Na   0.00000        0.60000        0.00000
Ar   0.00000       -0.60000        0.00000
}

set {
basis              cc-pvdz
reference          uks
maxiter            500
geom_maxiter       500
DAMPING_PERCENTAGE 1
guess              SAP
}

optimize('b3lyp')
--------------------------------------------------------------------------

    Molecular point group: c2v
  Charge       = 1
  Multiplicity = 1
  Basis Set: CC-PVDZ
    Blend: CC-PVDZ
  Basis Set: (CC-PVDZ AUX)
    Blend: CC-PVDZ-JKFIT + DEF2-UNIVERSAL-JKFIT
  @DF-UKS Final Energy:  -688.43223691464823
    Total Energy =                       -688.4322369146482288
 Dipole X            :          0.0000000            0.0000000            0.0000000
 Dipole Y            :          0.0000000            0.0000000            0.0000000
 Dipole Z            :          0.6153141            0.9283038            1.5436179
 Magnitude           :                                                    1.5436179
    Molecular point group: c2v
  Basis Set: CC-PVDZ
    Blend: CC-PVDZ
  Basis Set: (CC-PVDZ AUX)
    Blend: CC-PVDZ-JKFIT + DEF2-UNIVERSAL-JKFIT
  Basis Set: CC-PVDZ
    Blend: CC-PVDZ
  Basis Set: (CC-PVDZ AUX)
    Blend: CC-PVDZ-JKFIT + DEF2-UNIVERSAL-JKFIT
  @DF-UKS Final Energy:  -688.45550771559840
    Total Energy =                       -688.4555077155984009
  Basis Set: CC-PVDZ
    Blend: CC-PVDZ
  Basis Set: (CC-PVDZ AUX)
    Blend: CC-PVDZ-JKFIT + DEF2-UNIVERSAL-JKFIT
  Basis Set: CC-PVDZ
    Blend: CC-PVDZ
  @DF-UKS Final Energy:  -688.50010850674903
    Total Energy =                       -688.5001085067490294
  @DF-UKS Final Energy:  -688.65827197784722
    Total Energy =                       -688.6582719778472210
  @DF-UKS Final Energy:  -689.23741939382421
    Total Energy =                       -689.2374193938242115
  @DF-UKS Final Energy:  -689.43663231880168
    Total Energy =                       -689.4366323188017986
  @DF-UKS Final Energy:  -689.54024539049078
    Total Energy =                       -689.5402453904907816
  @DF-UKS Final Energy:  -689.59139988065203
    Total Energy =                       -689.5913998806520340
  @DF-UKS Final Energy:  -689.61744835218292
    Total Energy =                       -689.6174483521829188
  @DF-UKS Final Energy:  -689.63054382050973
    Total Energy =                       -689.6305438205097289
  @DF-UKS Final Energy:  -689.63693729257614
    Total Energy =                       -689.6369372925761354
  @DF-UKS Final Energy:  -689.63983475678094
    Total Energy =                       -689.6398347567809424
  @DF-UKS Final Energy:  -689.64096712396747
    Total Energy =                       -689.6409671239675845
  @DF-UKS Final Energy:  -689.64125392122264
    Total Energy =                       -689.6412539212226420
  @DF-UKS Final Energy:  -689.64135740637334
    Total Energy =                       -689.6413574063734586
  @DF-UKS Final Energy:  -689.64137682672060
    Total Energy =                       -689.6413768267206024
  Basis Set: (CC-PVDZ AUX)
    Blend: CC-PVDZ-JKFIT + DEF2-UNIVERSAL-JKFIT
  Basis Set: CC-PVDZ
    Blend: CC-PVDZ
  Basis Set: (CC-PVDZ AUX)
    Blend: CC-PVDZ-JKFIT + DEF2-UNIVERSAL-JKFIT
  @DF-UKS Final Energy:  -689.64138044054357
    Total Energy =                       -689.6413804405435712
  Basis Set: CC-PVDZ
    Blend: CC-PVDZ
  Basis Set: (CC-PVDZ AUX)
    Blend: CC-PVDZ-JKFIT + DEF2-UNIVERSAL-JKFIT
  Charge       = 1
  Multiplicity = 1
  Basis Set: CC-PVDZ
    Blend: CC-PVDZ
  Basis Set: (CC-PVDZ AUX)
    Blend: CC-PVDZ-JKFIT + DEF2-UNIVERSAL-JKFIT

    Orbital Energies [Eh]
    ---------------------

    Alpha Occupied:

       1A1  -115.292308     2A1   -38.761016     3A1   -11.328759
       4A1    -8.879314     1B1    -8.878122     1B2    -8.878122
       5A1    -2.498970     2B2    -1.430219     2B1    -1.430219
       6A1    -1.430130     7A1    -1.156536     8A1    -0.621349
       3B2    -0.609567     3B1    -0.609567

    Alpha Virtual:

       9A1    -0.247068     4B1    -0.149768     4B2    -0.149768
      10A1    -0.141243    11A1    -0.069932     5B1    -0.047788
       5B2    -0.047788    12A1    -0.045863     6B1     0.001098
       6B2     0.001098     1A2     0.010104    13A1     0.010105
      14A1     0.042216     7B1     0.457091     7B2     0.457091
      15A1     0.487063    16A1     0.645633     2A2     0.649171
      17A1     0.649208     8B2     0.663430     8B1     0.663430
      18A1     0.875764

    Beta Occupied:

       1A1  -115.292308     2A1   -38.761016     3A1   -11.328759
       4A1    -8.879314     1B2    -8.878122     1B1    -8.878122
       5A1    -2.498970     2B2    -1.430219     2B1    -1.430219
       6A1    -1.430130     7A1    -1.156536     8A1    -0.621349
       3B2    -0.609567     3B1    -0.609567

    Beta Virtual:

       9A1    -0.247068     4B1    -0.149768     4B2    -0.149768
      10A1    -0.141243    11A1    -0.069932     5B1    -0.047788
       5B2    -0.047788    12A1    -0.045863     6B1     0.001098
       6B2     0.001098     1A2     0.010104    13A1     0.010105
      14A1     0.042216     7B1     0.457091     7B2     0.457091
      15A1     0.487063    16A1     0.645633     2A2     0.649171
      17A1     0.649208     8B2     0.663430     8B1     0.663430
      18A1     0.875764

    Final Occupation by Irrep:
             A1    A2    B1    B2
    DOCC [     8,    0,    3,    3 ]
    SOCC [     0,    0,    0,    0 ]
    NA   [     8,    0,    3,    3 ]
    NB   [     8,    0,    3,    3 ]

  @DF-UKS Final Energy:  -689.64138103523055

   => Energetics <=

    Nuclear Repulsion Energy =             36.4604998607668094
    One-Electron Energy =               -1022.6939111448891708
    Two-Electron Energy =                 332.9968640857258038
    DFT Exchange-Correlation Energy =     -36.4048338368339586
    Empirical Dispersion Energy =           0.0000000000000000
    VV10 Nonlocal Energy =                  0.0000000000000000
    Total Energy =                       -689.6413810352304381

  UHF NO Occupations:
  HONO-2 :    6 A1 2.0000000
  HONO-1 :    7 A1 2.0000000
  HONO-0 :    8 A1 2.0000000
  LUNO+0 :    9 A1 0.0000000
  LUNO+1 :   10 A1 0.0000000
  LUNO+2 :   11 A1 0.0000000
  LUNO+3 :   12 A1 0.0000000

Computation Completed

Properties will be evaluated at   0.000000,   0.000000,   0.000000 [a0]

Properties computed using the SCF density matrix

 Multipole Moments:

 ------------------------------------------------------------------------------------
     Multipole            Electronic (a.u.)      Nuclear  (a.u.)        Total (a.u.)
 ------------------------------------------------------------------------------------

 L = 1.  Multiply by 2.5417464519 to convert [e a0] to [Debye]
 Dipole X            :          0.0000000            0.0000000            0.0000000
 Dipole Y            :          0.0000000            0.0000000            0.0000000
 Dipole Z            :          0.9062568            2.2230672            3.1293240
 Magnitude           :                                                    3.1293240

 ------------------------------------------------------------------------------------

*** tstop() called on Joses-MacBook-Pro-2.local at Thu Jul 17 15:01:47 2025
Module time:
	user time   =       6.53 seconds =       0.11 minutes
	system time =       2.27 seconds =       0.04 minutes
	total time  =          1 seconds =       0.02 minutes
Total time:
	user time   =     256.81 seconds =       4.28 minutes
	system time =      61.06 seconds =       1.02 minutes
	total time  =         31 seconds =       0.52 minutes

*** tstart() called on Joses-MacBook-Pro-2.local
*** at Thu Jul 17 15:01:47 2025

         ------------------------------------------------------------
                                   SCF GRAD
                          Rob Parrish, Justin Turney,
                       Andy Simmonett, and Alex Sokolov
         ------------------------------------------------------------

  ==> Geometry <==

    Molecular point group: c2v
    Full point group: C_inf_v

    Geometry (in Angstrom), charge = 1, multiplicity = 1:

       Center              X                  Y                   Z               Mass
    ------------   -----------------  -----------------  -----------------  -----------------
         NA           0.000000000000     0.000000000000     1.824250609570    22.989769282000
         AR           0.000000000000     0.000000000000    -1.049464455028    39.962383123700

  Nuclear repulsion =   36.460499860766809

  ==> Basis Set <==

  Basis Set: CC-PVDZ
    Blend: CC-PVDZ
    Number of shells: 16
    Number of basis functions: 36
    Number of Cartesian functions: 38
    Spherical Harmonics?: true
    Max angular momentum: 2

  ==> DFJKGrad: Density-Fitted SCF Gradients <==

    Gradient:                    1
    J tasked:                  Yes
    K tasked:                  Yes
    wK tasked:                  No
    OpenMP threads:              1
    Integrals threads:           1
    Memory [MiB]:              375
    Schwarz Cutoff:          1E-12
    Fitting Condition:       1E-10

   => Auxiliary Basis Set <=

  Basis Set: (CC-PVDZ AUX)
    Blend: CC-PVDZ-JKFIT + DEF2-UNIVERSAL-JKFIT
    Number of shells: 70
    Number of basis functions: 224
    Number of Cartesian functions: 267
    Spherical Harmonics?: true
    Max angular momentum: 4

  ==> DFT Potential <==

   => LibXC <=

    Version 6.2.2
    S. Lehtola, C. Steigemann, M. J.T. Oliveira, and M. A.L. Marques.,  SoftwareX 7, 1â€“5 (2018) (10.1016/j.softx.2017.11.002)

   => Composite Functional: B3LYP <=

    B3LYP Hyb-GGA Exchange-Correlation Functional

    P. J. Stephens, F. J. Devlin, C. F. Chabalowski, and M. J. Frisch.,  J. Phys. Chem. 98, 11623 (1994) (10.1021/j100096a001)

    Deriv               =              1
    GGA                 =           TRUE
    Meta                =          FALSE

    Exchange Hybrid     =           TRUE
    MP2 Hybrid          =          FALSE

   => Exchange Functionals <=

    0.0800   Slater exchange
    0.7200         Becke 88

   => Exact (HF) Exchange <=

    0.2000               HF

   => Correlation Functionals <=

    0.1900   Vosko, Wilk & Nusair (VWN5_RPA)
    0.8100   Lee, Yang & Parr

   => LibXC Density Thresholds  <==

    XC_HYB_GGA_XC_B3LYP:  1.00E-15

   => Molecular Quadrature <=

    Radial Scheme          =       TREUTLER
    Pruning Scheme         =           NONE
    Nuclear Scheme         =       TREUTLER

    Blocking Scheme        =         OCTREE
    BS radius alpha        =              1
    Pruning alpha          =              1
    Radial Points          =             75
    Spherical Points       =            302
    Total Points           =          43855
    Total Blocks           =            443
    Max Points             =            256
    Max Functions          =             36
    Weights Tolerance      =       1.00E-15

  -Total Gradient:
     Atom            X                  Y                   Z
    ------   -----------------  -----------------  -----------------
       1       -0.000000000000     0.000000000000     0.000023595350
       2        0.000000000000     0.000000000000     0.000105169854

*** tstop() called on Joses-MacBook-Pro-2.local at Thu Jul 17 15:01:47 2025
Module time:
	user time   =       2.90 seconds =       0.05 minutes
	system time =       1.48 seconds =       0.02 minutes
	total time  =          0 seconds =       0.00 minutes
Total time:
	user time   =     259.72 seconds =       4.33 minutes
	system time =      62.54 seconds =       1.04 minutes
	total time  =         31 seconds =       0.52 minutes

    			-----------------------------------------

    			 OPTKING 3.0: for geometry optimizations

    			     By R.A. King, Bethel University

    			        with contributions from

    			    A.V. Copan, J. Cayton, A. Heide

    			-----------------------------------------

	                            ===> Fragment 1 <==

	 Z (Atomic Numbers)          Masses                          Geom
	      11.000000            22.989769          0.00000000  0.00000000  3.44733404
	      18.000000            39.962383          0.00000000  0.00000000 -1.98320040

	 - Coordinate -           - BOHR/RAD -       - ANG/DEG -
	 R(1,2)           =         5.430534           2.873715

	        --- Internal Coordinate Step in ANG or DEG, aJ/ANG or AJ/DEG ---
	-------------------------------------------------------------------------------
	           Coordinate      Previous         Force          Change          New
	           ----------      --------        ------          ------        ------
	               R(1,2)       2.87372        0.00034        0.00241       2.87612
	-------------------------------------------------------------------------------

	                                 ==> Convergence Check <==

	Measures of convergence in internal coordinates in au.

	Criteria marked as inactive (o), active & met (*), and active & unmet ( ).

	----------------------------------------------------------------------------------------------
	   Step    Total Energy     Delta E     Max Force     RMS Force      Max Disp      RMS Disp
	----------------------------------------------------------------------------------------------
	  Convergence Criteria     1.00e-06 *    3.00e-04 *             o    1.20e-03 *             o
	----------------------------------------------------------------------------------------------
	    18    -689.64138104   -5.95e-07 *    4.08e-05 *    4.08e-05 o    4.55e-03      4.55e-03 o  ~
	----------------------------------------------------------------------------------------------

Next Geometry in Ang
	Fragment 1 (Ang)

	   Na   0.0000000000   0.0000000000   1.8254537794
	   Ar   0.0000000000   0.0000000000  -1.0506676248

    Final optimized geometry and variables:
    Molecular point group: c2v
    Full point group: C_inf_v

    Geometry (in Angstrom), charge = 1, multiplicity = 1:

    NA           0.000000000000     0.000000000000     1.824250609570
    AR           0.000000000000     0.000000000000    -1.049464455028

    Psi4 stopped on: Thursday, 17 July 2025 03:01PM
    Psi4 wall time for execution: 0:00:32.18

*** Psi4 exiting successfully. Buy a developer a beer!
