                               Psi4 1.9.1 release

  ==> Input File <==

--------------------------------------------------------------------------
molecule {
1 1
Li   0.00000        0.60000        0.00000
Mg   0.00000       -0.60000        0.00000
}

set {
basis              cc-pvdz
reference          uks
maxiter            500
geom_maxiter       500
DAMPING_PERCENTAGE 1
guess              SAP
}

optimize('b3lyp')
--------------------------------------------------------------------------

    Molecular point group: c2v
  Charge       = 1
  Multiplicity = 1
  Basis Set: CC-PVDZ
    Blend: CC-PVDZ
  Basis Set: (CC-PVDZ AUX)
    Blend: DEF2-UNIVERSAL-JKFIT
  @DF-UKS Final Energy:  -207.01250992410479
    Total Energy =                       -207.0125099241047906
 Dipole X            :          0.0000000            0.0000000            0.0000000
 Dipole Y            :          0.0000000            0.0000000            0.0000000
 Dipole Z            :          1.8086287           -0.8951087            0.9135200
 Magnitude           :                                                    0.9135200
    Molecular point group: c2v
  Basis Set: CC-PVDZ
    Blend: CC-PVDZ
  Basis Set: (CC-PVDZ AUX)
    Blend: DEF2-UNIVERSAL-JKFIT
  Basis Set: CC-PVDZ
    Blend: CC-PVDZ
  Basis Set: (CC-PVDZ AUX)
    Blend: DEF2-UNIVERSAL-JKFIT
  @DF-UKS Final Energy:  -207.06834052624691
    Total Energy =                       -207.0683405262469137
  Basis Set: CC-PVDZ
    Blend: CC-PVDZ
  Basis Set: (CC-PVDZ AUX)
    Blend: DEF2-UNIVERSAL-JKFIT
  Basis Set: CC-PVDZ
    Blend: CC-PVDZ
  @DF-UKS Final Energy:  -207.14106376045851
    Total Energy =                       -207.1410637604585077
  @DF-UKS Final Energy:  -207.25818859712314
    Total Energy =                       -207.2581885971231372
  @DF-UKS Final Energy:  -207.33717957868205
    Total Energy =                       -207.3371795786820542
  @DF-UKS Final Energy:  -207.36650676750580
    Total Energy =                       -207.3665067675057969
  @DF-UKS Final Energy:  -207.39197292319028
    Total Energy =                       -207.3919729231902807
  @DF-UKS Final Energy:  -207.40209071357827
    Total Energy =                       -207.4020907135782750
  @DF-UKS Final Energy:  -207.40605787875256
    Total Energy =                       -207.4060578787525628
  @DF-UKS Final Energy:  -207.40720970192788
    Total Energy =                       -207.4072097019278829
  @DF-UKS Final Energy:  -207.40740687859719
    Total Energy =                       -207.4074068785971861
  Basis Set: (CC-PVDZ AUX)
    Blend: DEF2-UNIVERSAL-JKFIT
  Basis Set: CC-PVDZ
    Blend: CC-PVDZ
  Basis Set: (CC-PVDZ AUX)
    Blend: DEF2-UNIVERSAL-JKFIT
  @DF-UKS Final Energy:  -207.40741905441266
    Total Energy =                       -207.4074190544126566
  Basis Set: CC-PVDZ
    Blend: CC-PVDZ
  Basis Set: (CC-PVDZ AUX)
    Blend: DEF2-UNIVERSAL-JKFIT
  Charge       = 1
  Multiplicity = 1
  Basis Set: CC-PVDZ
    Blend: CC-PVDZ
  Basis Set: (CC-PVDZ AUX)
    Blend: DEF2-UNIVERSAL-JKFIT

    Orbital Energies [Eh]
    ---------------------

    Alpha Occupied:

       1A1   -47.019800     2A1    -3.297517     3A1    -2.260070
       1B2    -2.041017     1B1    -2.041017     4A1    -2.040456
       5A1    -0.385707

    Alpha Virtual:

       6A1    -0.238796     2B1    -0.203368     2B2    -0.203368
       7A1    -0.179824     3B2    -0.136123     3B1    -0.136123
       8A1    -0.081971     4B1    -0.053353     4B2    -0.053353
       9A1    -0.049832    10A1    -0.033235    11A1     0.017698
       5B1     0.032118     5B2     0.032118    12A1     0.067608
       1A2     0.067608     6B1     0.069791     6B2     0.069791
      13A1     0.073344    14A1     0.166649     2A2     0.166650
      15A1     0.198254     7B1     0.266522     7B2     0.266522
      16A1     0.391403

    Beta Occupied:

       1A1   -47.019800     2A1    -3.297517     3A1    -2.260070
       1B2    -2.041017     1B1    -2.041017     4A1    -2.040456
       5A1    -0.385707

    Beta Virtual:

       6A1    -0.238796     2B1    -0.203368     2B2    -0.203368
       7A1    -0.179824     3B2    -0.136123     3B1    -0.136123
       8A1    -0.081971     4B1    -0.053353     4B2    -0.053353
       9A1    -0.049832    10A1    -0.033235    11A1     0.017698
       5B1     0.032118     5B2     0.032118    12A1     0.067608
       1A2     0.067608     6B1     0.069791     6B2     0.069791
      13A1     0.073344    14A1     0.166649     2A2     0.166650
      15A1     0.198254     7B1     0.266522     7B2     0.266522
      16A1     0.391403

    Final Occupation by Irrep:
             A1    A2    B1    B2
    DOCC [     5,    0,    1,    1 ]
    SOCC [     0,    0,    0,    0 ]
    NA   [     5,    0,    1,    1 ]
    NB   [     5,    0,    1,    1 ]

  @DF-UKS Final Energy:  -207.40741981162358

   => Energetics <=

    Nuclear Repulsion Energy =              6.5769965547059250
    One-Electron Energy =                -299.3255896937662328
    Two-Electron Energy =                  99.9846531413470530
    DFT Exchange-Correlation Energy =     -14.6434798139103552
    Empirical Dispersion Energy =           0.0000000000000000
    VV10 Nonlocal Energy =                  0.0000000000000000
    Total Energy =                       -207.4074198116235834

  UHF NO Occupations:
  HONO-2 :    4 A1 2.0000000
  HONO-1 :    1 B1 2.0000000
  HONO-0 :    5 A1 2.0000000
  LUNO+0 :    6 A1 0.0000000
  LUNO+1 :    7 A1 0.0000000
  LUNO+2 :    8 A1 0.0000000
  LUNO+3 :    9 A1 0.0000000

Computation Completed

Properties will be evaluated at   0.000000,   0.000000,   0.000000 [a0]

Properties computed using the SCF density matrix

 Multipole Moments:

 ------------------------------------------------------------------------------------
     Multipole            Electronic (a.u.)      Nuclear  (a.u.)        Total (a.u.)
 ------------------------------------------------------------------------------------

 L = 1.  Multiply by 2.5417464519 to convert [e a0] to [Debye]
 Dipole X            :          0.0000000            0.0000000            0.0000000
 Dipole Y            :          0.0000000            0.0000000            0.0000000
 Dipole Z            :          4.2830263           -2.1605809            2.1224454
 Magnitude           :                                                    2.1224454

 ------------------------------------------------------------------------------------

*** tstop() called on Joses-MacBook-Pro-2.local at Thu Jul 17 12:52:11 2025
Module time:
	user time   =       2.31 seconds =       0.04 minutes
	system time =       2.27 seconds =       0.04 minutes
	total time  =          0 seconds =       0.00 minutes
Total time:
	user time   =      59.70 seconds =       0.99 minutes
	system time =      71.28 seconds =       1.19 minutes
	total time  =         14 seconds =       0.23 minutes

*** tstart() called on Joses-MacBook-Pro-2.local
*** at Thu Jul 17 12:52:11 2025

         ------------------------------------------------------------
                                   SCF GRAD
                          Rob Parrish, Justin Turney,
                       Andy Simmonett, and Alex Sokolov
         ------------------------------------------------------------

  ==> Geometry <==

    Molecular point group: c2v
    Full point group: C_inf_v

    Geometry (in Angstrom), charge = 1, multiplicity = 1:

       Center              X                  Y                   Z               Mass
    ------------   -----------------  -----------------  -----------------  -----------------
         LI           0.000000000000     0.000000000000     2.240991253981     7.016003436600
         MG           0.000000000000     0.000000000000    -0.655525328575    23.985041697000

  Nuclear repulsion =    6.576996554705925

  ==> Basis Set <==

  Basis Set: CC-PVDZ
    Blend: CC-PVDZ
    Number of shells: 14
    Number of basis functions: 32
    Number of Cartesian functions: 34
    Spherical Harmonics?: true
    Max angular momentum: 2

  ==> DFJKGrad: Density-Fitted SCF Gradients <==

    Gradient:                    1
    J tasked:                  Yes
    K tasked:                  Yes
    wK tasked:                  No
    OpenMP threads:              1
    Integrals threads:           1
    Memory [MiB]:              375
    Schwarz Cutoff:          1E-12
    Fitting Condition:       1E-10

   => Auxiliary Basis Set <=

  Basis Set: (CC-PVDZ AUX)
    Blend: DEF2-UNIVERSAL-JKFIT
    Number of shells: 51
    Number of basis functions: 163
    Number of Cartesian functions: 197
    Spherical Harmonics?: true
    Max angular momentum: 4

  ==> DFT Potential <==

   => LibXC <=

    Version 6.2.2
    S. Lehtola, C. Steigemann, M. J.T. Oliveira, and M. A.L. Marques.,  SoftwareX 7, 1â€“5 (2018) (10.1016/j.softx.2017.11.002)

   => Composite Functional: B3LYP <=

    B3LYP Hyb-GGA Exchange-Correlation Functional

    P. J. Stephens, F. J. Devlin, C. F. Chabalowski, and M. J. Frisch.,  J. Phys. Chem. 98, 11623 (1994) (10.1021/j100096a001)

    Deriv               =              1
    GGA                 =           TRUE
    Meta                =          FALSE

    Exchange Hybrid     =           TRUE
    MP2 Hybrid          =          FALSE

   => Exchange Functionals <=

    0.0800   Slater exchange
    0.7200         Becke 88

   => Exact (HF) Exchange <=

    0.2000               HF

   => Correlation Functionals <=

    0.1900   Vosko, Wilk & Nusair (VWN5_RPA)
    0.8100   Lee, Yang & Parr

   => LibXC Density Thresholds  <==

    XC_HYB_GGA_XC_B3LYP:  1.00E-15

   => Molecular Quadrature <=

    Radial Scheme          =       TREUTLER
    Pruning Scheme         =           NONE
    Nuclear Scheme         =       TREUTLER

    Blocking Scheme        =         OCTREE
    BS radius alpha        =              1
    Pruning alpha          =              1
    Radial Points          =             75
    Spherical Points       =            302
    Total Points           =          43849
    Total Blocks           =            452
    Max Points             =            256
    Max Functions          =             32
    Weights Tolerance      =       1.00E-15

  -Total Gradient:
     Atom            X                  Y                   Z
    ------   -----------------  -----------------  -----------------
       1        0.000000000000    -0.000000000000    -0.000038746294
       2        0.000000000000     0.000000000000     0.000038839417

*** tstop() called on Joses-MacBook-Pro-2.local at Thu Jul 17 12:52:11 2025
Module time:
	user time   =       1.02 seconds =       0.02 minutes
	system time =       2.14 seconds =       0.04 minutes
	total time  =          0 seconds =       0.00 minutes
Total time:
	user time   =      60.73 seconds =       1.01 minutes
	system time =      73.42 seconds =       1.22 minutes
	total time  =         14 seconds =       0.23 minutes

    			-----------------------------------------

    			 OPTKING 3.0: for geometry optimizations

    			     By R.A. King, Bethel University

    			        with contributions from

    			    A.V. Copan, J. Cayton, A. Heide

    			-----------------------------------------

	                            ===> Fragment 1 <==

	 Z (Atomic Numbers)          Masses                          Geom
	       3.000000             7.016003          0.00000000  0.00000000  4.23485972
	      12.000000            23.985042          0.00000000  0.00000000 -1.23876334

	 - Coordinate -           - BOHR/RAD -       - ANG/DEG -
	 R(1,2)           =         5.473623           2.896517

	        --- Internal Coordinate Step in ANG or DEG, aJ/ANG or AJ/DEG ---
	-------------------------------------------------------------------------------
	           Coordinate      Previous         Force          Change          New
	           ----------      --------        ------          ------        ------
	               R(1,2)       2.89652        0.00032        0.00110       2.89761
	-------------------------------------------------------------------------------

	                                 ==> Convergence Check <==

	Measures of convergence in internal coordinates in au.

	Criteria marked as inactive (o), active & met (*), and active & unmet ( ).

	----------------------------------------------------------------------------------------------
	   Step    Total Energy     Delta E     Max Force     RMS Force      Max Disp      RMS Disp
	----------------------------------------------------------------------------------------------
	  Convergence Criteria     1.00e-06 *    3.00e-04 *             o    1.20e-03 *             o
	----------------------------------------------------------------------------------------------
	    13    -207.40741981   -7.57e-07 *    3.88e-05 *    3.88e-05 o    2.08e-03      2.08e-03 o  ~
	----------------------------------------------------------------------------------------------

Next Geometry in Ang
	Fragment 1 (Ang)

	   Li   0.0000000000   0.0000000000   2.2415403768
	   Mg   0.0000000000   0.0000000000  -0.6560744514

    Final optimized geometry and variables:
    Molecular point group: c2v
    Full point group: C_inf_v

    Geometry (in Angstrom), charge = 1, multiplicity = 1:

    LI           0.000000000000     0.000000000000     2.240991253981
    MG           0.000000000000     0.000000000000    -0.655525328575

    Psi4 stopped on: Thursday, 17 July 2025 12:52PM
    Psi4 wall time for execution: 0:00:15.26

*** Psi4 exiting successfully. Buy a developer a beer!
