                               Psi4 1.9.1 release

  ==> Input File <==

--------------------------------------------------------------------------
molecule {
1 1
C   0.00000        0.60000        0.00000
P   0.00000       -0.60000        0.00000
}

set {
basis              cc-pvdz
reference          uks
maxiter            500
geom_maxiter       500
DAMPING_PERCENTAGE 1
guess              SAP
}

optimize('b3lyp')
--------------------------------------------------------------------------

    Molecular point group: c2v
  Charge       = 1
  Multiplicity = 1
  Basis Set: CC-PVDZ
    Blend: CC-PVDZ
  Basis Set: (CC-PVDZ AUX)
    Blend: CC-PVDZ-JKFIT
  @DF-UKS Final Energy:  -378.62082621587604
    Total Energy =                       -378.6208262158759794
 Dipole X            :          0.0000000            0.0000000            0.0000000
 Dipole Y            :          0.0000000            0.0000000            0.0000000
 Dipole Z            :         -0.3325642            0.3083052           -0.0242590
 Magnitude           :                                                    0.0242590
    Molecular point group: c2v
  Basis Set: CC-PVDZ
    Blend: CC-PVDZ
  Basis Set: (CC-PVDZ AUX)
    Blend: CC-PVDZ-JKFIT
  Basis Set: CC-PVDZ
    Blend: CC-PVDZ
  Basis Set: (CC-PVDZ AUX)
    Blend: CC-PVDZ-JKFIT
  @DF-UKS Final Energy:  -378.77943873969269
    Total Energy =                       -378.7794387396926368
  Basis Set: CC-PVDZ
    Blend: CC-PVDZ
  Basis Set: (CC-PVDZ AUX)
    Blend: CC-PVDZ-JKFIT
  Basis Set: CC-PVDZ
    Blend: CC-PVDZ
  @DF-UKS Final Energy:  -378.84455474381951
    Total Energy =                       -378.8445547438195149
  @DF-UKS Final Energy:  -378.86055665363392
    Total Energy =                       -378.8605566536339211
  @DF-UKS Final Energy:  -378.86657230919002
    Total Energy =                       -378.8665723091900190
  @DF-UKS Final Energy:  -378.86779850997789
    Total Energy =                       -378.8677985099778880
  @DF-UKS Final Energy:  -378.86808004653932
    Total Energy =                       -378.8680800465393190
  @DF-UKS Final Energy:  -378.86816179719659
    Total Energy =                       -378.8681617971965920
  Basis Set: (CC-PVDZ AUX)
    Blend: CC-PVDZ-JKFIT
  Basis Set: CC-PVDZ
    Blend: CC-PVDZ
  Basis Set: (CC-PVDZ AUX)
    Blend: CC-PVDZ-JKFIT
  @DF-UKS Final Energy:  -378.86817124383987
    Total Energy =                       -378.8681712438399245
  Basis Set: CC-PVDZ
    Blend: CC-PVDZ
  Basis Set: (CC-PVDZ AUX)
    Blend: CC-PVDZ-JKFIT
  Charge       = 1
  Multiplicity = 1
  Basis Set: CC-PVDZ
    Blend: CC-PVDZ
  Basis Set: (CC-PVDZ AUX)
    Blend: CC-PVDZ-JKFIT

    Orbital Energies [Eh]
    ---------------------

    Alpha Occupied:

       1A1   -77.487544     2A1   -10.641185     3A1    -6.950046
       4A1    -5.115461     1B2    -5.108325     1B1    -5.108325
       5A1    -1.049315     6A1    -0.752702     2B2    -0.602713
       2B1    -0.602713

    Alpha Virtual:

       7A1    -0.551298     3B2    -0.362514     3B1    -0.362514
       8A1    -0.162301     9A1     0.083163     4B2     0.130724
       4B1     0.130724    10A1     0.150550    11A1     0.160635
       1A2     0.160635    12A1     0.186026     5B2     0.231761
       5B1     0.231761     6B1     0.264184     6B2     0.264184
      13A1     0.587399    14A1     0.722606    15A1     0.876070
       2A2     0.876071     7B1     1.119817     7B2     1.119817
      16A1     1.480171

    Beta Occupied:

       1A1   -77.487544     2A1   -10.641185     3A1    -6.950046
       4A1    -5.115461     1B2    -5.108325     1B1    -5.108325
       5A1    -1.049315     6A1    -0.752702     2B2    -0.602713
       2B1    -0.602713

    Beta Virtual:

       7A1    -0.551298     3B2    -0.362514     3B1    -0.362514
       8A1    -0.162301     9A1     0.083163     4B2     0.130724
       4B1     0.130724    10A1     0.150550    11A1     0.160635
       1A2     0.160635    12A1     0.186026     5B2     0.231761
       5B1     0.231761     6B1     0.264184     6B2     0.264184
      13A1     0.587399    14A1     0.722606    15A1     0.876070
       2A2     0.876071     7B1     1.119817     7B2     1.119817
      16A1     1.480171

    Final Occupation by Irrep:
             A1    A2    B1    B2
    DOCC [     6,    0,    2,    2 ]
    SOCC [     0,    0,    0,    0 ]
    NA   [     6,    0,    2,    2 ]
    NB   [     6,    0,    2,    2 ]

  @DF-UKS Final Energy:  -378.86817170015547

   => Energetics <=

    Nuclear Repulsion Energy =             30.4162043239137851
    One-Electron Energy =                -575.5253843728376069
    Two-Electron Energy =                 188.9496769747143219
    DFT Exchange-Correlation Energy =     -22.7086686259459860
    Empirical Dispersion Energy =           0.0000000000000000
    VV10 Nonlocal Energy =                  0.0000000000000000
    Total Energy =                       -378.8681717001554716

  UHF NO Occupations:
  HONO-2 :    2 B2 2.0000000
  HONO-1 :    2 B1 2.0000000
  HONO-0 :    6 A1 2.0000000
  LUNO+0 :    7 A1 0.0000000
  LUNO+1 :    8 A1 0.0000000
  LUNO+2 :    3 B1 0.0000000
  LUNO+3 :    9 A1 0.0000000

Computation Completed

Properties will be evaluated at   0.000000,   0.000000,   0.000000 [a0]

Properties computed using the SCF density matrix

 Multipole Moments:

 ------------------------------------------------------------------------------------
     Multipole            Electronic (a.u.)      Nuclear  (a.u.)        Total (a.u.)
 ------------------------------------------------------------------------------------

 L = 1.  Multiply by 2.5417464519 to convert [e a0] to [Debye]
 Dipole X            :          0.0000000            0.0000000            0.0000000
 Dipole Y            :          0.0000000            0.0000000            0.0000000
 Dipole Z            :         -0.5053609            0.4022890           -0.1030718
 Magnitude           :                                                    0.1030718

 ------------------------------------------------------------------------------------

*** tstop() called on Joses-MacBook-Pro-2.local at Thu Jul 17 13:45:15 2025
Module time:
	user time   =       2.61 seconds =       0.04 minutes
	system time =       4.00 seconds =       0.07 minutes
	total time  =          1 seconds =       0.02 minutes
Total time:
	user time   =      36.16 seconds =       0.60 minutes
	system time =      61.69 seconds =       1.03 minutes
	total time  =         10 seconds =       0.17 minutes

*** tstart() called on Joses-MacBook-Pro-2.local
*** at Thu Jul 17 13:45:15 2025

         ------------------------------------------------------------
                                   SCF GRAD
                          Rob Parrish, Justin Turney,
                       Andy Simmonett, and Alex Sokolov
         ------------------------------------------------------------

  ==> Geometry <==

    Molecular point group: c2v
    Full point group: C_inf_v

    Geometry (in Angstrom), charge = 1, multiplicity = 1:

       Center              X                  Y                   Z               Mass
    ------------   -----------------  -----------------  -----------------  -----------------
         C            0.000000000000     0.000000000000     1.128571835665    12.000000000000
         P            0.000000000000     0.000000000000    -0.437236588461    30.973761998420

  Nuclear repulsion =   30.416204323913785

  ==> Basis Set <==

  Basis Set: CC-PVDZ
    Blend: CC-PVDZ
    Number of shells: 14
    Number of basis functions: 32
    Number of Cartesian functions: 34
    Spherical Harmonics?: true
    Max angular momentum: 2

  ==> DFJKGrad: Density-Fitted SCF Gradients <==

    Gradient:                    1
    J tasked:                  Yes
    K tasked:                  Yes
    wK tasked:                  No
    OpenMP threads:              1
    Integrals threads:           1
    Memory [MiB]:              375
    Schwarz Cutoff:          1E-12
    Fitting Condition:       1E-10

   => Auxiliary Basis Set <=

  Basis Set: (CC-PVDZ AUX)
    Blend: CC-PVDZ-JKFIT
    Number of shells: 60
    Number of basis functions: 182
    Number of Cartesian functions: 211
    Spherical Harmonics?: true
    Max angular momentum: 3

  ==> DFT Potential <==

   => LibXC <=

    Version 6.2.2
    S. Lehtola, C. Steigemann, M. J.T. Oliveira, and M. A.L. Marques.,  SoftwareX 7, 1â€“5 (2018) (10.1016/j.softx.2017.11.002)

   => Composite Functional: B3LYP <=

    B3LYP Hyb-GGA Exchange-Correlation Functional

    P. J. Stephens, F. J. Devlin, C. F. Chabalowski, and M. J. Frisch.,  J. Phys. Chem. 98, 11623 (1994) (10.1021/j100096a001)

    Deriv               =              1
    GGA                 =           TRUE
    Meta                =          FALSE

    Exchange Hybrid     =           TRUE
    MP2 Hybrid          =          FALSE

   => Exchange Functionals <=

    0.0800   Slater exchange
    0.7200         Becke 88

   => Exact (HF) Exchange <=

    0.2000               HF

   => Correlation Functionals <=

    0.1900   Vosko, Wilk & Nusair (VWN5_RPA)
    0.8100   Lee, Yang & Parr

   => LibXC Density Thresholds  <==

    XC_HYB_GGA_XC_B3LYP:  1.00E-15

   => Molecular Quadrature <=

    Radial Scheme          =       TREUTLER
    Pruning Scheme         =           NONE
    Nuclear Scheme         =       TREUTLER

    Blocking Scheme        =         OCTREE
    BS radius alpha        =              1
    Pruning alpha          =              1
    Radial Points          =             75
    Spherical Points       =            302
    Total Points           =          41895
    Total Blocks           =            379
    Max Points             =            256
    Max Functions          =             32
    Weights Tolerance      =       1.00E-15

  -Total Gradient:
     Atom            X                  Y                   Z
    ------   -----------------  -----------------  -----------------
       1        0.000000000000     0.000000000000    -0.000082289059
       2        0.000000000000     0.000000000000     0.000066834010

*** tstop() called on Joses-MacBook-Pro-2.local at Thu Jul 17 13:45:15 2025
Module time:
	user time   =       0.79 seconds =       0.01 minutes
	system time =       1.55 seconds =       0.03 minutes
	total time  =          0 seconds =       0.00 minutes
Total time:
	user time   =      36.95 seconds =       0.62 minutes
	system time =      63.24 seconds =       1.05 minutes
	total time  =         10 seconds =       0.17 minutes

    			-----------------------------------------

    			 OPTKING 3.0: for geometry optimizations

    			     By R.A. King, Bethel University

    			        with contributions from

    			    A.V. Copan, J. Cayton, A. Heide

    			-----------------------------------------

	                            ===> Fragment 1 <==

	 Z (Atomic Numbers)          Masses                          Geom
	       6.000000            12.000000          0.00000000  0.00000000  2.13269168
	      15.000000            30.973762          0.00000000  0.00000000 -0.82625740

	 - Coordinate -           - BOHR/RAD -       - ANG/DEG -
	 R(1,2)           =         2.958949           1.565808

	        --- Internal Coordinate Step in ANG or DEG, aJ/ANG or AJ/DEG ---
	-------------------------------------------------------------------------------
	           Coordinate      Previous         Force          Change          New
	           ----------      --------        ------          ------        ------
	               R(1,2)       1.56581        0.00061        0.00007       1.56588
	-------------------------------------------------------------------------------

	                                 ==> Convergence Check <==

	Measures of convergence in internal coordinates in au.

	Criteria marked as inactive (o), active & met (*), and active & unmet ( ).

	----------------------------------------------------------------------------------------------
	   Step    Total Energy     Delta E     Max Force     RMS Force      Max Disp      RMS Disp
	----------------------------------------------------------------------------------------------
	  Convergence Criteria     1.00e-06 *    3.00e-04 *             o    1.20e-03 *             o
	----------------------------------------------------------------------------------------------
	    10    -378.86817170   -4.56e-07 *    7.46e-05 *    7.46e-05 o    1.41e-04 *    1.41e-04 o  ~
	----------------------------------------------------------------------------------------------

Next Geometry in Ang
	Fragment 1 (Ang)

	    C   0.0000000000   0.0000000000   1.1286091347
	    P   0.0000000000   0.0000000000  -0.4372738875

    Final optimized geometry and variables:
    Molecular point group: c2v
    Full point group: C_inf_v

    Geometry (in Angstrom), charge = 1, multiplicity = 1:

    C            0.000000000000     0.000000000000     1.128571835665
    P            0.000000000000     0.000000000000    -0.437236588461

    Psi4 stopped on: Thursday, 17 July 2025 01:45PM
    Psi4 wall time for execution: 0:00:10.10

*** Psi4 exiting successfully. Buy a developer a beer!
