                               Psi4 1.9.1 release

  ==> Input File <==

--------------------------------------------------------------------------
molecule {
1 1
Be   0.00000        0.60000        0.00000
Al   0.00000       -0.60000        0.00000
}

set {
basis              cc-pvdz
reference          uks
maxiter            500
geom_maxiter       500
DAMPING_PERCENTAGE 1
guess              SAP
}

optimize('b3lyp')
--------------------------------------------------------------------------

    Molecular point group: c2v
  Charge       = 1
  Multiplicity = 1
  Basis Set: CC-PVDZ
    Blend: CC-PVDZ
  Basis Set: (CC-PVDZ AUX)
    Blend: CC-PVDZ-JKFIT + DEF2-UNIVERSAL-JKFIT
  @DF-UKS Final Energy:  -256.24994626221405
    Total Energy =                       -256.2499462622140527
 Dipole X            :          0.0000000            0.0000000            0.0000000
 Dipole Y            :          0.0000000            0.0000000            0.0000000
 Dipole Z            :          0.5811646           -0.5816474           -0.0004828
 Magnitude           :                                                    0.0004828
    Molecular point group: c2v
  Basis Set: CC-PVDZ
    Blend: CC-PVDZ
  Basis Set: (CC-PVDZ AUX)
    Blend: CC-PVDZ-JKFIT + DEF2-UNIVERSAL-JKFIT
  Basis Set: CC-PVDZ
    Blend: CC-PVDZ
  Basis Set: (CC-PVDZ AUX)
    Blend: CC-PVDZ-JKFIT + DEF2-UNIVERSAL-JKFIT
  @DF-UKS Final Energy:  -256.38578415033743
    Total Energy =                       -256.3857841503374289
  Basis Set: CC-PVDZ
    Blend: CC-PVDZ
  Basis Set: (CC-PVDZ AUX)
    Blend: CC-PVDZ-JKFIT + DEF2-UNIVERSAL-JKFIT
  Basis Set: CC-PVDZ
    Blend: CC-PVDZ
  @DF-UKS Final Energy:  -256.52398670685665
    Total Energy =                       -256.5239867068566468
  @DF-UKS Final Energy:  -256.63081141906093
    Total Energy =                       -256.6308114190609331
  @DF-UKS Final Energy:  -256.74271546096384
    Total Energy =                       -256.7427154609638364
  @DF-UKS Final Energy:  -256.84454369421326
    Total Energy =                       -256.8445436942132574
  @DF-UKS Final Energy:  -256.84772733052182
    Total Energy =                       -256.8477273305218205
  @DF-UKS Final Energy:  -256.85504243679958
    Total Energy =                       -256.8550424367995788
  @DF-UKS Final Energy:  -256.85685548767697
    Total Energy =                       -256.8568554876769667
  @DF-UKS Final Energy:  -256.85747635076285
    Total Energy =                       -256.8574763507628518
  @DF-UKS Final Energy:  -256.85754753285011
    Total Energy =                       -256.8575475328501057
  @DF-UKS Final Energy:  -256.85755615315281
    Total Energy =                       -256.8575561531527569
  Basis Set: (CC-PVDZ AUX)
    Blend: CC-PVDZ-JKFIT + DEF2-UNIVERSAL-JKFIT
  Basis Set: CC-PVDZ
    Blend: CC-PVDZ
  Basis Set: (CC-PVDZ AUX)
    Blend: CC-PVDZ-JKFIT + DEF2-UNIVERSAL-JKFIT
  @DF-UKS Final Energy:  -256.85755723859126
    Total Energy =                       -256.8575572385912551
  Basis Set: CC-PVDZ
    Blend: CC-PVDZ
  Basis Set: (CC-PVDZ AUX)
    Blend: CC-PVDZ-JKFIT + DEF2-UNIVERSAL-JKFIT
  Charge       = 1
  Multiplicity = 1
  Basis Set: CC-PVDZ
    Blend: CC-PVDZ
  Basis Set: (CC-PVDZ AUX)
    Blend: CC-PVDZ-JKFIT + DEF2-UNIVERSAL-JKFIT

    Orbital Energies [Eh]
    ---------------------

    Alpha Occupied:

       1A1   -56.328778     2A1    -4.402181     3A1    -4.311118
       1B1    -2.955063     1B2    -2.955063     4A1    -2.952570
       5A1    -0.547108     6A1    -0.425491

    Alpha Virtual:

       7A1    -0.289334     2B2    -0.284356     2B1    -0.284356
       3B2    -0.219984     3B1    -0.219984     8A1    -0.150537
       9A1    -0.021789    10A1     0.019695     4B1     0.023523
       4B2     0.023523    11A1     0.029687     5B2     0.040615
       5B1     0.040615    12A1     0.061504     1A2     0.061504
       6B1     0.074641     6B2     0.074641    13A1     0.118350
      14A1     0.221421     2A2     0.289239    15A1     0.289240
       7B2     0.359830     7B1     0.359830    16A1     0.517336

    Beta Occupied:

       1A1   -56.328778     2A1    -4.402181     3A1    -4.311118
       1B1    -2.955063     1B2    -2.955063     4A1    -2.952570
       5A1    -0.547108     6A1    -0.425491

    Beta Virtual:

       7A1    -0.289334     2B2    -0.284356     2B1    -0.284356
       3B2    -0.219984     3B1    -0.219984     8A1    -0.150537
       9A1    -0.021789    10A1     0.019695     4B1     0.023523
       4B2     0.023523    11A1     0.029687     5B2     0.040615
       5B1     0.040615    12A1     0.061504     1A2     0.061504
       6B1     0.074641     6B2     0.074641    13A1     0.118350
      14A1     0.221421     2A2     0.289239    15A1     0.289240
       7B2     0.359830     7B1     0.359830    16A1     0.517336

    Final Occupation by Irrep:
             A1    A2    B1    B2
    DOCC [     6,    0,    1,    1 ]
    SOCC [     0,    0,    0,    0 ]
    NA   [     6,    0,    1,    1 ]
    NB   [     6,    0,    1,    1 ]

  @DF-UKS Final Energy:  -256.85755738654410

   => Energetics <=

    Nuclear Repulsion Energy =              9.6590645038158733
    One-Electron Energy =                -371.0884569398560870
    Two-Electron Energy =                 121.6222447269107931
    DFT Exchange-Correlation Energy =     -17.0504096774146987
    Empirical Dispersion Energy =           0.0000000000000000
    VV10 Nonlocal Energy =                  0.0000000000000000
    Total Energy =                       -256.8575573865441015

  UHF NO Occupations:
  HONO-2 :    1 B1 2.0000000
  HONO-1 :    5 A1 2.0000000
  HONO-0 :    6 A1 2.0000000
  LUNO+0 :    7 A1 0.0000000
  LUNO+1 :    8 A1 0.0000000
  LUNO+2 :    9 A1 0.0000000
  LUNO+3 :   10 A1 0.0000000

Computation Completed

Properties will be evaluated at   0.000000,   0.000000,   0.000000 [a0]

Properties computed using the SCF density matrix

 Multipole Moments:

 ------------------------------------------------------------------------------------
     Multipole            Electronic (a.u.)      Nuclear  (a.u.)        Total (a.u.)
 ------------------------------------------------------------------------------------

 L = 1.  Multiply by 2.5417464519 to convert [e a0] to [Debye]
 Dipole X            :          0.0000000            0.0000000            0.0000000
 Dipole Y            :          0.0000000            0.0000000            0.0000000
 Dipole Z            :          2.1632601           -1.3808546            0.7824055
 Magnitude           :                                                    0.7824055

 ------------------------------------------------------------------------------------

*** tstop() called on Joses-MacBook-Pro-2.local at Thu Jul 17 13:22:13 2025
Module time:
	user time   =       2.04 seconds =       0.03 minutes
	system time =       4.28 seconds =       0.07 minutes
	total time  =          1 seconds =       0.02 minutes
Total time:
	user time   =      46.83 seconds =       0.78 minutes
	system time =      86.47 seconds =       1.44 minutes
	total time  =         13 seconds =       0.22 minutes

*** tstart() called on Joses-MacBook-Pro-2.local
*** at Thu Jul 17 13:22:13 2025

         ------------------------------------------------------------
                                   SCF GRAD
                          Rob Parrish, Justin Turney,
                       Andy Simmonett, and Alex Sokolov
         ------------------------------------------------------------

  ==> Geometry <==

    Molecular point group: c2v
    Full point group: C_inf_v

    Geometry (in Angstrom), charge = 1, multiplicity = 1:

       Center              X                  Y                   Z               Mass
    ------------   -----------------  -----------------  -----------------  -----------------
         BE           0.000000000000     0.000000000000     2.135548146405     9.012183065000
         AL           0.000000000000     0.000000000000    -0.713300719235    26.981538530000

  Nuclear repulsion =    9.659064503815873

  ==> Basis Set <==

  Basis Set: CC-PVDZ
    Blend: CC-PVDZ
    Number of shells: 14
    Number of basis functions: 32
    Number of Cartesian functions: 34
    Spherical Harmonics?: true
    Max angular momentum: 2

  ==> DFJKGrad: Density-Fitted SCF Gradients <==

    Gradient:                    1
    J tasked:                  Yes
    K tasked:                  Yes
    wK tasked:                  No
    OpenMP threads:              1
    Integrals threads:           1
    Memory [MiB]:              375
    Schwarz Cutoff:          1E-12
    Fitting Condition:       1E-10

   => Auxiliary Basis Set <=

  Basis Set: (CC-PVDZ AUX)
    Blend: CC-PVDZ-JKFIT + DEF2-UNIVERSAL-JKFIT
    Number of shells: 53
    Number of basis functions: 163
    Number of Cartesian functions: 190
    Spherical Harmonics?: true
    Max angular momentum: 3

  ==> DFT Potential <==

   => LibXC <=

    Version 6.2.2
    S. Lehtola, C. Steigemann, M. J.T. Oliveira, and M. A.L. Marques.,  SoftwareX 7, 1â€“5 (2018) (10.1016/j.softx.2017.11.002)

   => Composite Functional: B3LYP <=

    B3LYP Hyb-GGA Exchange-Correlation Functional

    P. J. Stephens, F. J. Devlin, C. F. Chabalowski, and M. J. Frisch.,  J. Phys. Chem. 98, 11623 (1994) (10.1021/j100096a001)

    Deriv               =              1
    GGA                 =           TRUE
    Meta                =          FALSE

    Exchange Hybrid     =           TRUE
    MP2 Hybrid          =          FALSE

   => Exchange Functionals <=

    0.0800   Slater exchange
    0.7200         Becke 88

   => Exact (HF) Exchange <=

    0.2000               HF

   => Correlation Functionals <=

    0.1900   Vosko, Wilk & Nusair (VWN5_RPA)
    0.8100   Lee, Yang & Parr

   => LibXC Density Thresholds  <==

    XC_HYB_GGA_XC_B3LYP:  1.00E-15

   => Molecular Quadrature <=

    Radial Scheme          =       TREUTLER
    Pruning Scheme         =           NONE
    Nuclear Scheme         =       TREUTLER

    Blocking Scheme        =         OCTREE
    BS radius alpha        =              1
    Pruning alpha          =              1
    Radial Points          =             75
    Spherical Points       =            302
    Total Points           =          42494
    Total Blocks           =            405
    Max Points             =            254
    Max Functions          =             32
    Weights Tolerance      =       1.00E-15

  -Total Gradient:
     Atom            X                  Y                   Z
    ------   -----------------  -----------------  -----------------
       1        0.000000000000     0.000000000000    -0.000015934100
       2        0.000000000000     0.000000000000     0.000015293365

*** tstop() called on Joses-MacBook-Pro-2.local at Thu Jul 17 13:22:13 2025
Module time:
	user time   =       0.72 seconds =       0.01 minutes
	system time =       1.63 seconds =       0.03 minutes
	total time  =          0 seconds =       0.00 minutes
Total time:
	user time   =      47.55 seconds =       0.79 minutes
	system time =      88.10 seconds =       1.47 minutes
	total time  =         13 seconds =       0.22 minutes

    			-----------------------------------------

    			 OPTKING 3.0: for geometry optimizations

    			     By R.A. King, Bethel University

    			        with contributions from

    			    A.V. Copan, J. Cayton, A. Heide

    			-----------------------------------------

	                            ===> Fragment 1 <==

	 Z (Atomic Numbers)          Masses                          Geom
	       4.000000             9.012183          0.00000000  0.00000000  4.03560112
	      13.000000            26.981539          0.00000000  0.00000000 -1.34794300

	 - Coordinate -           - BOHR/RAD -       - ANG/DEG -
	 R(1,2)           =         5.383544           2.848849

	        --- Internal Coordinate Step in ANG or DEG, aJ/ANG or AJ/DEG ---
	-------------------------------------------------------------------------------
	           Coordinate      Previous         Force          Change          New
	           ----------      --------        ------          ------        ------
	               R(1,2)       2.84885        0.00013        0.00050       2.84935
	-------------------------------------------------------------------------------

	                                 ==> Convergence Check <==

	Measures of convergence in internal coordinates in au.

	Criteria marked as inactive (o), active & met (*), and active & unmet ( ).

	----------------------------------------------------------------------------------------------
	   Step    Total Energy     Delta E     Max Force     RMS Force      Max Disp      RMS Disp
	----------------------------------------------------------------------------------------------
	  Convergence Criteria     1.00e-06 *    3.00e-04 *             o    1.20e-03 *             o
	----------------------------------------------------------------------------------------------
	    14    -256.85755739   -1.48e-07 *    1.56e-05 *    1.56e-05 o    9.50e-04 *    9.50e-04 o  ~
	----------------------------------------------------------------------------------------------

Next Geometry in Ang
	Fragment 1 (Ang)

	   Be   0.0000000000   0.0000000000   2.1357995778
	   Al   0.0000000000   0.0000000000  -0.7135521507

    Final optimized geometry and variables:
    Molecular point group: c2v
    Full point group: C_inf_v

    Geometry (in Angstrom), charge = 1, multiplicity = 1:

    BE           0.000000000000     0.000000000000     2.135548146405
    AL           0.000000000000     0.000000000000    -0.713300719235

    Psi4 stopped on: Thursday, 17 July 2025 01:22PM
    Psi4 wall time for execution: 0:00:13.84

*** Psi4 exiting successfully. Buy a developer a beer!
