                               Psi4 1.9.1 release

  ==> Input File <==

--------------------------------------------------------------------------
molecule {
1 1
O   0.00000        0.60000        0.00000
Cl   0.00000       -0.60000        0.00000
}

set {
basis              cc-pvdz
reference          uks
maxiter            500
geom_maxiter       500
DAMPING_PERCENTAGE 1
guess              SAP
}

optimize('b3lyp')
--------------------------------------------------------------------------

    Molecular point group: c2v
  Charge       = 1
  Multiplicity = 1
  Basis Set: CC-PVDZ
    Blend: CC-PVDZ
  Basis Set: (CC-PVDZ AUX)
    Blend: CC-PVDZ-JKFIT
  @DF-UKS Final Energy:  -534.69435046456317
    Total Energy =                       -534.6943504645631720
 Dipole X            :          0.0000000            0.0000000            0.0000000
 Dipole Y            :          0.0000000            0.0000000            0.0000000
 Dipole Z            :         -0.9241504            0.3487254           -0.5754250
 Magnitude           :                                                    0.5754250
    Molecular point group: c2v
  Basis Set: CC-PVDZ
    Blend: CC-PVDZ
  Basis Set: (CC-PVDZ AUX)
    Blend: CC-PVDZ-JKFIT
  Basis Set: CC-PVDZ
    Blend: CC-PVDZ
  Basis Set: (CC-PVDZ AUX)
    Blend: CC-PVDZ-JKFIT
  @DF-UKS Final Energy:  -534.80034630847285
    Total Energy =                       -534.8003463084728537
  Basis Set: CC-PVDZ
    Blend: CC-PVDZ
  Basis Set: (CC-PVDZ AUX)
    Blend: CC-PVDZ-JKFIT
  Basis Set: CC-PVDZ
    Blend: CC-PVDZ
  @DF-UKS Final Energy:  -534.84590818274944
    Total Energy =                       -534.8459081827494401
  @DF-UKS Final Energy:  -534.85734182163878
    Total Energy =                       -534.8573418216387836
  @DF-UKS Final Energy:  -534.86089287923494
    Total Energy =                       -534.8608928792349388
  @DF-UKS Final Energy:  -534.86245297680762
    Total Energy =                       -534.8624529768076172
  @DF-UKS Final Energy:  -534.86279605931827
    Total Energy =                       -534.8627960593182706
  @DF-UKS Final Energy:  -534.86289193074163
    Total Energy =                       -534.8628919307416254
  Basis Set: (CC-PVDZ AUX)
    Blend: CC-PVDZ-JKFIT
  Basis Set: CC-PVDZ
    Blend: CC-PVDZ
  Basis Set: (CC-PVDZ AUX)
    Blend: CC-PVDZ-JKFIT
  @DF-UKS Final Energy:  -534.86290231659837
    Total Energy =                       -534.8629023165983654
  Basis Set: CC-PVDZ
    Blend: CC-PVDZ
  Basis Set: (CC-PVDZ AUX)
    Blend: CC-PVDZ-JKFIT
  Charge       = 1
  Multiplicity = 1
  Basis Set: CC-PVDZ
    Blend: CC-PVDZ
  Basis Set: (CC-PVDZ AUX)
    Blend: CC-PVDZ-JKFIT

    Orbital Energies [Eh]
    ---------------------

    Alpha Occupied:

       1A1  -102.053332     2A1   -19.647550     3A1    -9.962452
       4A1    -7.725259     1B1    -7.724150     1B2    -7.707430
       5A1    -1.502968     6A1    -1.141639     7A1    -0.854234
       2B1    -0.824607     2B2    -0.815992     3B2    -0.635190

    Alpha Virtual:

       3B1    -0.579785     8A1    -0.358091     9A1     0.164426
       4B1     0.180260     4B2     0.199757    10A1     0.231584
       5B1     0.290309     1A2     0.297342    11A1     0.298792
       5B2     0.311013    12A1     0.518378     6B1     0.640922
       6B2     0.657575    13A1     0.753601    14A1     1.262557
       2A2     2.162105    15A1     2.165055     7B1     2.261721
       7B2     2.293824    16A1     2.766458

    Beta Occupied:

       1A1  -102.053332     2A1   -19.647550     3A1    -9.962452
       4A1    -7.725259     1B1    -7.724150     1B2    -7.707430
       5A1    -1.502968     6A1    -1.141639     7A1    -0.854234
       2B1    -0.824607     2B2    -0.815992     3B2    -0.635190

    Beta Virtual:

       3B1    -0.579785     8A1    -0.358091     9A1     0.164426
       4B1     0.180260     4B2     0.199757    10A1     0.231584
       5B1     0.290309     1A2     0.297342    11A1     0.298792
       5B2     0.311013    12A1     0.518378     6B1     0.640922
       6B2     0.657575    13A1     0.753601    14A1     1.262557
       2A2     2.162105    15A1     2.165055     7B1     2.261721
       7B2     2.293824    16A1     2.766458

    Final Occupation by Irrep:
             A1    A2    B1    B2
    DOCC [     7,    0,    2,    3 ]
    SOCC [     0,    0,    0,    0 ]
    NA   [     7,    0,    2,    3 ]
    NB   [     7,    0,    2,    3 ]

  @DF-UKS Final Energy:  -534.86290277401258

   => Energetics <=

    Nuclear Repulsion Energy =             47.6412852474904440
    One-Electron Energy =                -822.9292047350820667
    Two-Electron Energy =                 269.7460559250630467
    DFT Exchange-Correlation Energy =     -29.3210392114840523
    Empirical Dispersion Energy =           0.0000000000000000
    VV10 Nonlocal Energy =                  0.0000000000000000
    Total Energy =                       -534.8629027740125821

  UHF NO Occupations:
  HONO-2 :    6 A1 2.0000000
  HONO-1 :    2 B1 2.0000000
  HONO-0 :    7 A1 2.0000000
  LUNO+0 :    8 A1 0.0000000
  LUNO+1 :    4 B2 0.0000000
  LUNO+2 :    9 A1 0.0000000
  LUNO+3 :   10 A1 0.0000000

Computation Completed

Properties will be evaluated at   0.000000,   0.000000,   0.000000 [a0]

Properties computed using the SCF density matrix

 Multipole Moments:

 ------------------------------------------------------------------------------------
     Multipole            Electronic (a.u.)      Nuclear  (a.u.)        Total (a.u.)
 ------------------------------------------------------------------------------------

 L = 1.  Multiply by 2.5417464519 to convert [e a0] to [Debye]
 Dipole X            :          0.0000000            0.0000000            0.0000000
 Dipole Y            :          0.0000000            0.0000000            0.0000000
 Dipole Z            :         -1.0216571            0.4389943           -0.5826628
 Magnitude           :                                                    0.5826628

 ------------------------------------------------------------------------------------

*** tstop() called on Joses-MacBook-Pro-2.local at Thu Jul 17 14:14:17 2025
Module time:
	user time   =       3.33 seconds =       0.06 minutes
	system time =       3.14 seconds =       0.05 minutes
	total time  =          0 seconds =       0.00 minutes
Total time:
	user time   =      48.25 seconds =       0.80 minutes
	system time =      49.74 seconds =       0.83 minutes
	total time  =          9 seconds =       0.15 minutes

*** tstart() called on Joses-MacBook-Pro-2.local
*** at Thu Jul 17 14:14:17 2025

         ------------------------------------------------------------
                                   SCF GRAD
                          Rob Parrish, Justin Turney,
                       Andy Simmonett, and Alex Sokolov
         ------------------------------------------------------------

  ==> Geometry <==

    Molecular point group: c2v
    Full point group: C_inf_v

    Geometry (in Angstrom), charge = 1, multiplicity = 1:

       Center              X                  Y                   Z               Mass
    ------------   -----------------  -----------------  -----------------  -----------------
         O            0.000000000000     0.000000000000     1.036517004664    15.994914619570
         CL           0.000000000000     0.000000000000    -0.474107662099    34.968852682000

  Nuclear repulsion =   47.641285247490458

  ==> Basis Set <==

  Basis Set: CC-PVDZ
    Blend: CC-PVDZ
    Number of shells: 14
    Number of basis functions: 32
    Number of Cartesian functions: 34
    Spherical Harmonics?: true
    Max angular momentum: 2

  ==> DFJKGrad: Density-Fitted SCF Gradients <==

    Gradient:                    1
    J tasked:                  Yes
    K tasked:                  Yes
    wK tasked:                  No
    OpenMP threads:              1
    Integrals threads:           1
    Memory [MiB]:              375
    Schwarz Cutoff:          1E-12
    Fitting Condition:       1E-10

   => Auxiliary Basis Set <=

  Basis Set: (CC-PVDZ AUX)
    Blend: CC-PVDZ-JKFIT
    Number of shells: 60
    Number of basis functions: 182
    Number of Cartesian functions: 211
    Spherical Harmonics?: true
    Max angular momentum: 3

  ==> DFT Potential <==

   => LibXC <=

    Version 6.2.2
    S. Lehtola, C. Steigemann, M. J.T. Oliveira, and M. A.L. Marques.,  SoftwareX 7, 1â€“5 (2018) (10.1016/j.softx.2017.11.002)

   => Composite Functional: B3LYP <=

    B3LYP Hyb-GGA Exchange-Correlation Functional

    P. J. Stephens, F. J. Devlin, C. F. Chabalowski, and M. J. Frisch.,  J. Phys. Chem. 98, 11623 (1994) (10.1021/j100096a001)

    Deriv               =              1
    GGA                 =           TRUE
    Meta                =          FALSE

    Exchange Hybrid     =           TRUE
    MP2 Hybrid          =          FALSE

   => Exchange Functionals <=

    0.0800   Slater exchange
    0.7200         Becke 88

   => Exact (HF) Exchange <=

    0.2000               HF

   => Correlation Functionals <=

    0.1900   Vosko, Wilk & Nusair (VWN5_RPA)
    0.8100   Lee, Yang & Parr

   => LibXC Density Thresholds  <==

    XC_HYB_GGA_XC_B3LYP:  1.00E-15

   => Molecular Quadrature <=

    Radial Scheme          =       TREUTLER
    Pruning Scheme         =           NONE
    Nuclear Scheme         =       TREUTLER

    Blocking Scheme        =         OCTREE
    BS radius alpha        =              1
    Pruning alpha          =              1
    Radial Points          =             75
    Spherical Points       =            302
    Total Points           =          41311
    Total Blocks           =            370
    Max Points             =            255
    Max Functions          =             32
    Weights Tolerance      =       1.00E-15

  -Total Gradient:
     Atom            X                  Y                   Z
    ------   -----------------  -----------------  -----------------
       1        0.000000000000    -0.000000000000    -0.000100611163
       2        0.000000000000     0.000000000000     0.000078110845

*** tstop() called on Joses-MacBook-Pro-2.local at Thu Jul 17 14:14:17 2025
Module time:
	user time   =       1.14 seconds =       0.02 minutes
	system time =       1.88 seconds =       0.03 minutes
	total time  =          0 seconds =       0.00 minutes
Total time:
	user time   =      49.39 seconds =       0.82 minutes
	system time =      51.62 seconds =       0.86 minutes
	total time  =          9 seconds =       0.15 minutes

    			-----------------------------------------

    			 OPTKING 3.0: for geometry optimizations

    			     By R.A. King, Bethel University

    			        with contributions from

    			    A.V. Copan, J. Cayton, A. Heide

    			-----------------------------------------

	                            ===> Fragment 1 <==

	 Z (Atomic Numbers)          Masses                          Geom
	       8.000000            15.994915          0.00000000  0.00000000  1.95873326
	      17.000000            34.968853          0.00000000  0.00000000 -0.89593364

	 - Coordinate -           - BOHR/RAD -       - ANG/DEG -
	 R(1,2)           =         2.854667           1.510625

	        --- Internal Coordinate Step in ANG or DEG, aJ/ANG or AJ/DEG ---
	-------------------------------------------------------------------------------
	           Coordinate      Previous         Force          Change          New
	           ----------      --------        ------          ------        ------
	               R(1,2)       1.51062        0.00074        0.00009       1.51072
	-------------------------------------------------------------------------------

	                                 ==> Convergence Check <==

	Measures of convergence in internal coordinates in au.

	Criteria marked as inactive (o), active & met (*), and active & unmet ( ).

	----------------------------------------------------------------------------------------------
	   Step    Total Energy     Delta E     Max Force     RMS Force      Max Disp      RMS Disp
	----------------------------------------------------------------------------------------------
	  Convergence Criteria     1.00e-06 *    3.00e-04 *             o    1.20e-03 *             o
	----------------------------------------------------------------------------------------------
	    10    -534.86290277   -4.57e-07 *    8.94e-05 *    8.94e-05 o    1.73e-04 *    1.73e-04 o  ~
	----------------------------------------------------------------------------------------------

Next Geometry in Ang
	Fragment 1 (Ang)

	    O   0.0000000000   0.0000000000   1.0365627825
	   Cl   0.0000000000   0.0000000000  -0.4741534399

    Final optimized geometry and variables:
    Molecular point group: c2v
    Full point group: C_inf_v

    Geometry (in Angstrom), charge = 1, multiplicity = 1:

    O            0.000000000000     0.000000000000     1.036517004664
    CL           0.000000000000     0.000000000000    -0.474107662099

    Psi4 stopped on: Thursday, 17 July 2025 02:14PM
    Psi4 wall time for execution: 0:00:10.50

*** Psi4 exiting successfully. Buy a developer a beer!
