                               Psi4 1.9.1 release

  ==> Input File <==

--------------------------------------------------------------------------
molecule {
1 1
C   0.00000        0.60000        0.00000
Al   0.00000       -0.60000        0.00000
}

set {
basis              cc-pvdz
reference          uks
maxiter            500
geom_maxiter       500
DAMPING_PERCENTAGE 1
guess              SAP
}

optimize('b3lyp')
--------------------------------------------------------------------------

    Molecular point group: c2v
  Charge       = 1
  Multiplicity = 1
  Basis Set: CC-PVDZ
    Blend: CC-PVDZ
  Basis Set: (CC-PVDZ AUX)
    Blend: CC-PVDZ-JKFIT
  @DF-UKS Final Energy:  -279.49000247042090
    Total Energy =                       -279.4900024704209045
 Dipole X            :          0.0000000            0.0000000            0.0000000
 Dipole Y            :          0.0000000            0.0000000            0.0000000
 Dipole Z            :         -2.1905980            0.3425940           -1.8480040
 Magnitude           :                                                    1.8480040
    Molecular point group: c2v
  Basis Set: CC-PVDZ
    Blend: CC-PVDZ
  Basis Set: (CC-PVDZ AUX)
    Blend: CC-PVDZ-JKFIT
  Basis Set: CC-PVDZ
    Blend: CC-PVDZ
  Basis Set: (CC-PVDZ AUX)
    Blend: CC-PVDZ-JKFIT
  @DF-UKS Final Energy:  -279.64186661250187
    Total Energy =                       -279.6418666125018717
  Basis Set: CC-PVDZ
    Blend: CC-PVDZ
  Basis Set: (CC-PVDZ AUX)
    Blend: CC-PVDZ-JKFIT
  Basis Set: CC-PVDZ
    Blend: CC-PVDZ
  @DF-UKS Final Energy:  -279.81328623433075
    Total Energy =                       -279.8132862343307465
  @DF-UKS Final Energy:  -279.93441564825537
    Total Energy =                       -279.9344156482553672
  @DF-UKS Final Energy:  -279.96083728773380
    Total Energy =                       -279.9608372877337956
  @DF-UKS Final Energy:  -279.97360000524526
    Total Energy =                       -279.9736000052453164
  @DF-UKS Final Energy:  -279.97661370048502
    Total Energy =                       -279.9766137004850179
  @DF-UKS Final Energy:  -279.97767534130116
    Total Energy =                       -279.9776753413011647
  @DF-UKS Final Energy:  -279.97789482376692
    Total Energy =                       -279.9778948237669169
  @DF-UKS Final Energy:  -279.97794598300436
    Total Energy =                       -279.9779459830043606
  @DF-UKS Final Energy:  -279.97796115454867
    Total Energy =                       -279.9779611545486659
  Basis Set: (CC-PVDZ AUX)
    Blend: CC-PVDZ-JKFIT
  Basis Set: CC-PVDZ
    Blend: CC-PVDZ
  Basis Set: (CC-PVDZ AUX)
    Blend: CC-PVDZ-JKFIT
  @DF-UKS Final Energy:  -279.97796291913886
    Total Energy =                       -279.9779629191388040
  Basis Set: CC-PVDZ
    Blend: CC-PVDZ
  Basis Set: (CC-PVDZ AUX)
    Blend: CC-PVDZ-JKFIT
  Charge       = 1
  Multiplicity = 1
  Basis Set: CC-PVDZ
    Blend: CC-PVDZ
  Basis Set: (CC-PVDZ AUX)
    Blend: CC-PVDZ-JKFIT

    Orbital Energies [Eh]
    ---------------------

    Alpha Occupied:

       1A1   -56.402584     2A1   -10.561369     3A1    -4.474169
       1B2    -3.028019     4A1    -3.026891     1B1    -3.024666
       5A1    -0.827862     6A1    -0.564726     2B1    -0.460314

    Alpha Virtual:

       7A1    -0.411697     2B2    -0.403596     3B2    -0.279063
       3B1    -0.278072     8A1    -0.178628     9A1    -0.044309
       4B2     0.000777     4B1     0.005360     1A2     0.021254
      10A1     0.021702    11A1     0.024702     5B2     0.060324
       5B1     0.067013    12A1     0.177585     6B2     0.315825
       6B1     0.324159    13A1     0.359546    14A1     0.632281
       2A2     0.926844    15A1     0.934363     7B2     1.015376
       7B1     1.035426    16A1     1.303650

    Beta Occupied:

       1A1   -56.402584     2A1   -10.561369     3A1    -4.474169
       1B2    -3.028019     4A1    -3.026891     1B1    -3.024666
       5A1    -0.827862     6A1    -0.564726     2B1    -0.460314

    Beta Virtual:

       7A1    -0.411697     2B2    -0.403596     3B2    -0.279063
       3B1    -0.278072     8A1    -0.178628     9A1    -0.044309
       4B2     0.000777     4B1     0.005360     1A2     0.021254
      10A1     0.021702    11A1     0.024702     5B2     0.060324
       5B1     0.067013    12A1     0.177585     6B2     0.315825
       6B1     0.324159    13A1     0.359546    14A1     0.632281
       2A2     0.926844    15A1     0.934363     7B2     1.015376
       7B1     1.035426    16A1     1.303650

    Final Occupation by Irrep:
             A1    A2    B1    B2
    DOCC [     6,    0,    2,    1 ]
    SOCC [     0,    0,    0,    0 ]
    NA   [     6,    0,    2,    1 ]
    NB   [     6,    0,    2,    1 ]

  @DF-UKS Final Energy:  -279.97796300250133

   => Energetics <=

    Nuclear Repulsion Energy =             20.3850968242951787
    One-Electron Energy =                -422.3777573920262967
    Two-Electron Energy =                 141.0337220000707816
    DFT Exchange-Correlation Energy =     -19.0190244348410253
    Empirical Dispersion Energy =           0.0000000000000000
    VV10 Nonlocal Energy =                  0.0000000000000000
    Total Energy =                       -279.9779630025013262

  UHF NO Occupations:
  HONO-2 :    1 B2 2.0000000
  HONO-1 :    5 A1 2.0000000
  HONO-0 :    6 A1 2.0000000
  LUNO+0 :    7 A1 0.0000000
  LUNO+1 :    8 A1 0.0000000
  LUNO+2 :    3 B1 0.0000000
  LUNO+3 :    4 B1 0.0000000

Computation Completed

Properties will be evaluated at   0.000000,   0.000000,   0.000000 [a0]

Properties computed using the SCF density matrix

 Multipole Moments:

 ------------------------------------------------------------------------------------
     Multipole            Electronic (a.u.)      Nuclear  (a.u.)        Total (a.u.)
 ------------------------------------------------------------------------------------

 L = 1.  Multiply by 2.5417464519 to convert [e a0] to [Debye]
 Dipole X            :          0.0000000            0.0000000            0.0000000
 Dipole Y            :          0.0000000            0.0000000            0.0000000
 Dipole Z            :         -1.7410768            0.5780714           -1.1630054
 Magnitude           :                                                    1.1630054

 ------------------------------------------------------------------------------------

*** tstop() called on Joses-MacBook-Pro-2.local at Thu Jul 17 13:44:03 2025
Module time:
	user time   =       2.52 seconds =       0.04 minutes
	system time =       3.93 seconds =       0.07 minutes
	total time  =          1 seconds =       0.02 minutes
Total time:
	user time   =      47.70 seconds =       0.80 minutes
	system time =      82.03 seconds =       1.37 minutes
	total time  =         12 seconds =       0.20 minutes

*** tstart() called on Joses-MacBook-Pro-2.local
*** at Thu Jul 17 13:44:03 2025

         ------------------------------------------------------------
                                   SCF GRAD
                          Rob Parrish, Justin Turney,
                       Andy Simmonett, and Alex Sokolov
         ------------------------------------------------------------

  ==> Geometry <==

    Molecular point group: c2v
    Full point group: C_inf_v

    Geometry (in Angstrom), charge = 1, multiplicity = 1:

       Center              X                  Y                   Z               Mass
    ------------   -----------------  -----------------  -----------------  -----------------
         C            0.000000000000     0.000000000000     1.401492219703    12.000000000000
         AL           0.000000000000     0.000000000000    -0.623311625382    26.981538530000

  Nuclear repulsion =   20.385096824295179

  ==> Basis Set <==

  Basis Set: CC-PVDZ
    Blend: CC-PVDZ
    Number of shells: 14
    Number of basis functions: 32
    Number of Cartesian functions: 34
    Spherical Harmonics?: true
    Max angular momentum: 2

  ==> DFJKGrad: Density-Fitted SCF Gradients <==

    Gradient:                    1
    J tasked:                  Yes
    K tasked:                  Yes
    wK tasked:                  No
    OpenMP threads:              1
    Integrals threads:           1
    Memory [MiB]:              375
    Schwarz Cutoff:          1E-12
    Fitting Condition:       1E-10

   => Auxiliary Basis Set <=

  Basis Set: (CC-PVDZ AUX)
    Blend: CC-PVDZ-JKFIT
    Number of shells: 60
    Number of basis functions: 182
    Number of Cartesian functions: 211
    Spherical Harmonics?: true
    Max angular momentum: 3

  ==> DFT Potential <==

   => LibXC <=

    Version 6.2.2
    S. Lehtola, C. Steigemann, M. J.T. Oliveira, and M. A.L. Marques.,  SoftwareX 7, 1â€“5 (2018) (10.1016/j.softx.2017.11.002)

   => Composite Functional: B3LYP <=

    B3LYP Hyb-GGA Exchange-Correlation Functional

    P. J. Stephens, F. J. Devlin, C. F. Chabalowski, and M. J. Frisch.,  J. Phys. Chem. 98, 11623 (1994) (10.1021/j100096a001)

    Deriv               =              1
    GGA                 =           TRUE
    Meta                =          FALSE

    Exchange Hybrid     =           TRUE
    MP2 Hybrid          =          FALSE

   => Exchange Functionals <=

    0.0800   Slater exchange
    0.7200         Becke 88

   => Exact (HF) Exchange <=

    0.2000               HF

   => Correlation Functionals <=

    0.1900   Vosko, Wilk & Nusair (VWN5_RPA)
    0.8100   Lee, Yang & Parr

   => LibXC Density Thresholds  <==

    XC_HYB_GGA_XC_B3LYP:  1.00E-15

   => Molecular Quadrature <=

    Radial Scheme          =       TREUTLER
    Pruning Scheme         =           NONE
    Nuclear Scheme         =       TREUTLER

    Blocking Scheme        =         OCTREE
    BS radius alpha        =              1
    Pruning alpha          =              1
    Radial Points          =             75
    Spherical Points       =            302
    Total Points           =          43272
    Total Blocks           =            401
    Max Points             =            255
    Max Functions          =             32
    Weights Tolerance      =       1.00E-15

  -Total Gradient:
     Atom            X                  Y                   Z
    ------   -----------------  -----------------  -----------------
       1       -0.000000000000     0.000000000000    -0.000021597748
       2        0.000000000000     0.000000000000     0.000004853350

*** tstop() called on Joses-MacBook-Pro-2.local at Thu Jul 17 13:44:03 2025
Module time:
	user time   =       0.77 seconds =       0.01 minutes
	system time =       1.91 seconds =       0.03 minutes
	total time  =          0 seconds =       0.00 minutes
Total time:
	user time   =      48.47 seconds =       0.81 minutes
	system time =      83.95 seconds =       1.40 minutes
	total time  =         12 seconds =       0.20 minutes

    			-----------------------------------------

    			 OPTKING 3.0: for geometry optimizations

    			     By R.A. King, Bethel University

    			        with contributions from

    			    A.V. Copan, J. Cayton, A. Heide

    			-----------------------------------------

	                            ===> Fragment 1 <==

	 Z (Atomic Numbers)          Masses                          Geom
	       6.000000            12.000000          0.00000000  0.00000000  2.64843646
	      13.000000            26.981539          0.00000000  0.00000000 -1.17788826

	 - Coordinate -           - BOHR/RAD -       - ANG/DEG -
	 R(1,2)           =         3.826325           2.024804

	        --- Internal Coordinate Step in ANG or DEG, aJ/ANG or AJ/DEG ---
	-------------------------------------------------------------------------------
	           Coordinate      Previous         Force          Change          New
	           ----------      --------        ------          ------        ------
	               R(1,2)       2.02480        0.00011        0.00008       2.02488
	-------------------------------------------------------------------------------

	                                 ==> Convergence Check <==

	Measures of convergence in internal coordinates in au.

	Criteria marked as inactive (o), active & met (*), and active & unmet ( ).

	----------------------------------------------------------------------------------------------
	   Step    Total Energy     Delta E     Max Force     RMS Force      Max Disp      RMS Disp
	----------------------------------------------------------------------------------------------
	  Convergence Criteria     1.00e-06 *    3.00e-04 *             o    1.20e-03 *             o
	----------------------------------------------------------------------------------------------
	    13    -279.97796300   -8.34e-08 *    1.32e-05 *    1.32e-05 o    1.45e-04 *    1.45e-04 o  ~
	----------------------------------------------------------------------------------------------

Next Geometry in Ang
	Fragment 1 (Ang)

	    C   0.0000000000   0.0000000000   1.4015304567
	   Al   0.0000000000   0.0000000000  -0.6233498624

    Final optimized geometry and variables:
    Molecular point group: c2v
    Full point group: C_inf_v

    Geometry (in Angstrom), charge = 1, multiplicity = 1:

    C            0.000000000000     0.000000000000     1.401492219703
    AL           0.000000000000     0.000000000000    -0.623311625382

    Psi4 stopped on: Thursday, 17 July 2025 01:44PM
    Psi4 wall time for execution: 0:00:13.40

*** Psi4 exiting successfully. Buy a developer a beer!
