                               Psi4 1.9.1 release

  ==> Input File <==

--------------------------------------------------------------------------
molecule {
1 1
F   0.00000        0.60000        0.00000
Si   0.00000       -0.60000        0.00000
}

set {
basis              cc-pvdz
reference          uks
maxiter            500
geom_maxiter       500
DAMPING_PERCENTAGE 1
guess              SAP
}

optimize('b3lyp')
--------------------------------------------------------------------------

    Molecular point group: c2v
  Charge       = 1
  Multiplicity = 1
  Basis Set: CC-PVDZ
    Blend: CC-PVDZ
  Basis Set: (CC-PVDZ AUX)
    Blend: CC-PVDZ-JKFIT
  @DF-UKS Final Energy:  -388.79830111378163
    Total Energy =                       -388.7983011137816902
 Dipole X            :          0.0000000            0.0000000            0.0000000
 Dipole Y            :          0.0000000            0.0000000            0.0000000
 Dipole Z            :         -0.0600563           -0.6847767           -0.7448330
 Magnitude           :                                                    0.7448330
    Molecular point group: c2v
  Basis Set: CC-PVDZ
    Blend: CC-PVDZ
  Basis Set: (CC-PVDZ AUX)
    Blend: CC-PVDZ-JKFIT
  Basis Set: CC-PVDZ
    Blend: CC-PVDZ
  Basis Set: (CC-PVDZ AUX)
    Blend: CC-PVDZ-JKFIT
  @DF-UKS Final Energy:  -388.95141821012044
    Total Energy =                       -388.9514182101204369
  Basis Set: CC-PVDZ
    Blend: CC-PVDZ
  Basis Set: (CC-PVDZ AUX)
    Blend: CC-PVDZ-JKFIT
  Basis Set: CC-PVDZ
    Blend: CC-PVDZ
  @DF-UKS Final Energy:  -389.01833317418323
    Total Energy =                       -389.0183331741831694
  @DF-UKS Final Energy:  -389.03747005097438
    Total Energy =                       -389.0374700509743775
  @DF-UKS Final Energy:  -389.04579927735870
    Total Energy =                       -389.0457992773586966
  @DF-UKS Final Energy:  -389.04774178008915
    Total Energy =                       -389.0477417800891544
  @DF-UKS Final Energy:  -389.04824833677065
    Total Energy =                       -389.0482483367705981
  @DF-UKS Final Energy:  -389.04841776609868
    Total Energy =                       -389.0484177660986802
  Basis Set: (CC-PVDZ AUX)
    Blend: CC-PVDZ-JKFIT
  Basis Set: CC-PVDZ
    Blend: CC-PVDZ
  Basis Set: (CC-PVDZ AUX)
    Blend: CC-PVDZ-JKFIT
  @DF-UKS Final Energy:  -389.04844233098805
    Total Energy =                       -389.0484423309881095
  Basis Set: CC-PVDZ
    Blend: CC-PVDZ
  Basis Set: (CC-PVDZ AUX)
    Blend: CC-PVDZ-JKFIT
  Charge       = 1
  Multiplicity = 1
  Basis Set: CC-PVDZ
    Blend: CC-PVDZ
  Basis Set: (CC-PVDZ AUX)
    Blend: CC-PVDZ-JKFIT

    Orbital Energies [Eh]
    ---------------------

    Alpha Occupied:

       1A1   -66.569253     2A1   -25.004513     3A1    -5.699192
       1B1    -4.058419     1B2    -4.058419     4A1    -4.054462
       5A1    -1.492660     6A1    -0.829154     2B1    -0.730538
       2B2    -0.730538     7A1    -0.651009

    Alpha Virtual:

       3B1    -0.380226     3B2    -0.380226     8A1    -0.248997
       9A1    -0.002738     4B1     0.046847     4B2     0.046847
      10A1     0.057994     1A2     0.057994    11A1     0.091885
       5B1     0.118879     5B2     0.118879    12A1     0.323959
       6B1     0.976253     6B2     0.976253    13A1     0.990810
      14A1     1.896018     2A2     3.259694    15A1     3.259731
       7B2     3.306762     7B1     3.306762    16A1     3.507409

    Beta Occupied:

       1A1   -66.569253     2A1   -25.004513     3A1    -5.699192
       1B1    -4.058419     1B2    -4.058419     4A1    -4.054462
       5A1    -1.492660     6A1    -0.829154     2B1    -0.730538
       2B2    -0.730538     7A1    -0.651009

    Beta Virtual:

       3B1    -0.380226     3B2    -0.380226     8A1    -0.248997
       9A1    -0.002738     4B1     0.046847     4B2     0.046847
      10A1     0.057994     1A2     0.057994    11A1     0.091885
       5B1     0.118879     5B2     0.118879    12A1     0.323959
       6B1     0.976253     6B2     0.976253    13A1     0.990810
      14A1     1.896018     2A2     3.259694    15A1     3.259731
       7B2     3.306762     7B1     3.306762    16A1     3.507409

    Final Occupation by Irrep:
             A1    A2    B1    B2
    DOCC [     7,    0,    2,    2 ]
    SOCC [     0,    0,    0,    0 ]
    NA   [     7,    0,    2,    2 ]
    NB   [     7,    0,    2,    2 ]

  @DF-UKS Final Energy:  -389.04844383957078

   => Energetics <=

    Nuclear Repulsion Energy =             41.7520091688311297
    One-Electron Energy =                -615.9602428366479216
    Two-Electron Energy =                 210.2003639665956882
    DFT Exchange-Correlation Energy =     -25.0405741383496974
    Empirical Dispersion Energy =           0.0000000000000000
    VV10 Nonlocal Energy =                  0.0000000000000000
    Total Energy =                       -389.0484438395708366

  UHF NO Occupations:
  HONO-2 :    4 A1 2.0000000
  HONO-1 :    6 A1 2.0000000
  HONO-0 :    7 A1 2.0000000
  LUNO+0 :    8 A1 0.0000000
  LUNO+1 :    9 A1 0.0000000
  LUNO+2 :    3 B1 0.0000000
  LUNO+3 :    4 B1 0.0000000

Computation Completed

Properties will be evaluated at   0.000000,   0.000000,   0.000000 [a0]

Properties computed using the SCF density matrix

 Multipole Moments:

 ------------------------------------------------------------------------------------
     Multipole            Electronic (a.u.)      Nuclear  (a.u.)        Total (a.u.)
 ------------------------------------------------------------------------------------

 L = 1.  Multiply by 2.5417464519 to convert [e a0] to [Debye]
 Dipole X            :          0.0000000            0.0000000            0.0000000
 Dipole Y            :          0.0000000            0.0000000            0.0000000
 Dipole Z            :         -0.5804976           -0.9113014           -1.4917989
 Magnitude           :                                                    1.4917989

 ------------------------------------------------------------------------------------

*** tstop() called on Joses-MacBook-Pro-2.local at Thu Jul 17 14:28:30 2025
Module time:
	user time   =       3.28 seconds =       0.05 minutes
	system time =       2.39 seconds =       0.04 minutes
	total time  =          1 seconds =       0.02 minutes
Total time:
	user time   =      47.03 seconds =       0.78 minutes
	system time =      46.93 seconds =       0.78 minutes
	total time  =         10 seconds =       0.17 minutes

*** tstart() called on Joses-MacBook-Pro-2.local
*** at Thu Jul 17 14:28:30 2025

         ------------------------------------------------------------
                                   SCF GRAD
                          Rob Parrish, Justin Turney,
                       Andy Simmonett, and Alex Sokolov
         ------------------------------------------------------------

  ==> Geometry <==

    Molecular point group: c2v
    Full point group: C_inf_v

    Geometry (in Angstrom), charge = 1, multiplicity = 1:

       Center              X                  Y                   Z               Mass
    ------------   -----------------  -----------------  -----------------  -----------------
         F            0.000000000000     0.000000000000     0.951096238762    18.998403162730
         SI           0.000000000000     0.000000000000    -0.645864718849    27.976926534650

  Nuclear repulsion =   41.752009168831130

  ==> Basis Set <==

  Basis Set: CC-PVDZ
    Blend: CC-PVDZ
    Number of shells: 14
    Number of basis functions: 32
    Number of Cartesian functions: 34
    Spherical Harmonics?: true
    Max angular momentum: 2

  ==> DFJKGrad: Density-Fitted SCF Gradients <==

    Gradient:                    1
    J tasked:                  Yes
    K tasked:                  Yes
    wK tasked:                  No
    OpenMP threads:              1
    Integrals threads:           1
    Memory [MiB]:              375
    Schwarz Cutoff:          1E-12
    Fitting Condition:       1E-10

   => Auxiliary Basis Set <=

  Basis Set: (CC-PVDZ AUX)
    Blend: CC-PVDZ-JKFIT
    Number of shells: 60
    Number of basis functions: 182
    Number of Cartesian functions: 211
    Spherical Harmonics?: true
    Max angular momentum: 3

  ==> DFT Potential <==

   => LibXC <=

    Version 6.2.2
    S. Lehtola, C. Steigemann, M. J.T. Oliveira, and M. A.L. Marques.,  SoftwareX 7, 1â€“5 (2018) (10.1016/j.softx.2017.11.002)

   => Composite Functional: B3LYP <=

    B3LYP Hyb-GGA Exchange-Correlation Functional

    P. J. Stephens, F. J. Devlin, C. F. Chabalowski, and M. J. Frisch.,  J. Phys. Chem. 98, 11623 (1994) (10.1021/j100096a001)

    Deriv               =              1
    GGA                 =           TRUE
    Meta                =          FALSE

    Exchange Hybrid     =           TRUE
    MP2 Hybrid          =          FALSE

   => Exchange Functionals <=

    0.0800   Slater exchange
    0.7200         Becke 88

   => Exact (HF) Exchange <=

    0.2000               HF

   => Correlation Functionals <=

    0.1900   Vosko, Wilk & Nusair (VWN5_RPA)
    0.8100   Lee, Yang & Parr

   => LibXC Density Thresholds  <==

    XC_HYB_GGA_XC_B3LYP:  1.00E-15

   => Molecular Quadrature <=

    Radial Scheme          =       TREUTLER
    Pruning Scheme         =           NONE
    Nuclear Scheme         =       TREUTLER

    Blocking Scheme        =         OCTREE
    BS radius alpha        =              1
    Pruning alpha          =              1
    Radial Points          =             75
    Spherical Points       =            302
    Total Points           =          42895
    Total Blocks           =            391
    Max Points             =            254
    Max Functions          =             32
    Weights Tolerance      =       1.00E-15

  -Total Gradient:
     Atom            X                  Y                   Z
    ------   -----------------  -----------------  -----------------
       1       -0.000000000000     0.000000000000    -0.000205089437
       2        0.000000000000     0.000000000000     0.000132798727

*** tstop() called on Joses-MacBook-Pro-2.local at Thu Jul 17 14:28:30 2025
Module time:
	user time   =       0.95 seconds =       0.02 minutes
	system time =       1.41 seconds =       0.02 minutes
	total time  =          0 seconds =       0.00 minutes
Total time:
	user time   =      47.98 seconds =       0.80 minutes
	system time =      48.34 seconds =       0.81 minutes
	total time  =         10 seconds =       0.17 minutes

    			-----------------------------------------

    			 OPTKING 3.0: for geometry optimizations

    			     By R.A. King, Bethel University

    			        with contributions from

    			    A.V. Copan, J. Cayton, A. Heide

    			-----------------------------------------

	                            ===> Fragment 1 <==

	 Z (Atomic Numbers)          Masses                          Geom
	       9.000000            18.998403          0.00000000  0.00000000  1.79731141
	      14.000000            27.976927          0.00000000  0.00000000 -1.22050743

	 - Coordinate -           - BOHR/RAD -       - ANG/DEG -
	 R(1,2)           =         3.017819           1.596961

	        --- Internal Coordinate Step in ANG or DEG, aJ/ANG or AJ/DEG ---
	-------------------------------------------------------------------------------
	           Coordinate      Previous         Force          Change          New
	           ----------      --------        ------          ------        ------
	               R(1,2)       1.59696        0.00139        0.00020       1.59716
	-------------------------------------------------------------------------------

	                                 ==> Convergence Check <==

	Measures of convergence in internal coordinates in au.

	Criteria marked as inactive (o), active & met (*), and active & unmet ( ).

	----------------------------------------------------------------------------------------------
	   Step    Total Energy     Delta E     Max Force     RMS Force      Max Disp      RMS Disp
	----------------------------------------------------------------------------------------------
	  Convergence Criteria     1.00e-06 *    3.00e-04 *             o    1.20e-03 *             o
	----------------------------------------------------------------------------------------------
	    10    -389.04844384   -1.51e-06      1.69e-04 *    1.69e-04 o    3.85e-04 *    3.85e-04 o  ~
	----------------------------------------------------------------------------------------------

Next Geometry in Ang
	Fragment 1 (Ang)

	    F   0.0000000000   0.0000000000   0.9511980249
	   Si   0.0000000000   0.0000000000  -0.6459665050

    Final optimized geometry and variables:
    Molecular point group: c2v
    Full point group: C_inf_v

    Geometry (in Angstrom), charge = 1, multiplicity = 1:

    F            0.000000000000     0.000000000000     0.951096238762
    SI           0.000000000000     0.000000000000    -0.645864718849

    Psi4 stopped on: Thursday, 17 July 2025 02:28PM
    Psi4 wall time for execution: 0:00:10.16

*** Psi4 exiting successfully. Buy a developer a beer!
