                               Psi4 1.9.1 release

  ==> Input File <==

--------------------------------------------------------------------------
molecule {
1 1
N   0.00000        0.60000        0.00000
Ar   0.00000       -0.60000        0.00000
}

set {
basis              cc-pvdz
reference          uks
maxiter            500
geom_maxiter       500
DAMPING_PERCENTAGE 1
guess              SAP
}

optimize('b3lyp')
--------------------------------------------------------------------------

    Molecular point group: c2v
  Charge       = 1
  Multiplicity = 1
  Basis Set: CC-PVDZ
    Blend: CC-PVDZ
  Basis Set: (CC-PVDZ AUX)
    Blend: CC-PVDZ-JKFIT
  @DF-UKS Final Energy:  -581.30926383508540
    Total Energy =                       -581.3092638350854031
 Dipole X            :          0.0000000            0.0000000            0.0000000
 Dipole Y            :          0.0000000            0.0000000            0.0000000
 Dipole Z            :         -2.0660433            1.1631923           -0.9028510
 Magnitude           :                                                    0.9028510
    Molecular point group: c2v
  Basis Set: CC-PVDZ
    Blend: CC-PVDZ
  Basis Set: (CC-PVDZ AUX)
    Blend: CC-PVDZ-JKFIT
  Basis Set: CC-PVDZ
    Blend: CC-PVDZ
  Basis Set: (CC-PVDZ AUX)
    Blend: CC-PVDZ-JKFIT
  @DF-UKS Final Energy:  -581.45791708490196
    Total Energy =                       -581.4579170849019647
  Basis Set: CC-PVDZ
    Blend: CC-PVDZ
  Basis Set: (CC-PVDZ AUX)
    Blend: CC-PVDZ-JKFIT
  Basis Set: CC-PVDZ
    Blend: CC-PVDZ
  @DF-UKS Final Energy:  -581.53803744122990
    Total Energy =                       -581.5380374412299034
  @DF-UKS Final Energy:  -581.56829617656774
    Total Energy =                       -581.5682961765677419
  @DF-UKS Final Energy:  -581.58720629448783
    Total Energy =                       -581.5872062944878280
  @DF-UKS Final Energy:  -581.59708103551588
    Total Energy =                       -581.5970810355157710
  @DF-UKS Final Energy:  -581.60012839169440
    Total Energy =                       -581.6001283916943976
  @DF-UKS Final Energy:  -581.60139947675941
    Total Energy =                       -581.6013994767595250
  @DF-UKS Final Energy:  -581.60173672081294
    Total Energy =                       -581.6017367208129372
  @DF-UKS Final Energy:  -581.60184936203245
    Total Energy =                       -581.6018493620324534
  Basis Set: (CC-PVDZ AUX)
    Blend: CC-PVDZ-JKFIT
  Basis Set: CC-PVDZ
    Blend: CC-PVDZ
  Basis Set: (CC-PVDZ AUX)
    Blend: CC-PVDZ-JKFIT
  @DF-UKS Final Energy:  -581.60187154521736
    Total Energy =                       -581.6018715452174774
  Basis Set: CC-PVDZ
    Blend: CC-PVDZ
  Basis Set: (CC-PVDZ AUX)
    Blend: CC-PVDZ-JKFIT
  Charge       = 1
  Multiplicity = 1
  Basis Set: CC-PVDZ
    Blend: CC-PVDZ
  Basis Set: (CC-PVDZ AUX)
    Blend: CC-PVDZ-JKFIT

    Orbital Energies [Eh]
    ---------------------

    Alpha Occupied:

       1A1  -115.522712     2A1   -14.863827     3A1   -11.557137
       4A1    -9.113023     1B2    -9.105522     1B1    -9.102213
       5A1    -1.395146     6A1    -1.113480     7A1    -0.821397
       2B2    -0.809839     2B1    -0.805161     3B1    -0.619736

    Alpha Virtual:

       3B2    -0.548163     8A1    -0.453883     9A1     0.218938
       4B2     0.259083     4B1     0.268212     5B2     0.326535
       5B1     0.334334    10A1     0.369962    11A1     0.431585
       1A2     0.454183    12A1     0.454327     6B2     0.521093
       6B1     0.533524    13A1     0.566474    14A1     0.864988
       2A2     1.376884    15A1     1.386417     7B2     1.415228
       7B1     1.446821    16A1     1.845791

    Beta Occupied:

       1A1  -115.522712     2A1   -14.863827     3A1   -11.557137
       4A1    -9.113023     1B2    -9.105522     1B1    -9.102213
       5A1    -1.395146     6A1    -1.113480     7A1    -0.821397
       2B2    -0.809839     2B1    -0.805161     3B1    -0.619736

    Beta Virtual:

       3B2    -0.548163     8A1    -0.453883     9A1     0.218938
       4B2     0.259083     4B1     0.268212     5B2     0.326535
       5B1     0.334334    10A1     0.369962    11A1     0.431585
       1A2     0.454183    12A1     0.454327     6B2     0.521093
       6B1     0.533524    13A1     0.566474    14A1     0.864988
       2A2     1.376884    15A1     1.386417     7B2     1.415228
       7B1     1.446821    16A1     1.845791

    Final Occupation by Irrep:
             A1    A2    B1    B2
    DOCC [     7,    0,    3,    2 ]
    SOCC [     0,    0,    0,    0 ]
    NA   [     7,    0,    3,    2 ]
    NB   [     7,    0,    3,    2 ]

  @DF-UKS Final Energy:  -581.60187337509319

   => Energetics <=

    Nuclear Repulsion Energy =             36.6344115369297967
    One-Electron Energy =                -865.4273712915045280
    Two-Electron Energy =                 277.2316292431664237
    DFT Exchange-Correlation Energy =     -30.0405428636847667
    Empirical Dispersion Energy =           0.0000000000000000
    VV10 Nonlocal Energy =                  0.0000000000000000
    Total Energy =                       -581.6018733750931915

  UHF NO Occupations:
  HONO-2 :    2 B2 2.0000000
  HONO-1 :    6 A1 2.0000000
  HONO-0 :    7 A1 2.0000000
  LUNO+0 :    8 A1 0.0000000
  LUNO+1 :    9 A1 0.0000000
  LUNO+2 :   10 A1 0.0000000
  LUNO+3 :   11 A1 0.0000000

Computation Completed

Properties will be evaluated at   0.000000,   0.000000,   0.000000 [a0]

Properties computed using the SCF density matrix

 Multipole Moments:

 ------------------------------------------------------------------------------------
     Multipole            Electronic (a.u.)      Nuclear  (a.u.)        Total (a.u.)
 ------------------------------------------------------------------------------------

 L = 1.  Multiply by 2.5417464519 to convert [e a0] to [Debye]
 Dipole X            :          0.0000000            0.0000000            0.0000000
 Dipole Y            :          0.0000000            0.0000000            0.0000000
 Dipole Z            :         -1.4982542            1.7642199            0.2659657
 Magnitude           :                                                    0.2659657

 ------------------------------------------------------------------------------------

*** tstop() called on Joses-MacBook-Pro-2.local at Thu Jul 17 13:58:36 2025
Module time:
	user time   =       2.51 seconds =       0.04 minutes
	system time =       4.83 seconds =       0.08 minutes
	total time  =          0 seconds =       0.00 minutes
Total time:
	user time   =      42.12 seconds =       0.70 minutes
	system time =      86.68 seconds =       1.44 minutes
	total time  =         13 seconds =       0.22 minutes

*** tstart() called on Joses-MacBook-Pro-2.local
*** at Thu Jul 17 13:58:36 2025

         ------------------------------------------------------------
                                   SCF GRAD
                          Rob Parrish, Justin Turney,
                       Andy Simmonett, and Alex Sokolov
         ------------------------------------------------------------

  ==> Geometry <==

    Molecular point group: c2v
    Full point group: C_inf_v

    Geometry (in Angstrom), charge = 1, multiplicity = 1:

       Center              X                  Y                   Z               Mass
    ------------   -----------------  -----------------  -----------------  -----------------
         N            0.000000000000     0.000000000000     1.347776801950    14.003074004430
         AR           0.000000000000     0.000000000000    -0.472269590148    39.962383123700

  Nuclear repulsion =   36.634411536929797

  ==> Basis Set <==

  Basis Set: CC-PVDZ
    Blend: CC-PVDZ
    Number of shells: 14
    Number of basis functions: 32
    Number of Cartesian functions: 34
    Spherical Harmonics?: true
    Max angular momentum: 2

  ==> DFJKGrad: Density-Fitted SCF Gradients <==

    Gradient:                    1
    J tasked:                  Yes
    K tasked:                  Yes
    wK tasked:                  No
    OpenMP threads:              1
    Integrals threads:           1
    Memory [MiB]:              375
    Schwarz Cutoff:          1E-12
    Fitting Condition:       1E-10

   => Auxiliary Basis Set <=

  Basis Set: (CC-PVDZ AUX)
    Blend: CC-PVDZ-JKFIT
    Number of shells: 60
    Number of basis functions: 182
    Number of Cartesian functions: 211
    Spherical Harmonics?: true
    Max angular momentum: 3

  ==> DFT Potential <==

   => LibXC <=

    Version 6.2.2
    S. Lehtola, C. Steigemann, M. J.T. Oliveira, and M. A.L. Marques.,  SoftwareX 7, 1â€“5 (2018) (10.1016/j.softx.2017.11.002)

   => Composite Functional: B3LYP <=

    B3LYP Hyb-GGA Exchange-Correlation Functional

    P. J. Stephens, F. J. Devlin, C. F. Chabalowski, and M. J. Frisch.,  J. Phys. Chem. 98, 11623 (1994) (10.1021/j100096a001)

    Deriv               =              1
    GGA                 =           TRUE
    Meta                =          FALSE

    Exchange Hybrid     =           TRUE
    MP2 Hybrid          =          FALSE

   => Exchange Functionals <=

    0.0800   Slater exchange
    0.7200         Becke 88

   => Exact (HF) Exchange <=

    0.2000               HF

   => Correlation Functionals <=

    0.1900   Vosko, Wilk & Nusair (VWN5_RPA)
    0.8100   Lee, Yang & Parr

   => LibXC Density Thresholds  <==

    XC_HYB_GGA_XC_B3LYP:  1.00E-15

   => Molecular Quadrature <=

    Radial Scheme          =       TREUTLER
    Pruning Scheme         =           NONE
    Nuclear Scheme         =       TREUTLER

    Blocking Scheme        =         OCTREE
    BS radius alpha        =              1
    Pruning alpha          =              1
    Radial Points          =             75
    Spherical Points       =            302
    Total Points           =          40776
    Total Blocks           =            363
    Max Points             =            254
    Max Functions          =             32
    Weights Tolerance      =       1.00E-15

  -Total Gradient:
     Atom            X                  Y                   Z
    ------   -----------------  -----------------  -----------------
       1        0.000000000000    -0.000000000000    -0.000130548199
       2       -0.000000000000     0.000000000000     0.000121259542

*** tstop() called on Joses-MacBook-Pro-2.local at Thu Jul 17 13:58:37 2025
Module time:
	user time   =       0.91 seconds =       0.02 minutes
	system time =       2.16 seconds =       0.04 minutes
	total time  =          1 seconds =       0.02 minutes
Total time:
	user time   =      43.04 seconds =       0.72 minutes
	system time =      88.85 seconds =       1.48 minutes
	total time  =         14 seconds =       0.23 minutes

    			-----------------------------------------

    			 OPTKING 3.0: for geometry optimizations

    			     By R.A. King, Bethel University

    			        with contributions from

    			    A.V. Copan, J. Cayton, A. Heide

    			-----------------------------------------

	                            ===> Fragment 1 <==

	 Z (Atomic Numbers)          Masses                          Geom
	       7.000000            14.003074          0.00000000  0.00000000  2.54692903
	      18.000000            39.962383          0.00000000  0.00000000 -0.89246018

	 - Coordinate -           - BOHR/RAD -       - ANG/DEG -
	 R(1,2)           =         3.439389           1.820046

	        --- Internal Coordinate Step in ANG or DEG, aJ/ANG or AJ/DEG ---
	-------------------------------------------------------------------------------
	           Coordinate      Previous         Force          Change          New
	           ----------      --------        ------          ------        ------
	               R(1,2)       1.82005        0.00104        0.00051       1.82056
	-------------------------------------------------------------------------------

	                                 ==> Convergence Check <==

	Measures of convergence in internal coordinates in au.

	Criteria marked as inactive (o), active & met (*), and active & unmet ( ).

	----------------------------------------------------------------------------------------------
	   Step    Total Energy     Delta E     Max Force     RMS Force      Max Disp      RMS Disp
	----------------------------------------------------------------------------------------------
	  Convergence Criteria     1.00e-06 *    3.00e-04 *             o    1.20e-03 *             o
	----------------------------------------------------------------------------------------------
	    12    -581.60187338   -1.83e-06      1.26e-04 *    1.26e-04 o    9.73e-04 *    9.73e-04 o  ~
	----------------------------------------------------------------------------------------------

Next Geometry in Ang
	Fragment 1 (Ang)

	    N   0.0000000000   0.0000000000   1.3480342297
	   Ar   0.0000000000   0.0000000000  -0.4725270179

    Final optimized geometry and variables:
    Molecular point group: c2v
    Full point group: C_inf_v

    Geometry (in Angstrom), charge = 1, multiplicity = 1:

    N            0.000000000000     0.000000000000     1.347776801950
    AR           0.000000000000     0.000000000000    -0.472269590148

    Psi4 stopped on: Thursday, 17 July 2025 01:58PM
    Psi4 wall time for execution: 0:00:14.38

*** Psi4 exiting successfully. Buy a developer a beer!
