                               Psi4 1.9.1 release

  ==> Input File <==

--------------------------------------------------------------------------
molecule {
1 1
Mg   0.00000        0.60000        0.00000
P   0.00000       -0.60000        0.00000
}

set {
basis              cc-pvdz
reference          uks
maxiter            500
geom_maxiter       500
DAMPING_PERCENTAGE 1
guess              SAP
}

optimize('b3lyp')
--------------------------------------------------------------------------

    Molecular point group: c2v
  Charge       = 1
  Multiplicity = 1
  Basis Set: CC-PVDZ
    Blend: CC-PVDZ
  Basis Set: (CC-PVDZ AUX)
    Blend: CC-PVDZ-JKFIT + DEF2-UNIVERSAL-JKFIT
  @DF-UKS Final Energy:  -540.08764491755062
    Total Energy =                       -540.0876449175506195
 Dipole X            :          0.0000000            0.0000000            0.0000000
 Dipole Y            :          0.0000000            0.0000000            0.0000000
 Dipole Z            :          1.1496421            0.4914021            1.6410443
 Magnitude           :                                                    1.6410443
    Molecular point group: c2v
  Basis Set: CC-PVDZ
    Blend: CC-PVDZ
  Basis Set: (CC-PVDZ AUX)
    Blend: CC-PVDZ-JKFIT + DEF2-UNIVERSAL-JKFIT
  Basis Set: CC-PVDZ
    Blend: CC-PVDZ
  Basis Set: (CC-PVDZ AUX)
    Blend: CC-PVDZ-JKFIT + DEF2-UNIVERSAL-JKFIT
  @DF-UKS Final Energy:  -540.10061596095875
    Total Energy =                       -540.1006159609587485
  Basis Set: CC-PVDZ
    Blend: CC-PVDZ
  Basis Set: (CC-PVDZ AUX)
    Blend: CC-PVDZ-JKFIT + DEF2-UNIVERSAL-JKFIT
  Basis Set: CC-PVDZ
    Blend: CC-PVDZ
  @DF-UKS Final Energy:  -540.12562678874588
    Total Energy =                       -540.1256267887458762
  @DF-UKS Final Energy:  -540.21605622107757
    Total Energy =                       -540.2160562210775652
  @DF-UKS Final Energy:  -540.60611791160090
    Total Energy =                       -540.6061179116009043
  @DF-UKS Final Energy:  -540.79011533826508
    Total Energy =                       -540.7901153382650818
  @DF-UKS Final Energy:  -540.95543711652579
    Total Energy =                       -540.9554371165257862
  @DF-UKS Final Energy:  -541.07229658445260
    Total Energy =                       -541.0722965844526016
  @DF-UKS Final Energy:  -541.07738854505772
    Total Energy =                       -541.0773885450577154
  @DF-UKS Final Energy:  -541.08734415508445
    Total Energy =                       -541.0873441550844518
  @DF-UKS Final Energy:  -541.08877965025761
    Total Energy =                       -541.0887796502576066
  @DF-UKS Final Energy:  -541.08900265856516
    Total Energy =                       -541.0890026585651640
  @DF-UKS Final Energy:  -541.08904244391658
    Total Energy =                       -541.0890424439165827
  Basis Set: (CC-PVDZ AUX)
    Blend: CC-PVDZ-JKFIT + DEF2-UNIVERSAL-JKFIT
  Basis Set: CC-PVDZ
    Blend: CC-PVDZ
  Basis Set: (CC-PVDZ AUX)
    Blend: CC-PVDZ-JKFIT + DEF2-UNIVERSAL-JKFIT
  @DF-UKS Final Energy:  -541.08904799219374
    Total Energy =                       -541.0890479921937413
  Basis Set: CC-PVDZ
    Blend: CC-PVDZ
  Basis Set: (CC-PVDZ AUX)
    Blend: CC-PVDZ-JKFIT + DEF2-UNIVERSAL-JKFIT
  Charge       = 1
  Multiplicity = 1
  Basis Set: CC-PVDZ
    Blend: CC-PVDZ
  Basis Set: (CC-PVDZ AUX)
    Blend: CC-PVDZ-JKFIT + DEF2-UNIVERSAL-JKFIT

    Orbital Energies [Eh]
    ---------------------

    Alpha Occupied:

       1A1   -77.325769     2A1   -47.125581     3A1    -6.789086
       1B1    -4.960135     4A1    -4.948384     1B2    -4.940160
       5A1    -3.401159     2B1    -2.145729     2B2    -2.144167
       6A1    -2.143585     7A1    -0.751756     8A1    -0.466153
       3B2    -0.400119

    Alpha Virtual:

       3B1    -0.365861     9A1    -0.328846     4B1    -0.216458
       4B2    -0.211405    10A1    -0.149236    11A1    -0.074941
       5B1    -0.027711     5B2    -0.023414    12A1    -0.015066
       6B1     0.064491     6B2     0.073778     1A2     0.083059
      13A1     0.083326    14A1     0.120795     7B1     0.256140
       7B2     0.276767     2A2     0.293655    15A1     0.296020
      16A1     0.311273    17A1     0.352476     8B1     0.404088
       8B2     0.425940    18A1     0.699319

    Beta Occupied:

       1A1   -77.325769     2A1   -47.125581     3A1    -6.789086
       1B1    -4.960135     4A1    -4.948384     1B2    -4.940160
       5A1    -3.401159     2B1    -2.145729     2B2    -2.144167
       6A1    -2.143585     7A1    -0.751756     8A1    -0.466153
       3B2    -0.400119

    Beta Virtual:

       3B1    -0.365861     9A1    -0.328846     4B1    -0.216458
       4B2    -0.211405    10A1    -0.149236    11A1    -0.074941
       5B1    -0.027711     5B2    -0.023414    12A1    -0.015066
       6B1     0.064491     6B2     0.073778     1A2     0.083059
      13A1     0.083326    14A1     0.120795     7B1     0.256140
       7B2     0.276767     2A2     0.293655    15A1     0.296020
      16A1     0.311273    17A1     0.352476     8B1     0.404088
       8B2     0.425940    18A1     0.699319

    Final Occupation by Irrep:
             A1    A2    B1    B2
    DOCC [     8,    0,    2,    3 ]
    SOCC [     0,    0,    0,    0 ]
    NA   [     8,    0,    2,    3 ]
    NB   [     8,    0,    2,    3 ]

  @DF-UKS Final Energy:  -541.08904885308834

   => Energetics <=

    Nuclear Repulsion Energy =             39.0083650101309161
    One-Electron Energy =                -822.4490025607751704
    Two-Electron Energy =                 274.1409463223466219
    DFT Exchange-Correlation Energy =     -31.7893576247906573
    Empirical Dispersion Energy =           0.0000000000000000
    VV10 Nonlocal Energy =                  0.0000000000000000
    Total Energy =                       -541.0890488530883431

  UHF NO Occupations:
  HONO-2 :    2 B1 2.0000000
  HONO-1 :    8 A1 2.0000000
  HONO-0 :    7 A1 2.0000000
  LUNO+0 :    9 A1 0.0000000
  LUNO+1 :   10 A1 0.0000000
  LUNO+2 :    3 B1 0.0000000
  LUNO+3 :   11 A1 0.0000000

Computation Completed

Properties will be evaluated at   0.000000,   0.000000,   0.000000 [a0]

Properties computed using the SCF density matrix

 Multipole Moments:

 ------------------------------------------------------------------------------------
     Multipole            Electronic (a.u.)      Nuclear  (a.u.)        Total (a.u.)
 ------------------------------------------------------------------------------------

 L = 1.  Multiply by 2.5417464519 to convert [e a0] to [Debye]
 Dipole X            :          0.0000000            0.0000000            0.0000000
 Dipole Y            :          0.0000000            0.0000000            0.0000000
 Dipole Z            :          1.6083210            0.9999348            2.6082558
 Magnitude           :                                                    2.6082558

 ------------------------------------------------------------------------------------

*** tstop() called on Joses-MacBook-Pro-2.local at Thu Jul 17 15:07:06 2025
Module time:
	user time   =       6.95 seconds =       0.12 minutes
	system time =       2.18 seconds =       0.04 minutes
	total time  =          1 seconds =       0.02 minutes
Total time:
	user time   =     170.38 seconds =       2.84 minutes
	system time =      49.86 seconds =       0.83 minutes
	total time  =         21 seconds =       0.35 minutes

*** tstart() called on Joses-MacBook-Pro-2.local
*** at Thu Jul 17 15:07:06 2025

         ------------------------------------------------------------
                                   SCF GRAD
                          Rob Parrish, Justin Turney,
                       Andy Simmonett, and Alex Sokolov
         ------------------------------------------------------------

  ==> Geometry <==

    Molecular point group: c2v
    Full point group: C_inf_v

    Geometry (in Angstrom), charge = 1, multiplicity = 1:

       Center              X                  Y                   Z               Mass
    ------------   -----------------  -----------------  -----------------  -----------------
         MG           0.000000000000     0.000000000000     1.376171553171    23.985041697000
         P            0.000000000000     0.000000000000    -1.065661061343    30.973761998420

  Nuclear repulsion =   39.008365010130916

  ==> Basis Set <==

  Basis Set: CC-PVDZ
    Blend: CC-PVDZ
    Number of shells: 16
    Number of basis functions: 36
    Number of Cartesian functions: 38
    Spherical Harmonics?: true
    Max angular momentum: 2

  ==> DFJKGrad: Density-Fitted SCF Gradients <==

    Gradient:                    1
    J tasked:                  Yes
    K tasked:                  Yes
    wK tasked:                  No
    OpenMP threads:              1
    Integrals threads:           1
    Memory [MiB]:              375
    Schwarz Cutoff:          1E-12
    Fitting Condition:       1E-10

   => Auxiliary Basis Set <=

  Basis Set: (CC-PVDZ AUX)
    Blend: CC-PVDZ-JKFIT + DEF2-UNIVERSAL-JKFIT
    Number of shells: 70
    Number of basis functions: 224
    Number of Cartesian functions: 267
    Spherical Harmonics?: true
    Max angular momentum: 4

  ==> DFT Potential <==

   => LibXC <=

    Version 6.2.2
    S. Lehtola, C. Steigemann, M. J.T. Oliveira, and M. A.L. Marques.,  SoftwareX 7, 1â€“5 (2018) (10.1016/j.softx.2017.11.002)

   => Composite Functional: B3LYP <=

    B3LYP Hyb-GGA Exchange-Correlation Functional

    P. J. Stephens, F. J. Devlin, C. F. Chabalowski, and M. J. Frisch.,  J. Phys. Chem. 98, 11623 (1994) (10.1021/j100096a001)

    Deriv               =              1
    GGA                 =           TRUE
    Meta                =          FALSE

    Exchange Hybrid     =           TRUE
    MP2 Hybrid          =          FALSE

   => Exchange Functionals <=

    0.0800   Slater exchange
    0.7200         Becke 88

   => Exact (HF) Exchange <=

    0.2000               HF

   => Correlation Functionals <=

    0.1900   Vosko, Wilk & Nusair (VWN5_RPA)
    0.8100   Lee, Yang & Parr

   => LibXC Density Thresholds  <==

    XC_HYB_GGA_XC_B3LYP:  1.00E-15

   => Molecular Quadrature <=

    Radial Scheme          =       TREUTLER
    Pruning Scheme         =           NONE
    Nuclear Scheme         =       TREUTLER

    Blocking Scheme        =         OCTREE
    BS radius alpha        =              1
    Pruning alpha          =              1
    Radial Points          =             75
    Spherical Points       =            302
    Total Points           =          43012
    Total Blocks           =            420
    Max Points             =            256
    Max Functions          =             36
    Weights Tolerance      =       1.00E-15

  -Total Gradient:
     Atom            X                  Y                   Z
    ------   -----------------  -----------------  -----------------
       1        0.000000000000     0.000000000000    -0.000047115400
       2        0.000000000000    -0.000000000000     0.000091094685

*** tstop() called on Joses-MacBook-Pro-2.local at Thu Jul 17 15:07:07 2025
Module time:
	user time   =       2.45 seconds =       0.04 minutes
	system time =       1.75 seconds =       0.03 minutes
	total time  =          1 seconds =       0.02 minutes
Total time:
	user time   =     172.84 seconds =       2.88 minutes
	system time =      51.61 seconds =       0.86 minutes
	total time  =         22 seconds =       0.37 minutes

    			-----------------------------------------

    			 OPTKING 3.0: for geometry optimizations

    			     By R.A. King, Bethel University

    			        with contributions from

    			    A.V. Copan, J. Cayton, A. Heide

    			-----------------------------------------

	                            ===> Fragment 1 <==

	 Z (Atomic Numbers)          Masses                          Geom
	      12.000000            23.985042          0.00000000  0.00000000  2.60058734
	      15.000000            30.973762          0.00000000  0.00000000 -2.01380755

	 - Coordinate -           - BOHR/RAD -       - ANG/DEG -
	 R(1,2)           =         4.614395           2.441833

	        --- Internal Coordinate Step in ANG or DEG, aJ/ANG or AJ/DEG ---
	-------------------------------------------------------------------------------
	           Coordinate      Previous         Force          Change          New
	           ----------      --------        ------          ------        ------
	               R(1,2)       2.44183        0.00057        0.00046       2.44229
	-------------------------------------------------------------------------------

	                                 ==> Convergence Check <==

	Measures of convergence in internal coordinates in au.

	Criteria marked as inactive (o), active & met (*), and active & unmet ( ).

	----------------------------------------------------------------------------------------------
	   Step    Total Energy     Delta E     Max Force     RMS Force      Max Disp      RMS Disp
	----------------------------------------------------------------------------------------------
	  Convergence Criteria     1.00e-06 *    3.00e-04 *             o    1.20e-03 *             o
	----------------------------------------------------------------------------------------------
	    15    -541.08904885   -8.61e-07 *    6.91e-05 *    6.91e-05 o    8.67e-04 *    8.67e-04 o  ~
	----------------------------------------------------------------------------------------------

Next Geometry in Ang
	Fragment 1 (Ang)

	   Mg   0.0000000000   0.0000000000   1.3764010564
	    P   0.0000000000   0.0000000000  -1.0658905645

    Final optimized geometry and variables:
    Molecular point group: c2v
    Full point group: C_inf_v

    Geometry (in Angstrom), charge = 1, multiplicity = 1:

    MG           0.000000000000     0.000000000000     1.376171553171
    P            0.000000000000     0.000000000000    -1.065661061343

    Psi4 stopped on: Thursday, 17 July 2025 03:07PM
    Psi4 wall time for execution: 0:00:21.89

*** Psi4 exiting successfully. Buy a developer a beer!
