                               Psi4 1.9.1 release

  ==> Input File <==

--------------------------------------------------------------------------
molecule {
1 1
Al   0.00000        0.60000        0.00000
Ar   0.00000       -0.60000        0.00000
}

set {
basis              cc-pvdz
reference          uks
maxiter            500
geom_maxiter       500
DAMPING_PERCENTAGE 1
guess              SAP
}

optimize('b3lyp')
--------------------------------------------------------------------------

    Molecular point group: c2v
  Charge       = 1
  Multiplicity = 1
  Basis Set: CC-PVDZ
    Blend: CC-PVDZ
  Basis Set: (CC-PVDZ AUX)
    Blend: CC-PVDZ-JKFIT
  @DF-UKS Final Energy:  -768.35306196574504
    Total Energy =                       -768.3530619657450416
 Dipole X            :          0.0000000            0.0000000            0.0000000
 Dipole Y            :          0.0000000            0.0000000            0.0000000
 Dipole Z            :         -2.0049465            1.1464141           -0.8585324
 Magnitude           :                                                    0.8585324
    Molecular point group: c2v
  Basis Set: CC-PVDZ
    Blend: CC-PVDZ
  Basis Set: (CC-PVDZ AUX)
    Blend: CC-PVDZ-JKFIT
  Basis Set: CC-PVDZ
    Blend: CC-PVDZ
  Basis Set: (CC-PVDZ AUX)
    Blend: CC-PVDZ-JKFIT
  @DF-UKS Final Energy:  -768.38924508531318
    Total Energy =                       -768.3892450853131777
  Basis Set: CC-PVDZ
    Blend: CC-PVDZ
  Basis Set: (CC-PVDZ AUX)
    Blend: CC-PVDZ-JKFIT
  Basis Set: CC-PVDZ
    Blend: CC-PVDZ
  @DF-UKS Final Energy:  -768.45689261065866
    Total Energy =                       -768.4568926106586559
  @DF-UKS Final Energy:  -768.68131420352381
    Total Energy =                       -768.6813142035238116
  @DF-UKS Final Energy:  -769.21113886396540
    Total Energy =                       -769.2111388639654024
  @DF-UKS Final Energy:  -769.40165037774830
    Total Energy =                       -769.4016503777482967
  @DF-UKS Final Energy:  -769.53116924704614
    Total Energy =                       -769.5311692470461367
  @DF-UKS Final Energy:  -769.61354069680795
    Total Energy =                       -769.6135406968079451
  @DF-UKS Final Energy:  -769.65875799396565
    Total Energy =                       -769.6587579939656507
  @DF-UKS Final Energy:  -769.68397559622292
    Total Energy =                       -769.6839755962229219
  @DF-UKS Final Energy:  -769.69715119840737
    Total Energy =                       -769.6971511984074823
  @DF-UKS Final Energy:  -769.70353921321089
    Total Energy =                       -769.7035392132108882
  @DF-UKS Final Energy:  -769.70636352012446
    Total Energy =                       -769.7063635201244551
  @DF-UKS Final Energy:  -769.70747539647653
    Total Energy =                       -769.7074753964766387
  @DF-UKS Final Energy:  -769.70783504839619
    Total Energy =                       -769.7078350483963050
  @DF-UKS Final Energy:  -769.70790564750860
    Total Energy =                       -769.7079056475087100
  @DF-UKS Final Energy:  -769.70792415835251
    Total Energy =                       -769.7079241583525118
  Basis Set: (CC-PVDZ AUX)
    Blend: CC-PVDZ-JKFIT
  Basis Set: CC-PVDZ
    Blend: CC-PVDZ
  Basis Set: (CC-PVDZ AUX)
    Blend: CC-PVDZ-JKFIT
  @DF-UKS Final Energy:  -769.70792609731825
    Total Energy =                       -769.7079260973182500
  Basis Set: CC-PVDZ
    Blend: CC-PVDZ
  Basis Set: (CC-PVDZ AUX)
    Blend: CC-PVDZ-JKFIT
  Charge       = 1
  Multiplicity = 1
  Basis Set: CC-PVDZ
    Blend: CC-PVDZ
  Basis Set: (CC-PVDZ AUX)
    Blend: CC-PVDZ-JKFIT

    Orbital Energies [Eh]
    ---------------------

    Alpha Occupied:

       1A1  -115.284773     2A1   -56.384242     3A1   -11.320973
       4A1    -8.871612     1B1    -8.870360     1B2    -8.870360
       5A1    -4.454875     2B1    -3.006996     2B2    -3.006996
       6A1    -3.006831     7A1    -1.148274     8A1    -0.622417
       3B1    -0.601512     3B2    -0.601512     9A1    -0.553156

    Alpha Virtual:

       4B2    -0.301177     4B1    -0.301177    10A1    -0.289067
      11A1    -0.035032    12A1     0.003164     5B1     0.014998
       5B2     0.014998     6B2     0.028386     6B1     0.028386
       1A2     0.031944    13A1     0.031944    14A1     0.057262
       7B1     0.434546     7B2     0.434546    15A1     0.468507
      16A1     0.641712     8B2     0.656057     8B1     0.656057
      17A1     0.656175     2A2     0.656189    18A1     0.767645

    Beta Occupied:

       1A1  -115.284773     2A1   -56.384242     3A1   -11.320973
       4A1    -8.871612     1B1    -8.870360     1B2    -8.870360
       5A1    -4.454875     2B1    -3.006996     2B2    -3.006996
       6A1    -3.006831     7A1    -1.148274     8A1    -0.622417
       3B1    -0.601512     3B2    -0.601512     9A1    -0.553156

    Beta Virtual:

       4B2    -0.301177     4B1    -0.301177    10A1    -0.289067
      11A1    -0.035032    12A1     0.003164     5B2     0.014998
       5B1     0.014998     6B2     0.028386     6B1     0.028386
       1A2     0.031944    13A1     0.031944    14A1     0.057262
       7B1     0.434546     7B2     0.434546    15A1     0.468507
      16A1     0.641712     8B2     0.656057     8B1     0.656057
      17A1     0.656175     2A2     0.656189    18A1     0.767645

    Final Occupation by Irrep:
             A1    A2    B1    B2
    DOCC [     9,    0,    3,    3 ]
    SOCC [     0,    0,    0,    0 ]
    NA   [     9,    0,    3,    3 ]
    NB   [     9,    0,    3,    3 ]

  @DF-UKS Final Energy:  -769.70792627362539

   => Energetics <=

    Nuclear Repulsion Energy =             39.4791637655584751
    One-Electron Energy =               -1136.9407193871838899
    Two-Electron Energy =                 367.4306709461334322
    DFT Exchange-Correlation Energy =     -39.6770415981334565
    Empirical Dispersion Energy =           0.0000000000000000
    VV10 Nonlocal Energy =                  0.0000000000000000
    Total Energy =                       -769.7079262736253895

  UHF NO Occupations:
  HONO-2 :    7 A1 2.0000000
  HONO-1 :    8 A1 2.0000000
  HONO-0 :    9 A1 2.0000000
  LUNO+0 :   10 A1 0.0000000
  LUNO+1 :   11 A1 0.0000000
  LUNO+2 :    4 B1 0.0000000
  LUNO+3 :    4 B2 0.0000000

Computation Completed

Properties will be evaluated at   0.000000,   0.000000,   0.000000 [a0]

Properties computed using the SCF density matrix

 Multipole Moments:

 ------------------------------------------------------------------------------------
     Multipole            Electronic (a.u.)      Nuclear  (a.u.)        Total (a.u.)
 ------------------------------------------------------------------------------------

 L = 1.  Multiply by 2.5417464519 to convert [e a0] to [Debye]
 Dipole X            :          0.0000000            0.0000000            0.0000000
 Dipole Y            :          0.0000000            0.0000000            0.0000000
 Dipole Z            :          0.0443332            2.9964656            3.0407989
 Magnitude           :                                                    3.0407989

 ------------------------------------------------------------------------------------

*** tstop() called on Joses-MacBook-Pro-2.local at Thu Jul 17 15:35:40 2025
Module time:
	user time   =       6.70 seconds =       0.11 minutes
	system time =       1.88 seconds =       0.03 minutes
	total time  =          1 seconds =       0.02 minutes
Total time:
	user time   =     215.85 seconds =       3.60 minutes
	system time =      54.42 seconds =       0.91 minutes
	total time  =         25 seconds =       0.42 minutes

*** tstart() called on Joses-MacBook-Pro-2.local
*** at Thu Jul 17 15:35:40 2025

         ------------------------------------------------------------
                                   SCF GRAD
                          Rob Parrish, Justin Turney,
                       Andy Simmonett, and Alex Sokolov
         ------------------------------------------------------------

  ==> Geometry <==

    Molecular point group: c2v
    Full point group: C_inf_v

    Geometry (in Angstrom), charge = 1, multiplicity = 1:

       Center              X                  Y                   Z               Mass
    ------------   -----------------  -----------------  -----------------  -----------------
         AL           0.000000000000     0.000000000000     1.872359652911    26.981538530000
         AR           0.000000000000     0.000000000000    -1.264167453694    39.962383123700

  Nuclear repulsion =   39.479163765558475

  ==> Basis Set <==

  Basis Set: CC-PVDZ
    Blend: CC-PVDZ
    Number of shells: 16
    Number of basis functions: 36
    Number of Cartesian functions: 38
    Spherical Harmonics?: true
    Max angular momentum: 2

  ==> DFJKGrad: Density-Fitted SCF Gradients <==

    Gradient:                    1
    J tasked:                  Yes
    K tasked:                  Yes
    wK tasked:                  No
    OpenMP threads:              1
    Integrals threads:           1
    Memory [MiB]:              375
    Schwarz Cutoff:          1E-12
    Fitting Condition:       1E-10

   => Auxiliary Basis Set <=

  Basis Set: (CC-PVDZ AUX)
    Blend: CC-PVDZ-JKFIT
    Number of shells: 72
    Number of basis functions: 224
    Number of Cartesian functions: 260
    Spherical Harmonics?: true
    Max angular momentum: 3

  ==> DFT Potential <==

   => LibXC <=

    Version 6.2.2
    S. Lehtola, C. Steigemann, M. J.T. Oliveira, and M. A.L. Marques.,  SoftwareX 7, 1â€“5 (2018) (10.1016/j.softx.2017.11.002)

   => Composite Functional: B3LYP <=

    B3LYP Hyb-GGA Exchange-Correlation Functional

    P. J. Stephens, F. J. Devlin, C. F. Chabalowski, and M. J. Frisch.,  J. Phys. Chem. 98, 11623 (1994) (10.1021/j100096a001)

    Deriv               =              1
    GGA                 =           TRUE
    Meta                =          FALSE

    Exchange Hybrid     =           TRUE
    MP2 Hybrid          =          FALSE

   => Exchange Functionals <=

    0.0800   Slater exchange
    0.7200         Becke 88

   => Exact (HF) Exchange <=

    0.2000               HF

   => Correlation Functionals <=

    0.1900   Vosko, Wilk & Nusair (VWN5_RPA)
    0.8100   Lee, Yang & Parr

   => LibXC Density Thresholds  <==

    XC_HYB_GGA_XC_B3LYP:  1.00E-15

   => Molecular Quadrature <=

    Radial Scheme          =       TREUTLER
    Pruning Scheme         =           NONE
    Nuclear Scheme         =       TREUTLER

    Blocking Scheme        =         OCTREE
    BS radius alpha        =              1
    Pruning alpha          =              1
    Radial Points          =             75
    Spherical Points       =            302
    Total Points           =          42743
    Total Blocks           =            411
    Max Points             =            253
    Max Functions          =             36
    Weights Tolerance      =       1.00E-15

  -Total Gradient:
     Atom            X                  Y                   Z
    ------   -----------------  -----------------  -----------------
       1        0.000000000000     0.000000000000    -0.000008785880
       2        0.000000000000     0.000000000000     0.000030231386

*** tstop() called on Joses-MacBook-Pro-2.local at Thu Jul 17 15:35:40 2025
Module time:
	user time   =       2.61 seconds =       0.04 minutes
	system time =       0.75 seconds =       0.01 minutes
	total time  =          0 seconds =       0.00 minutes
Total time:
	user time   =     218.46 seconds =       3.64 minutes
	system time =      55.18 seconds =       0.92 minutes
	total time  =         25 seconds =       0.42 minutes

    			-----------------------------------------

    			 OPTKING 3.0: for geometry optimizations

    			     By R.A. King, Bethel University

    			        with contributions from

    			    A.V. Copan, J. Cayton, A. Heide

    			-----------------------------------------

	                            ===> Fragment 1 <==

	 Z (Atomic Numbers)          Masses                          Geom
	      13.000000            26.981539          0.00000000  0.00000000  3.53824695
	      18.000000            39.962383          0.00000000  0.00000000 -2.38893026

	 - Coordinate -           - BOHR/RAD -       - ANG/DEG -
	 R(1,2)           =         5.927177           3.136527

	        --- Internal Coordinate Step in ANG or DEG, aJ/ANG or AJ/DEG ---
	-------------------------------------------------------------------------------
	           Coordinate      Previous         Force          Change          New
	           ----------      --------        ------          ------        ------
	               R(1,2)       3.13653        0.00016        0.00176       3.13828
	-------------------------------------------------------------------------------

	                                 ==> Convergence Check <==

	Measures of convergence in internal coordinates in au.

	Criteria marked as inactive (o), active & met (*), and active & unmet ( ).

	----------------------------------------------------------------------------------------------
	   Step    Total Energy     Delta E     Max Force     RMS Force      Max Disp      RMS Disp
	----------------------------------------------------------------------------------------------
	  Convergence Criteria     1.00e-06 *    3.00e-04 *             o    1.20e-03 *             o
	----------------------------------------------------------------------------------------------
	    19    -769.70792627   -1.76e-07 *    1.95e-05 *    1.95e-05 o    3.32e-03      3.32e-03 o  ~
	----------------------------------------------------------------------------------------------

Next Geometry in Ang
	Fragment 1 (Ang)

	   Al   0.0000000000   0.0000000000   1.8732375947
	   Ar   0.0000000000   0.0000000000  -1.2650453955

    Final optimized geometry and variables:
    Molecular point group: c2v
    Full point group: C_inf_v

    Geometry (in Angstrom), charge = 1, multiplicity = 1:

    AL           0.000000000000     0.000000000000     1.872359652911
    AR           0.000000000000     0.000000000000    -1.264167453694

    Psi4 stopped on: Thursday, 17 July 2025 03:35PM
    Psi4 wall time for execution: 0:00:26.59

*** Psi4 exiting successfully. Buy a developer a beer!
