                               Psi4 1.9.1 release

  ==> Input File <==

--------------------------------------------------------------------------
molecule {
1 1
F   0.00000        0.60000        0.00000
Mg   0.00000       -0.60000        0.00000
}

set {
basis              cc-pvdz
reference          uks
maxiter            500
geom_maxiter       500
DAMPING_PERCENTAGE 1
guess              SAP
}

optimize('b3lyp')
--------------------------------------------------------------------------

    Molecular point group: c2v
  Charge       = 1
  Multiplicity = 1
  Basis Set: CC-PVDZ
    Blend: CC-PVDZ
  Basis Set: (CC-PVDZ AUX)
    Blend: CC-PVDZ-JKFIT + DEF2-UNIVERSAL-JKFIT
  @DF-UKS Final Energy:  -299.31168437049416
    Total Energy =                       -299.3116843704941061
 Dipole X            :          0.0000000            0.0000000            0.0000000
 Dipole Y            :          0.0000000            0.0000000            0.0000000
 Dipole Z            :         -2.1115100           -0.6391737           -2.7506837
 Magnitude           :                                                    2.7506837
    Molecular point group: c2v
  Basis Set: CC-PVDZ
    Blend: CC-PVDZ
  Basis Set: (CC-PVDZ AUX)
    Blend: CC-PVDZ-JKFIT + DEF2-UNIVERSAL-JKFIT
  Basis Set: CC-PVDZ
    Blend: CC-PVDZ
  Basis Set: (CC-PVDZ AUX)
    Blend: CC-PVDZ-JKFIT + DEF2-UNIVERSAL-JKFIT
  @DF-UKS Final Energy:  -299.54069979645135
    Total Energy =                       -299.5406997964512925
  Basis Set: CC-PVDZ
    Blend: CC-PVDZ
  Basis Set: (CC-PVDZ AUX)
    Blend: CC-PVDZ-JKFIT + DEF2-UNIVERSAL-JKFIT
  Basis Set: CC-PVDZ
    Blend: CC-PVDZ
  @DF-UKS Final Energy:  -299.62572676814420
    Total Energy =                       -299.6257267681442613
  @DF-UKS Final Energy:  -299.65447251168189
    Total Energy =                       -299.6544725116818881
  @DF-UKS Final Energy:  -299.67080299492051
    Total Energy =                       -299.6708029949205070
  @DF-UKS Final Energy:  -299.67594917958513
    Total Energy =                       -299.6759491795850749
  @DF-UKS Final Energy:  -299.67829393579200
    Total Energy =                       -299.6782939357919986
  @DF-UKS Final Energy:  -299.67883934709226
    Total Energy =                       -299.6788393470922642
  @DF-UKS Final Energy:  -299.67899482190984
    Total Energy =                       -299.6789948219098392
  Basis Set: (CC-PVDZ AUX)
    Blend: CC-PVDZ-JKFIT + DEF2-UNIVERSAL-JKFIT
  Basis Set: CC-PVDZ
    Blend: CC-PVDZ
  Basis Set: (CC-PVDZ AUX)
    Blend: CC-PVDZ-JKFIT + DEF2-UNIVERSAL-JKFIT
  @DF-UKS Final Energy:  -299.67902142911385
    Total Energy =                       -299.6790214291138454
  Basis Set: CC-PVDZ
    Blend: CC-PVDZ
  Basis Set: (CC-PVDZ AUX)
    Blend: CC-PVDZ-JKFIT + DEF2-UNIVERSAL-JKFIT
  Charge       = 1
  Multiplicity = 1
  Basis Set: CC-PVDZ
    Blend: CC-PVDZ
  Basis Set: (CC-PVDZ AUX)
    Blend: CC-PVDZ-JKFIT + DEF2-UNIVERSAL-JKFIT

    Orbital Energies [Eh]
    ---------------------

    Alpha Occupied:

       1A1   -47.199913     2A1   -24.831102     3A1    -3.474005
       1B2    -2.218123     1B1    -2.218123     4A1    -2.215765
       5A1    -1.291866     6A1    -0.585019     2B1    -0.556502
       2B2    -0.556502

    Alpha Virtual:

       7A1    -0.383844     3B2    -0.230469     3B1    -0.230469
       8A1    -0.165948     9A1    -0.085453     4B2    -0.031110
       4B1    -0.031110    10A1     0.014048     1A2     0.062482
      11A1     0.062482     5B1     0.116586     5B2     0.116586
      12A1     0.282542     6B2     1.114082     6B1     1.114082
      13A1     1.132316    14A1     2.094885    15A1     3.419053
       2A2     3.429883    16A1     3.430116     7B1     3.447935
       7B2     3.447935

    Beta Occupied:

       1A1   -47.199913     2A1   -24.831102     3A1    -3.474005
       1B2    -2.218123     1B1    -2.218123     4A1    -2.215765
       5A1    -1.291866     6A1    -0.585019     2B1    -0.556502
       2B2    -0.556502

    Beta Virtual:

       7A1    -0.383844     3B2    -0.230469     3B1    -0.230469
       8A1    -0.165948     9A1    -0.085453     4B2    -0.031110
       4B1    -0.031110    10A1     0.014048     1A2     0.062482
      11A1     0.062482     5B1     0.116586     5B2     0.116586
      12A1     0.282542     6B2     1.114082     6B1     1.114082
      13A1     1.132316    14A1     2.094885    15A1     3.419053
       2A2     3.429883    16A1     3.430116     7B1     3.447935
       7B2     3.447935

    Final Occupation by Irrep:
             A1    A2    B1    B2
    DOCC [     6,    0,    2,    2 ]
    SOCC [     0,    0,    0,    0 ]
    NA   [     6,    0,    2,    2 ]
    NB   [     6,    0,    2,    2 ]

  @DF-UKS Final Energy:  -299.67902318867192

   => Energetics <=

    Nuclear Repulsion Energy =             33.1966154402421765
    One-Electron Energy =                -479.9871195439569647
    Two-Electron Energy =                 168.7431767043433979
    DFT Exchange-Correlation Energy =     -21.6316957893005366
    Empirical Dispersion Energy =           0.0000000000000000
    VV10 Nonlocal Energy =                  0.0000000000000000
    Total Energy =                       -299.6790231886719198

  UHF NO Occupations:
  HONO-2 :    4 A1 2.0000000
  HONO-1 :    5 A1 2.0000000
  HONO-0 :    6 A1 2.0000000
  LUNO+0 :    7 A1 0.0000000
  LUNO+1 :    8 A1 0.0000000
  LUNO+2 :    9 A1 0.0000000
  LUNO+3 :    3 B1 0.0000000

Computation Completed

Properties will be evaluated at   0.000000,   0.000000,   0.000000 [a0]

Properties computed using the SCF density matrix

 Multipole Moments:

 ------------------------------------------------------------------------------------
     Multipole            Electronic (a.u.)      Nuclear  (a.u.)        Total (a.u.)
 ------------------------------------------------------------------------------------

 L = 1.  Multiply by 2.5417464519 to convert [e a0] to [Debye]
 Dipole X            :          0.0000000            0.0000000            0.0000000
 Dipole Y            :          0.0000000            0.0000000            0.0000000
 Dipole Z            :         -2.6454947           -0.9169987           -3.5624934
 Magnitude           :                                                    3.5624934

 ------------------------------------------------------------------------------------

*** tstop() called on Joses-MacBook-Pro-2.local at Thu Jul 17 14:26:25 2025
Module time:
	user time   =       2.92 seconds =       0.05 minutes
	system time =       3.45 seconds =       0.06 minutes
	total time  =          0 seconds =       0.00 minutes
Total time:
	user time   =      54.41 seconds =       0.91 minutes
	system time =      53.31 seconds =       0.89 minutes
	total time  =         10 seconds =       0.17 minutes

*** tstart() called on Joses-MacBook-Pro-2.local
*** at Thu Jul 17 14:26:25 2025

         ------------------------------------------------------------
                                   SCF GRAD
                          Rob Parrish, Justin Turney,
                       Andy Simmonett, and Alex Sokolov
         ------------------------------------------------------------

  ==> Geometry <==

    Molecular point group: c2v
    Full point group: C_inf_v

    Geometry (in Angstrom), charge = 1, multiplicity = 1:

       Center              X                  Y                   Z               Mass
    ------------   -----------------  -----------------  -----------------  -----------------
         F            0.000000000000     0.000000000000     0.960661398164    18.998403162730
         MG           0.000000000000     0.000000000000    -0.760933951074    23.985041697000

  Nuclear repulsion =   33.196615440242176

  ==> Basis Set <==

  Basis Set: CC-PVDZ
    Blend: CC-PVDZ
    Number of shells: 14
    Number of basis functions: 32
    Number of Cartesian functions: 34
    Spherical Harmonics?: true
    Max angular momentum: 2

  ==> DFJKGrad: Density-Fitted SCF Gradients <==

    Gradient:                    1
    J tasked:                  Yes
    K tasked:                  Yes
    wK tasked:                  No
    OpenMP threads:              1
    Integrals threads:           1
    Memory [MiB]:              375
    Schwarz Cutoff:          1E-12
    Fitting Condition:       1E-10

   => Auxiliary Basis Set <=

  Basis Set: (CC-PVDZ AUX)
    Blend: CC-PVDZ-JKFIT + DEF2-UNIVERSAL-JKFIT
    Number of shells: 58
    Number of basis functions: 182
    Number of Cartesian functions: 218
    Spherical Harmonics?: true
    Max angular momentum: 4

  ==> DFT Potential <==

   => LibXC <=

    Version 6.2.2
    S. Lehtola, C. Steigemann, M. J.T. Oliveira, and M. A.L. Marques.,  SoftwareX 7, 1â€“5 (2018) (10.1016/j.softx.2017.11.002)

   => Composite Functional: B3LYP <=

    B3LYP Hyb-GGA Exchange-Correlation Functional

    P. J. Stephens, F. J. Devlin, C. F. Chabalowski, and M. J. Frisch.,  J. Phys. Chem. 98, 11623 (1994) (10.1021/j100096a001)

    Deriv               =              1
    GGA                 =           TRUE
    Meta                =          FALSE

    Exchange Hybrid     =           TRUE
    MP2 Hybrid          =          FALSE

   => Exchange Functionals <=

    0.0800   Slater exchange
    0.7200         Becke 88

   => Exact (HF) Exchange <=

    0.2000               HF

   => Correlation Functionals <=

    0.1900   Vosko, Wilk & Nusair (VWN5_RPA)
    0.8100   Lee, Yang & Parr

   => LibXC Density Thresholds  <==

    XC_HYB_GGA_XC_B3LYP:  1.00E-15

   => Molecular Quadrature <=

    Radial Scheme          =       TREUTLER
    Pruning Scheme         =           NONE
    Nuclear Scheme         =       TREUTLER

    Blocking Scheme        =         OCTREE
    BS radius alpha        =              1
    Pruning alpha          =              1
    Radial Points          =             75
    Spherical Points       =            302
    Total Points           =          43415
    Total Blocks           =            408
    Max Points             =            255
    Max Functions          =             32
    Weights Tolerance      =       1.00E-15

  -Total Gradient:
     Atom            X                  Y                   Z
    ------   -----------------  -----------------  -----------------
       1       -0.000000000000    -0.000000000000    -0.000310380294
       2        0.000000000000     0.000000000000     0.000058848830

*** tstop() called on Joses-MacBook-Pro-2.local at Thu Jul 17 14:26:26 2025
Module time:
	user time   =       0.96 seconds =       0.02 minutes
	system time =       1.63 seconds =       0.03 minutes
	total time  =          1 seconds =       0.02 minutes
Total time:
	user time   =      55.38 seconds =       0.92 minutes
	system time =      54.94 seconds =       0.92 minutes
	total time  =         11 seconds =       0.18 minutes

    			-----------------------------------------

    			 OPTKING 3.0: for geometry optimizations

    			     By R.A. King, Bethel University

    			        with contributions from

    			    A.V. Copan, J. Cayton, A. Heide

    			-----------------------------------------

	                            ===> Fragment 1 <==

	 Z (Atomic Numbers)          Masses                          Geom
	       9.000000            18.998403          0.00000000  0.00000000  1.81538694
	      12.000000            23.985042          0.00000000  0.00000000 -1.43795677

	 - Coordinate -           - BOHR/RAD -       - ANG/DEG -
	 R(1,2)           =         3.253344           1.721595

	        --- Internal Coordinate Step in ANG or DEG, aJ/ANG or AJ/DEG ---
	-------------------------------------------------------------------------------
	           Coordinate      Previous         Force          Change          New
	           ----------      --------        ------          ------        ------
	               R(1,2)       1.72160        0.00152        0.00034       1.72194
	-------------------------------------------------------------------------------

	                                 ==> Convergence Check <==

	Measures of convergence in internal coordinates in au.

	Criteria marked as inactive (o), active & met (*), and active & unmet ( ).

	----------------------------------------------------------------------------------------------
	   Step    Total Energy     Delta E     Max Force     RMS Force      Max Disp      RMS Disp
	----------------------------------------------------------------------------------------------
	  Convergence Criteria     1.00e-06 *    3.00e-04 *             o    1.20e-03 *             o
	----------------------------------------------------------------------------------------------
	    11    -299.67902319   -1.76e-06      1.85e-04 *    1.85e-04 o    6.49e-04 *    6.49e-04 o  ~
	----------------------------------------------------------------------------------------------

Next Geometry in Ang
	Fragment 1 (Ang)

	    F   0.0000000000   0.0000000000   0.9608330257
	   Mg   0.0000000000   0.0000000000  -0.7611055786

    Final optimized geometry and variables:
    Molecular point group: c2v
    Full point group: C_inf_v

    Geometry (in Angstrom), charge = 1, multiplicity = 1:

    F            0.000000000000     0.000000000000     0.960661398164
    MG           0.000000000000     0.000000000000    -0.760933951074

    Psi4 stopped on: Thursday, 17 July 2025 02:26PM
    Psi4 wall time for execution: 0:00:11.56

*** Psi4 exiting successfully. Buy a developer a beer!
