                               Psi4 1.9.1 release

  ==> Input File <==

--------------------------------------------------------------------------
molecule {
1 1
Li   0.00000        0.60000        0.00000
Be   0.00000       -0.60000        0.00000
}

set {
basis              cc-pvdz
reference          uks
maxiter            500
geom_maxiter       500
DAMPING_PERCENTAGE 1
guess              SAP
}

optimize('b3lyp')
--------------------------------------------------------------------------

    Molecular point group: c2v
  Charge       = 1
  Multiplicity = 1
  Basis Set: CC-PVDZ
    Blend: CC-PVDZ
  Basis Set: (CC-PVDZ AUX)
    Blend: DEF2-UNIVERSAL-JKFIT
  @DF-UKS Final Energy:   -21.68318189553665
    Total Energy =                        -21.6831818955366451
 Dipole X            :          0.0000000            0.0000000            0.0000000
 Dipole Y            :          0.0000000            0.0000000            0.0000000
 Dipole Z            :          0.9939575           -0.1453659            0.8485915
 Magnitude           :                                                    0.8485915
    Molecular point group: c2v
  Basis Set: CC-PVDZ
    Blend: CC-PVDZ
  Basis Set: (CC-PVDZ AUX)
    Blend: DEF2-UNIVERSAL-JKFIT
  Basis Set: CC-PVDZ
    Blend: CC-PVDZ
  Basis Set: (CC-PVDZ AUX)
    Blend: DEF2-UNIVERSAL-JKFIT
  @DF-UKS Final Energy:   -21.79927875136946
    Total Energy =                        -21.7992787513694637
  Basis Set: CC-PVDZ
    Blend: CC-PVDZ
  Basis Set: (CC-PVDZ AUX)
    Blend: DEF2-UNIVERSAL-JKFIT
  Basis Set: CC-PVDZ
    Blend: CC-PVDZ
  @DF-UKS Final Energy:   -21.90610735266758
    Total Energy =                        -21.9061073526675862
  @DF-UKS Final Energy:   -21.94537300986361
    Total Energy =                        -21.9453730098636086
  @DF-UKS Final Energy:   -21.96718786074437
    Total Energy =                        -21.9671878607443745
  @DF-UKS Final Energy:   -21.97641479346370
    Total Energy =                        -21.9764147934637037
  @DF-UKS Final Energy:   -21.98006624692930
    Total Energy =                        -21.9800662469292973
  @DF-UKS Final Energy:   -21.98115076631638
    Total Energy =                        -21.9811507663163823
  @DF-UKS Final Energy:   -21.98134320412455
    Total Energy =                        -21.9813432041245527
  Basis Set: (CC-PVDZ AUX)
    Blend: DEF2-UNIVERSAL-JKFIT
  Basis Set: CC-PVDZ
    Blend: CC-PVDZ
  Basis Set: (CC-PVDZ AUX)
    Blend: DEF2-UNIVERSAL-JKFIT
  @DF-UKS Final Energy:   -21.98135592818470
    Total Energy =                        -21.9813559281847049
  Basis Set: CC-PVDZ
    Blend: CC-PVDZ
  Basis Set: (CC-PVDZ AUX)
    Blend: DEF2-UNIVERSAL-JKFIT
  Charge       = 1
  Multiplicity = 1
  Basis Set: CC-PVDZ
    Blend: CC-PVDZ
  Basis Set: (CC-PVDZ AUX)
    Blend: DEF2-UNIVERSAL-JKFIT

    Orbital Energies [Eh]
    ---------------------

    Alpha Occupied:

       1A1    -4.303613     2A1    -2.277230     3A1    -0.440650

    Alpha Virtual:

       4A1    -0.269926     1B2    -0.242033     1B1    -0.242033
       5A1    -0.197019     2B2    -0.146004     2B1    -0.146004
       6A1    -0.093188     3B2    -0.057099     3B1    -0.057099
       7A1    -0.041226     8A1    -0.005346     9A1     0.024912
       4B2     0.051336     4B1     0.051336     1A2     0.069553
      10A1     0.069553     5B2     0.094527     5B1     0.094527
      11A1     0.151899    12A1     0.250570     2A2     0.305866
      13A1     0.305867     6B2     0.410413     6B1     0.410413
      14A1     0.549699

    Beta Occupied:

       1A1    -4.303613     2A1    -2.277230     3A1    -0.440650

    Beta Virtual:

       4A1    -0.269926     1B2    -0.242033     1B1    -0.242033
       5A1    -0.197019     2B2    -0.146004     2B1    -0.146004
       6A1    -0.093188     3B2    -0.057099     3B1    -0.057099
       7A1    -0.041226     8A1    -0.005346     9A1     0.024912
       4B2     0.051336     4B1     0.051336     1A2     0.069553
      10A1     0.069553     5B2     0.094527     5B1     0.094527
      11A1     0.151899    12A1     0.250570     2A2     0.305866
      13A1     0.305867     6B2     0.410413     6B1     0.410413
      14A1     0.549699

    Final Occupation by Irrep:
             A1    A2    B1    B2
    DOCC [     3,    0,    0,    0 ]
    SOCC [     0,    0,    0,    0 ]
    NA   [     3,    0,    0,    0 ]
    NB   [     3,    0,    0,    0 ]

  @DF-UKS Final Energy:   -21.98135679940653

   => Energetics <=

    Nuclear Repulsion Energy =              2.4407777249413356
    One-Electron Energy =                 -32.1862263667248101
    Two-Electron Energy =                  11.3758616296863551
    DFT Exchange-Correlation Energy =      -3.6117697873094086
    Empirical Dispersion Energy =           0.0000000000000000
    VV10 Nonlocal Energy =                  0.0000000000000000
    Total Energy =                        -21.9813567994065302

  UHF NO Occupations:
  HONO-2 :    1 A1 2.0000000
  HONO-1 :    2 A1 2.0000000
  HONO-0 :    3 A1 2.0000000
  LUNO+0 :    4 A1 0.0000000
  LUNO+1 :    5 A1 0.0000000
  LUNO+2 :    6 A1 0.0000000
  LUNO+3 :    7 A1 0.0000000

Computation Completed

Properties will be evaluated at   0.000000,   0.000000,   0.000000 [a0]

Properties computed using the SCF density matrix

 Multipole Moments:

 ------------------------------------------------------------------------------------
     Multipole            Electronic (a.u.)      Nuclear  (a.u.)        Total (a.u.)
 ------------------------------------------------------------------------------------

 L = 1.  Multiply by 2.5417464519 to convert [e a0] to [Debye]
 Dipole X            :          0.0000000            0.0000000            0.0000000
 Dipole Y            :          0.0000000            0.0000000            0.0000000
 Dipole Z            :          1.5720008           -0.3151632            1.2568376
 Magnitude           :                                                    1.2568376

 ------------------------------------------------------------------------------------

*** tstop() called on Joses-MacBook-Pro-2.local at Thu Jul 17 12:43:07 2025
Module time:
	user time   =       0.88 seconds =       0.01 minutes
	system time =       3.40 seconds =       0.06 minutes
	total time  =          1 seconds =       0.02 minutes
Total time:
	user time   =      17.49 seconds =       0.29 minutes
	system time =      50.58 seconds =       0.84 minutes
	total time  =          8 seconds =       0.13 minutes

*** tstart() called on Joses-MacBook-Pro-2.local
*** at Thu Jul 17 12:43:07 2025

         ------------------------------------------------------------
                                   SCF GRAD
                          Rob Parrish, Justin Turney,
                       Andy Simmonett, and Alex Sokolov
         ------------------------------------------------------------

  ==> Geometry <==

    Molecular point group: c2v
    Full point group: C_inf_v

    Geometry (in Angstrom), charge = 1, multiplicity = 1:

       Center              X                  Y                   Z               Mass
    ------------   -----------------  -----------------  -----------------  -----------------
         LI           0.000000000000     0.000000000000     1.462849896932     7.016003436600
         BE           0.000000000000     0.000000000000    -1.138831715921     9.012183065000

  Nuclear repulsion =    2.440777724941336

  ==> Basis Set <==

  Basis Set: CC-PVDZ
    Blend: CC-PVDZ
    Number of shells: 12
    Number of basis functions: 28
    Number of Cartesian functions: 30
    Spherical Harmonics?: true
    Max angular momentum: 2

  ==> DFJKGrad: Density-Fitted SCF Gradients <==

    Gradient:                    1
    J tasked:                  Yes
    K tasked:                  Yes
    wK tasked:                  No
    OpenMP threads:              1
    Integrals threads:           1
    Memory [MiB]:              375
    Schwarz Cutoff:          1E-12
    Fitting Condition:       1E-10

   => Auxiliary Basis Set <=

  Basis Set: (CC-PVDZ AUX)
    Blend: DEF2-UNIVERSAL-JKFIT
    Number of shells: 34
    Number of basis functions: 102
    Number of Cartesian functions: 120
    Spherical Harmonics?: true
    Max angular momentum: 3

  ==> DFT Potential <==

   => LibXC <=

    Version 6.2.2
    S. Lehtola, C. Steigemann, M. J.T. Oliveira, and M. A.L. Marques.,  SoftwareX 7, 1â€“5 (2018) (10.1016/j.softx.2017.11.002)

   => Composite Functional: B3LYP <=

    B3LYP Hyb-GGA Exchange-Correlation Functional

    P. J. Stephens, F. J. Devlin, C. F. Chabalowski, and M. J. Frisch.,  J. Phys. Chem. 98, 11623 (1994) (10.1021/j100096a001)

    Deriv               =              1
    GGA                 =           TRUE
    Meta                =          FALSE

    Exchange Hybrid     =           TRUE
    MP2 Hybrid          =          FALSE

   => Exchange Functionals <=

    0.0800   Slater exchange
    0.7200         Becke 88

   => Exact (HF) Exchange <=

    0.2000               HF

   => Correlation Functionals <=

    0.1900   Vosko, Wilk & Nusair (VWN5_RPA)
    0.8100   Lee, Yang & Parr

   => LibXC Density Thresholds  <==

    XC_HYB_GGA_XC_B3LYP:  1.00E-15

   => Molecular Quadrature <=

    Radial Scheme          =       TREUTLER
    Pruning Scheme         =           NONE
    Nuclear Scheme         =       TREUTLER

    Blocking Scheme        =         OCTREE
    BS radius alpha        =              1
    Pruning alpha          =              1
    Radial Points          =             75
    Spherical Points       =            302
    Total Points           =          44170
    Total Blocks           =            437
    Max Points             =            256
    Max Functions          =             28
    Weights Tolerance      =       1.00E-15

  -Total Gradient:
     Atom            X                  Y                   Z
    ------   -----------------  -----------------  -----------------
       1       -0.000000000000    -0.000000000000    -0.000044090970
       2        0.000000000000     0.000000000000     0.000048479925

*** tstop() called on Joses-MacBook-Pro-2.local at Thu Jul 17 12:43:07 2025
Module time:
	user time   =       0.53 seconds =       0.01 minutes
	system time =       1.07 seconds =       0.02 minutes
	total time  =          0 seconds =       0.00 minutes
Total time:
	user time   =      18.02 seconds =       0.30 minutes
	system time =      51.65 seconds =       0.86 minutes
	total time  =          8 seconds =       0.13 minutes

    			-----------------------------------------

    			 OPTKING 3.0: for geometry optimizations

    			     By R.A. King, Bethel University

    			        with contributions from

    			    A.V. Copan, J. Cayton, A. Heide

    			-----------------------------------------

	                            ===> Fragment 1 <==

	 Z (Atomic Numbers)          Masses                          Geom
	       3.000000             7.016003          0.00000000  0.00000000  2.76438567
	       4.000000             9.012183          0.00000000  0.00000000 -2.15208005

	 - Coordinate -           - BOHR/RAD -       - ANG/DEG -
	 R(1,2)           =         4.916466           2.601682

	        --- Internal Coordinate Step in ANG or DEG, aJ/ANG or AJ/DEG ---
	-------------------------------------------------------------------------------
	           Coordinate      Previous         Force          Change          New
	           ----------      --------        ------          ------        ------
	               R(1,2)       2.60168        0.00038        0.00116       2.60284
	-------------------------------------------------------------------------------

	                                 ==> Convergence Check <==

	Measures of convergence in internal coordinates in au.

	Criteria marked as inactive (o), active & met (*), and active & unmet ( ).

	----------------------------------------------------------------------------------------------
	   Step    Total Energy     Delta E     Max Force     RMS Force      Max Disp      RMS Disp
	----------------------------------------------------------------------------------------------
	  Convergence Criteria     1.00e-06 *    3.00e-04 *             o    1.20e-03 *             o
	----------------------------------------------------------------------------------------------
	    11     -21.98135680   -8.71e-07 *    4.63e-05 *    4.63e-05 o    2.18e-03      2.18e-03 o  ~
	----------------------------------------------------------------------------------------------

Next Geometry in Ang
	Fragment 1 (Ang)

	   Li   0.0000000000   0.0000000000   1.4634274258
	   Be   0.0000000000   0.0000000000  -1.1394092448

    Final optimized geometry and variables:
    Molecular point group: c2v
    Full point group: C_inf_v

    Geometry (in Angstrom), charge = 1, multiplicity = 1:

    LI           0.000000000000     0.000000000000     1.462849896932
    BE           0.000000000000     0.000000000000    -1.138831715921

    Psi4 stopped on: Thursday, 17 July 2025 12:43PM
    Psi4 wall time for execution: 0:00:08.26

*** Psi4 exiting successfully. Buy a developer a beer!
