                               Psi4 1.9.1 release

  ==> Input File <==

--------------------------------------------------------------------------
molecule {
1 1
O   0.00000        0.60000        0.00000
P   0.00000       -0.60000        0.00000
}

set {
basis              cc-pvdz
reference          uks
maxiter            500
geom_maxiter       500
DAMPING_PERCENTAGE 1
guess              SAP
}

optimize('b3lyp')
--------------------------------------------------------------------------

    Molecular point group: c2v
  Charge       = 1
  Multiplicity = 1
  Basis Set: CC-PVDZ
    Blend: CC-PVDZ
  Basis Set: (CC-PVDZ AUX)
    Blend: CC-PVDZ-JKFIT
  @DF-UKS Final Energy:  -416.09252926098344
    Total Energy =                       -416.0925292609834401
 Dipole X            :          0.0000000            0.0000000            0.0000000
 Dipole Y            :          0.0000000            0.0000000            0.0000000
 Dipole Z            :         -1.4680564            0.3797926           -1.0882638
 Magnitude           :                                                    1.0882638
    Molecular point group: c2v
  Basis Set: CC-PVDZ
    Blend: CC-PVDZ
  Basis Set: (CC-PVDZ AUX)
    Blend: CC-PVDZ-JKFIT
  Basis Set: CC-PVDZ
    Blend: CC-PVDZ
  Basis Set: (CC-PVDZ AUX)
    Blend: CC-PVDZ-JKFIT
  @DF-UKS Final Energy:  -416.19489674624043
    Total Energy =                       -416.1948967462404312
  Basis Set: CC-PVDZ
    Blend: CC-PVDZ
  Basis Set: (CC-PVDZ AUX)
    Blend: CC-PVDZ-JKFIT
  Basis Set: CC-PVDZ
    Blend: CC-PVDZ
  @DF-UKS Final Energy:  -416.23017512601331
    Total Energy =                       -416.2301751260132505
  @DF-UKS Final Energy:  -416.23724640183593
    Total Energy =                       -416.2372464018359324
  @DF-UKS Final Energy:  -416.23893674191828
    Total Energy =                       -416.2389367419182804
  @DF-UKS Final Energy:  -416.23938021718135
    Total Energy =                       -416.2393802171813491
  @DF-UKS Final Energy:  -416.23952794146135
    Total Energy =                       -416.2395279414613469
  Basis Set: (CC-PVDZ AUX)
    Blend: CC-PVDZ-JKFIT
  Basis Set: CC-PVDZ
    Blend: CC-PVDZ
  Basis Set: (CC-PVDZ AUX)
    Blend: CC-PVDZ-JKFIT
  @DF-UKS Final Energy:  -416.23954969669103
    Total Energy =                       -416.2395496966910287
  Basis Set: CC-PVDZ
    Blend: CC-PVDZ
  Basis Set: (CC-PVDZ AUX)
    Blend: CC-PVDZ-JKFIT
  Charge       = 1
  Multiplicity = 1
  Basis Set: CC-PVDZ
    Blend: CC-PVDZ
  Basis Set: (CC-PVDZ AUX)
    Blend: CC-PVDZ-JKFIT

    Orbital Energies [Eh]
    ---------------------

    Alpha Occupied:

       1A1   -77.539700     2A1   -19.530664     3A1    -7.001714
       1B1    -5.163721     1B2    -5.163721     4A1    -5.159396
       5A1    -1.372106     6A1    -0.872551     2B1    -0.715995
       2B2    -0.715995     7A1    -0.707859

    Alpha Virtual:

       3B2    -0.424824     3B1    -0.424824     8A1    -0.236244
       9A1     0.057459     4B2     0.110400     4B1     0.110400
       1A2     0.118149    10A1     0.118149    11A1     0.167727
       5B1     0.219070     5B2     0.219070    12A1     0.473995
       6B1     0.699683     6B2     0.699683    13A1     0.788562
      14A1     1.366763    15A1     2.244686     2A2     2.244689
       7B2     2.412151     7B1     2.412151    16A1     2.892826

    Beta Occupied:

       1A1   -77.539700     2A1   -19.530664     3A1    -7.001714
       1B1    -5.163721     1B2    -5.163721     4A1    -5.159396
       5A1    -1.372106     6A1    -0.872551     2B1    -0.715995
       2B2    -0.715995     7A1    -0.707859

    Beta Virtual:

       3B2    -0.424824     3B1    -0.424824     8A1    -0.236244
       9A1     0.057459     4B2     0.110400     4B1     0.110400
       1A2     0.118149    10A1     0.118149    11A1     0.167727
       5B1     0.219070     5B2     0.219070    12A1     0.473995
       6B1     0.699683     6B2     0.699683    13A1     0.788562
      14A1     1.366763    15A1     2.244686     2A2     2.244689
       7B2     2.412151     7B1     2.412151    16A1     2.892826

    Final Occupation by Irrep:
             A1    A2    B1    B2
    DOCC [     7,    0,    2,    2 ]
    SOCC [     0,    0,    0,    0 ]
    NA   [     7,    0,    2,    2 ]
    NB   [     7,    0,    2,    2 ]

  @DF-UKS Final Energy:  -416.23955059557380

   => Energetics <=

    Nuclear Repulsion Energy =             43.7607005305670924
    One-Electron Energy =                -654.0063562380196345
    Two-Electron Energy =                 219.3779446912150206
    DFT Exchange-Correlation Energy =     -25.3718395793362745
    Empirical Dispersion Energy =           0.0000000000000000
    VV10 Nonlocal Energy =                  0.0000000000000000
    Total Energy =                       -416.2395505955738031

  UHF NO Occupations:
  HONO-2 :    1 B1 2.0000000
  HONO-1 :    7 A1 2.0000000
  HONO-0 :    2 B1 2.0000000
  LUNO+0 :    8 A1 0.0000000
  LUNO+1 :    9 A1 0.0000000
  LUNO+2 :    3 B2 0.0000000
  LUNO+3 :    3 B1 0.0000000

Computation Completed

Properties will be evaluated at   0.000000,   0.000000,   0.000000 [a0]

Properties computed using the SCF density matrix

 Multipole Moments:

 ------------------------------------------------------------------------------------
     Multipole            Electronic (a.u.)      Nuclear  (a.u.)        Total (a.u.)
 ------------------------------------------------------------------------------------

 L = 1.  Multiply by 2.5417464519 to convert [e a0] to [Debye]
 Dipole X            :          0.0000000            0.0000000            0.0000000
 Dipole Y            :          0.0000000            0.0000000            0.0000000
 Dipole Z            :         -1.7611934            0.4592650           -1.3019284
 Magnitude           :                                                    1.3019284

 ------------------------------------------------------------------------------------

*** tstop() called on Joses-MacBook-Pro-2.local at Thu Jul 17 14:09:58 2025
Module time:
	user time   =       2.06 seconds =       0.03 minutes
	system time =       3.93 seconds =       0.07 minutes
	total time  =          1 seconds =       0.02 minutes
Total time:
	user time   =      31.58 seconds =       0.53 minutes
	system time =      64.17 seconds =       1.07 minutes
	total time  =         10 seconds =       0.17 minutes

*** tstart() called on Joses-MacBook-Pro-2.local
*** at Thu Jul 17 14:09:58 2025

         ------------------------------------------------------------
                                   SCF GRAD
                          Rob Parrish, Justin Turney,
                       Andy Simmonett, and Alex Sokolov
         ------------------------------------------------------------

  ==> Geometry <==

    Molecular point group: c2v
    Full point group: C_inf_v

    Geometry (in Angstrom), charge = 1, multiplicity = 1:

       Center              X                  Y                   Z               Mass
    ------------   -----------------  -----------------  -----------------  -----------------
         O            0.000000000000     0.000000000000     0.956937880090    15.994914619570
         P            0.000000000000     0.000000000000    -0.494164696205    30.973761998420

  Nuclear repulsion =   43.760700530567092

  ==> Basis Set <==

  Basis Set: CC-PVDZ
    Blend: CC-PVDZ
    Number of shells: 14
    Number of basis functions: 32
    Number of Cartesian functions: 34
    Spherical Harmonics?: true
    Max angular momentum: 2

  ==> DFJKGrad: Density-Fitted SCF Gradients <==

    Gradient:                    1
    J tasked:                  Yes
    K tasked:                  Yes
    wK tasked:                  No
    OpenMP threads:              1
    Integrals threads:           1
    Memory [MiB]:              375
    Schwarz Cutoff:          1E-12
    Fitting Condition:       1E-10

   => Auxiliary Basis Set <=

  Basis Set: (CC-PVDZ AUX)
    Blend: CC-PVDZ-JKFIT
    Number of shells: 60
    Number of basis functions: 182
    Number of Cartesian functions: 211
    Spherical Harmonics?: true
    Max angular momentum: 3

  ==> DFT Potential <==

   => LibXC <=

    Version 6.2.2
    S. Lehtola, C. Steigemann, M. J.T. Oliveira, and M. A.L. Marques.,  SoftwareX 7, 1â€“5 (2018) (10.1016/j.softx.2017.11.002)

   => Composite Functional: B3LYP <=

    B3LYP Hyb-GGA Exchange-Correlation Functional

    P. J. Stephens, F. J. Devlin, C. F. Chabalowski, and M. J. Frisch.,  J. Phys. Chem. 98, 11623 (1994) (10.1021/j100096a001)

    Deriv               =              1
    GGA                 =           TRUE
    Meta                =          FALSE

    Exchange Hybrid     =           TRUE
    MP2 Hybrid          =          FALSE

   => Exchange Functionals <=

    0.0800   Slater exchange
    0.7200         Becke 88

   => Exact (HF) Exchange <=

    0.2000               HF

   => Correlation Functionals <=

    0.1900   Vosko, Wilk & Nusair (VWN5_RPA)
    0.8100   Lee, Yang & Parr

   => LibXC Density Thresholds  <==

    XC_HYB_GGA_XC_B3LYP:  1.00E-15

   => Molecular Quadrature <=

    Radial Scheme          =       TREUTLER
    Pruning Scheme         =           NONE
    Nuclear Scheme         =       TREUTLER

    Blocking Scheme        =         OCTREE
    BS radius alpha        =              1
    Pruning alpha          =              1
    Radial Points          =             75
    Spherical Points       =            302
    Total Points           =          42200
    Total Blocks           =            384
    Max Points             =            254
    Max Functions          =             32
    Weights Tolerance      =       1.00E-15

  -Total Gradient:
     Atom            X                  Y                   Z
    ------   -----------------  -----------------  -----------------
       1        0.000000000000     0.000000000000    -0.000146378639
       2        0.000000000000     0.000000000000     0.000113113950

*** tstop() called on Joses-MacBook-Pro-2.local at Thu Jul 17 14:09:58 2025
Module time:
	user time   =       0.74 seconds =       0.01 minutes
	system time =       1.81 seconds =       0.03 minutes
	total time  =          0 seconds =       0.00 minutes
Total time:
	user time   =      32.32 seconds =       0.54 minutes
	system time =      65.99 seconds =       1.10 minutes
	total time  =         10 seconds =       0.17 minutes

    			-----------------------------------------

    			 OPTKING 3.0: for geometry optimizations

    			     By R.A. King, Bethel University

    			        with contributions from

    			    A.V. Copan, J. Cayton, A. Heide

    			-----------------------------------------

	                            ===> Fragment 1 <==

	 Z (Atomic Numbers)          Masses                          Geom
	       8.000000            15.994915          0.00000000  0.00000000  1.80835051
	      15.000000            30.973762          0.00000000  0.00000000 -0.93383594

	 - Coordinate -           - BOHR/RAD -       - ANG/DEG -
	 R(1,2)           =         2.742186           1.451103

	        --- Internal Coordinate Step in ANG or DEG, aJ/ANG or AJ/DEG ---
	-------------------------------------------------------------------------------
	           Coordinate      Previous         Force          Change          New
	           ----------      --------        ------          ------        ------
	               R(1,2)       1.45110        0.00107        0.00008       1.45119
	-------------------------------------------------------------------------------

	                                 ==> Convergence Check <==

	Measures of convergence in internal coordinates in au.

	Criteria marked as inactive (o), active & met (*), and active & unmet ( ).

	----------------------------------------------------------------------------------------------
	   Step    Total Energy     Delta E     Max Force     RMS Force      Max Disp      RMS Disp
	----------------------------------------------------------------------------------------------
	  Convergence Criteria     1.00e-06 *    3.00e-04 *             o    1.20e-03 *             o
	----------------------------------------------------------------------------------------------
	     9    -416.23955060   -8.99e-07 *    1.30e-04 *    1.30e-04 o    1.58e-04 *    1.58e-04 o  ~
	----------------------------------------------------------------------------------------------

Next Geometry in Ang
	Fragment 1 (Ang)

	    O   0.0000000000   0.0000000000   0.9569797200
	    P   0.0000000000   0.0000000000  -0.4942065361

    Final optimized geometry and variables:
    Molecular point group: c2v
    Full point group: C_inf_v

    Geometry (in Angstrom), charge = 1, multiplicity = 1:

    O            0.000000000000     0.000000000000     0.956937880090
    P            0.000000000000     0.000000000000    -0.494164696205

    Psi4 stopped on: Thursday, 17 July 2025 02:09PM
    Psi4 wall time for execution: 0:00:11.11

*** Psi4 exiting successfully. Buy a developer a beer!
