                               Psi4 1.9.1 release

  ==> Input File <==

--------------------------------------------------------------------------
molecule {
1 1
Li   0.00000        0.60000        0.00000
Ar   0.00000       -0.60000        0.00000
}

set {
basis              cc-pvdz
reference          uks
maxiter            500
geom_maxiter       500
DAMPING_PERCENTAGE 1
guess              SAP
}

optimize('b3lyp')
--------------------------------------------------------------------------

    Molecular point group: c2v
  Charge       = 1
  Multiplicity = 1
  Basis Set: CC-PVDZ
    Blend: CC-PVDZ
  Basis Set: (CC-PVDZ AUX)
    Blend: CC-PVDZ-JKFIT + DEF2-UNIVERSAL-JKFIT
  @DF-UKS Final Energy:  -534.32902961493653
    Total Energy =                       -534.3290296149365304
 Dipole X            :          0.0000000            0.0000000            0.0000000
 Dipole Y            :          0.0000000            0.0000000            0.0000000
 Dipole Z            :          1.9104288           -0.3089754            1.6014534
 Magnitude           :                                                    1.6014534
    Molecular point group: c2v
  Basis Set: CC-PVDZ
    Blend: CC-PVDZ
  Basis Set: (CC-PVDZ AUX)
    Blend: CC-PVDZ-JKFIT + DEF2-UNIVERSAL-JKFIT
  Basis Set: CC-PVDZ
    Blend: CC-PVDZ
  Basis Set: (CC-PVDZ AUX)
    Blend: CC-PVDZ-JKFIT + DEF2-UNIVERSAL-JKFIT
  @DF-UKS Final Energy:  -534.54101355198554
    Total Energy =                       -534.5410135519855430
  Basis Set: CC-PVDZ
    Blend: CC-PVDZ
  Basis Set: (CC-PVDZ AUX)
    Blend: CC-PVDZ-JKFIT + DEF2-UNIVERSAL-JKFIT
  Basis Set: CC-PVDZ
    Blend: CC-PVDZ
  @DF-UKS Final Energy:  -534.68306979678687
    Total Energy =                       -534.6830697967869810
  @DF-UKS Final Energy:  -534.76281154764024
    Total Energy =                       -534.7628115476402400
  @DF-UKS Final Energy:  -534.80225029792712
    Total Energy =                       -534.8022502979271167
  @DF-UKS Final Energy:  -534.82237533297007
    Total Energy =                       -534.8223753329700685
  @DF-UKS Final Energy:  -534.83212570267995
    Total Energy =                       -534.8321257026799458
  @DF-UKS Final Energy:  -534.83640835070889
    Total Energy =                       -534.8364083507088935
  @DF-UKS Final Energy:  -534.83797322764553
    Total Energy =                       -534.8379732276455343
  @DF-UKS Final Energy:  -534.83833395396232
    Total Energy =                       -534.8383339539623194
  @DF-UKS Final Energy:  -534.83844880076970
    Total Energy =                       -534.8384488007698110
  @DF-UKS Final Energy:  -534.83846618752136
    Total Energy =                       -534.8384661875213624
  Basis Set: (CC-PVDZ AUX)
    Blend: CC-PVDZ-JKFIT + DEF2-UNIVERSAL-JKFIT
  Basis Set: CC-PVDZ
    Blend: CC-PVDZ
  Basis Set: (CC-PVDZ AUX)
    Blend: CC-PVDZ-JKFIT + DEF2-UNIVERSAL-JKFIT
  @DF-UKS Final Energy:  -534.83846890301209
    Total Energy =                       -534.8384689030120853
  Basis Set: CC-PVDZ
    Blend: CC-PVDZ
  Basis Set: (CC-PVDZ AUX)
    Blend: CC-PVDZ-JKFIT + DEF2-UNIVERSAL-JKFIT
  Charge       = 1
  Multiplicity = 1
  Basis Set: CC-PVDZ
    Blend: CC-PVDZ
  Basis Set: (CC-PVDZ AUX)
    Blend: CC-PVDZ-JKFIT + DEF2-UNIVERSAL-JKFIT

    Orbital Energies [Eh]
    ---------------------

    Alpha Occupied:

       1A1  -115.323765     2A1   -11.360554     3A1    -8.911395
       1B2    -8.909681     1B1    -8.909681     4A1    -2.328217
       5A1    -1.188783     6A1    -0.657424     2B1    -0.639422
       2B2    -0.639422

    Alpha Virtual:

       7A1    -0.240854     3B1    -0.180458     3B2    -0.180458
       8A1    -0.155641     9A1    -0.065667     4B1    -0.063473
       4B2    -0.063473    10A1    -0.043811     5B2     0.057249
       5B1     0.057249    11A1     0.063243     1A2     0.063255
      12A1     0.114568     6B1     0.445518     6B2     0.445518
      13A1     0.472116     2A2     0.621498    14A1     0.621521
      15A1     0.623075     7B2     0.660927     7B1     0.660927
      16A1     0.973661

    Beta Occupied:

       1A1  -115.323765     2A1   -11.360554     3A1    -8.911395
       1B2    -8.909681     1B1    -8.909681     4A1    -2.328217
       5A1    -1.188783     6A1    -0.657424     2B1    -0.639422
       2B2    -0.639422

    Beta Virtual:

       7A1    -0.240854     3B1    -0.180458     3B2    -0.180458
       8A1    -0.155641     9A1    -0.065667     4B1    -0.063473
       4B2    -0.063473    10A1    -0.043811     5B2     0.057249
       5B1     0.057249    11A1     0.063243     1A2     0.063255
      12A1     0.114568     6B1     0.445518     6B2     0.445518
      13A1     0.472116     2A2     0.621498    14A1     0.621521
      15A1     0.623075     7B2     0.660927     7B1     0.660927
      16A1     0.973661

    Final Occupation by Irrep:
             A1    A2    B1    B2
    DOCC [     6,    0,    2,    2 ]
    SOCC [     0,    0,    0,    0 ]
    NA   [     6,    0,    2,    2 ]
    NB   [     6,    0,    2,    2 ]

  @DF-UKS Final Energy:  -534.83846924065119

   => Energetics <=

    Nuclear Repulsion Energy =             11.5345225409233780
    One-Electron Energy =                -756.3561650371875658
    Two-Electron Energy =                 236.2300490651264795
    DFT Exchange-Correlation Energy =     -26.2468758095135080
    Empirical Dispersion Energy =           0.0000000000000000
    VV10 Nonlocal Energy =                  0.0000000000000000
    Total Energy =                       -534.8384692406511931

  UHF NO Occupations:
  HONO-2 :    4 A1 2.0000000
  HONO-1 :    5 A1 2.0000000
  HONO-0 :    6 A1 2.0000000
  LUNO+0 :    7 A1 0.0000000
  LUNO+1 :    3 B1 0.0000000
  LUNO+2 :    8 A1 0.0000000
  LUNO+3 :    9 A1 0.0000000

Computation Completed

Properties will be evaluated at   0.000000,   0.000000,   0.000000 [a0]

Properties computed using the SCF density matrix

 Multipole Moments:

 ------------------------------------------------------------------------------------
     Multipole            Electronic (a.u.)      Nuclear  (a.u.)        Total (a.u.)
 ------------------------------------------------------------------------------------

 L = 1.  Multiply by 2.5417464519 to convert [e a0] to [Debye]
 Dipole X            :          0.0000000            0.0000000            0.0000000
 Dipole Y            :          0.0000000            0.0000000            0.0000000
 Dipole Z            :          4.1824545           -0.6378784            3.5445760
 Magnitude           :                                                    3.5445760

 ------------------------------------------------------------------------------------

*** tstop() called on Joses-MacBook-Pro-2.local at Thu Jul 17 12:58:20 2025
Module time:
	user time   =       3.97 seconds =       0.07 minutes
	system time =       2.18 seconds =       0.04 minutes
	total time  =          0 seconds =       0.00 minutes
Total time:
	user time   =      57.32 seconds =       0.96 minutes
	system time =      75.61 seconds =       1.26 minutes
	total time  =         13 seconds =       0.22 minutes

*** tstart() called on Joses-MacBook-Pro-2.local
*** at Thu Jul 17 12:58:20 2025

         ------------------------------------------------------------
                                   SCF GRAD
                          Rob Parrish, Justin Turney,
                       Andy Simmonett, and Alex Sokolov
         ------------------------------------------------------------

  ==> Geometry <==

    Molecular point group: c2v
    Full point group: C_inf_v

    Geometry (in Angstrom), charge = 1, multiplicity = 1:

       Center              X                  Y                   Z               Mass
    ------------   -----------------  -----------------  -----------------  -----------------
         LI           0.000000000000     0.000000000000     2.107407651182     7.016003436600
         AR           0.000000000000     0.000000000000    -0.369987427357    39.962383123700

  Nuclear repulsion =   11.534522540923378

  ==> Basis Set <==

  Basis Set: CC-PVDZ
    Blend: CC-PVDZ
    Number of shells: 14
    Number of basis functions: 32
    Number of Cartesian functions: 34
    Spherical Harmonics?: true
    Max angular momentum: 2

  ==> DFJKGrad: Density-Fitted SCF Gradients <==

    Gradient:                    1
    J tasked:                  Yes
    K tasked:                  Yes
    wK tasked:                  No
    OpenMP threads:              1
    Integrals threads:           1
    Memory [MiB]:              375
    Schwarz Cutoff:          1E-12
    Fitting Condition:       1E-10

   => Auxiliary Basis Set <=

  Basis Set: (CC-PVDZ AUX)
    Blend: CC-PVDZ-JKFIT + DEF2-UNIVERSAL-JKFIT
    Number of shells: 53
    Number of basis functions: 163
    Number of Cartesian functions: 190
    Spherical Harmonics?: true
    Max angular momentum: 3

  ==> DFT Potential <==

   => LibXC <=

    Version 6.2.2
    S. Lehtola, C. Steigemann, M. J.T. Oliveira, and M. A.L. Marques.,  SoftwareX 7, 1â€“5 (2018) (10.1016/j.softx.2017.11.002)

   => Composite Functional: B3LYP <=

    B3LYP Hyb-GGA Exchange-Correlation Functional

    P. J. Stephens, F. J. Devlin, C. F. Chabalowski, and M. J. Frisch.,  J. Phys. Chem. 98, 11623 (1994) (10.1021/j100096a001)

    Deriv               =              1
    GGA                 =           TRUE
    Meta                =          FALSE

    Exchange Hybrid     =           TRUE
    MP2 Hybrid          =          FALSE

   => Exchange Functionals <=

    0.0800   Slater exchange
    0.7200         Becke 88

   => Exact (HF) Exchange <=

    0.2000               HF

   => Correlation Functionals <=

    0.1900   Vosko, Wilk & Nusair (VWN5_RPA)
    0.8100   Lee, Yang & Parr

   => LibXC Density Thresholds  <==

    XC_HYB_GGA_XC_B3LYP:  1.00E-15

   => Molecular Quadrature <=

    Radial Scheme          =       TREUTLER
    Pruning Scheme         =           NONE
    Nuclear Scheme         =       TREUTLER

    Blocking Scheme        =         OCTREE
    BS radius alpha        =              1
    Pruning alpha          =              1
    Radial Points          =             75
    Spherical Points       =            302
    Total Points           =          44334
    Total Blocks           =            439
    Max Points             =            254
    Max Functions          =             32
    Weights Tolerance      =       1.00E-15

  -Total Gradient:
     Atom            X                  Y                   Z
    ------   -----------------  -----------------  -----------------
       1        0.000000000000    -0.000000000000     0.000001510850
       2       -0.000000000000     0.000000000000     0.000081199997

*** tstop() called on Joses-MacBook-Pro-2.local at Thu Jul 17 12:58:20 2025
Module time:
	user time   =       0.86 seconds =       0.01 minutes
	system time =       1.97 seconds =       0.03 minutes
	total time  =          0 seconds =       0.00 minutes
Total time:
	user time   =      58.18 seconds =       0.97 minutes
	system time =      77.58 seconds =       1.29 minutes
	total time  =         13 seconds =       0.22 minutes

    			-----------------------------------------

    			 OPTKING 3.0: for geometry optimizations

    			     By R.A. King, Bethel University

    			        with contributions from

    			    A.V. Copan, J. Cayton, A. Heide

    			-----------------------------------------

	                            ===> Fragment 1 <==

	 Z (Atomic Numbers)          Masses                          Geom
	       3.000000             7.016003          0.00000000  0.00000000  3.98242330
	      18.000000            39.962383          0.00000000  0.00000000 -0.69917491

	 - Coordinate -           - BOHR/RAD -       - ANG/DEG -
	 R(1,2)           =         4.681598           2.477395

	        --- Internal Coordinate Step in ANG or DEG, aJ/ANG or AJ/DEG ---
	-------------------------------------------------------------------------------
	           Coordinate      Previous         Force          Change          New
	           ----------      --------        ------          ------        ------
	               R(1,2)       2.47740        0.00033        0.00130       2.47870
	-------------------------------------------------------------------------------

	                                 ==> Convergence Check <==

	Measures of convergence in internal coordinates in au.

	Criteria marked as inactive (o), active & met (*), and active & unmet ( ).

	----------------------------------------------------------------------------------------------
	   Step    Total Energy     Delta E     Max Force     RMS Force      Max Disp      RMS Disp
	----------------------------------------------------------------------------------------------
	  Convergence Criteria     1.00e-06 *    3.00e-04 *             o    1.20e-03 *             o
	----------------------------------------------------------------------------------------------
	    14    -534.83846924   -3.38e-07 *    3.98e-05 *    3.98e-05 o    2.46e-03      2.46e-03 o  ~
	----------------------------------------------------------------------------------------------

Next Geometry in Ang
	Fragment 1 (Ang)

	   Li   0.0000000000   0.0000000000   2.1080587828
	   Ar   0.0000000000   0.0000000000  -0.3706385590

    Final optimized geometry and variables:
    Molecular point group: c2v
    Full point group: C_inf_v

    Geometry (in Angstrom), charge = 1, multiplicity = 1:

    LI           0.000000000000     0.000000000000     2.107407651182
    AR           0.000000000000     0.000000000000    -0.369987427357

    Psi4 stopped on: Thursday, 17 July 2025 12:58PM
    Psi4 wall time for execution: 0:00:13.70

*** Psi4 exiting successfully. Buy a developer a beer!
