                               Psi4 1.9.1 release

  ==> Input File <==

--------------------------------------------------------------------------
molecule {
1 1
Cl   0.00000        0.60000        0.00000
Ar   0.00000       -0.60000        0.00000
}

set {
basis              cc-pvdz
reference          uks
maxiter            500
geom_maxiter       500
DAMPING_PERCENTAGE 1
guess              SAP
}

optimize('b3lyp')
--------------------------------------------------------------------------

    Molecular point group: c2v
  Charge       = 1
  Multiplicity = 1
  Basis Set: CC-PVDZ
    Blend: CC-PVDZ
  Basis Set: (CC-PVDZ AUX)
    Blend: CC-PVDZ-JKFIT
  @DF-UKS Final Energy:  -985.98398324922641
    Total Energy =                       -985.9839832492264122
 Dipole X            :          0.0000000            0.0000000            0.0000000
 Dipole Y            :          0.0000000            0.0000000            0.0000000
 Dipole Z            :         -2.0672172            1.5107824           -0.5564348
 Magnitude           :                                                    0.5564348
    Molecular point group: c2v
  Basis Set: CC-PVDZ
    Blend: CC-PVDZ
  Basis Set: (CC-PVDZ AUX)
    Blend: CC-PVDZ-JKFIT
  Basis Set: CC-PVDZ
    Blend: CC-PVDZ
  Basis Set: (CC-PVDZ AUX)
    Blend: CC-PVDZ-JKFIT
  @DF-UKS Final Energy:  -986.03237598994542
    Total Energy =                       -986.0323759899454217
  Basis Set: CC-PVDZ
    Blend: CC-PVDZ
  Basis Set: (CC-PVDZ AUX)
    Blend: CC-PVDZ-JKFIT
  Basis Set: CC-PVDZ
    Blend: CC-PVDZ
  @DF-UKS Final Energy:  -986.12062982804855
    Total Energy =                       -986.1206298280485498
  @DF-UKS Final Energy:  -986.39597990902826
    Total Energy =                       -986.3959799090282559
  @DF-UKS Final Energy:  -986.87186150306468
    Total Energy =                       -986.8718615030646788
  @DF-UKS Final Energy:  -987.03985425951976
    Total Energy =                       -987.0398542595197569
  @DF-UKS Final Energy:  -987.14923901024179
    Total Energy =                       -987.1492390102417858
  @DF-UKS Final Energy:  -987.19759685135659
    Total Energy =                       -987.1975968513565931
  @DF-UKS Final Energy:  -987.22314393382464
    Total Energy =                       -987.2231439338245309
  @DF-UKS Final Energy:  -987.23586698361919
    Total Energy =                       -987.2358669836191893
  @DF-UKS Final Energy:  -987.24084971582408
    Total Energy =                       -987.2408497158240834
  @DF-UKS Final Energy:  -987.24217961803947
    Total Energy =                       -987.2421796180393585
  @DF-UKS Final Energy:  -987.24266405682590
    Total Energy =                       -987.2426640568259018
  @DF-UKS Final Energy:  -987.24276514204666
    Total Energy =                       -987.2427651420466646
  @DF-UKS Final Energy:  -987.24279102976868
    Total Energy =                       -987.2427910297686822
  Basis Set: (CC-PVDZ AUX)
    Blend: CC-PVDZ-JKFIT
  Basis Set: CC-PVDZ
    Blend: CC-PVDZ
  Basis Set: (CC-PVDZ AUX)
    Blend: CC-PVDZ-JKFIT
  @DF-UKS Final Energy:  -987.24279423638825
    Total Energy =                       -987.2427942363882494
  Basis Set: CC-PVDZ
    Blend: CC-PVDZ
  Basis Set: (CC-PVDZ AUX)
    Blend: CC-PVDZ-JKFIT
  Charge       = 1
  Multiplicity = 1
  Basis Set: CC-PVDZ
    Blend: CC-PVDZ
  Basis Set: (CC-PVDZ AUX)
    Blend: CC-PVDZ-JKFIT

    Orbital Energies [Eh]
    ---------------------

    Alpha Occupied:

       1A1  -115.498924     2A1  -101.932736     3A1   -11.533278
       4A1    -9.843878     5A1    -9.090838     1B2    -9.079177
       1B1    -9.079177     6A1    -7.617002     2B2    -7.591897
       2B1    -7.591897     7A1    -1.362874     8A1    -1.139634
       9A1    -0.835468     3B1    -0.784568     3B2    -0.784568
       4B1    -0.637615     4B2    -0.637615

    Alpha Virtual:

      10A1    -0.518091    11A1     0.199346     5B2     0.217115
       5B1     0.217115    12A1     0.237500     6B2     0.291656
       6B1     0.291656    13A1     0.314814     7B2     0.354365
       7B1     0.354365    14A1     0.406227     1A2     0.406229
      15A1     0.433254    16A1     0.462564    17A1     0.481047
       2A2     0.481052     8B2     0.579094     8B1     0.579094
      18A1     1.067122

    Beta Occupied:

       1A1  -115.498924     2A1  -101.932736     3A1   -11.533278
       4A1    -9.843878     5A1    -9.090838     1B2    -9.079177
       1B1    -9.079177     6A1    -7.617002     2B2    -7.591897
       2B1    -7.591897     7A1    -1.362874     8A1    -1.139634
       9A1    -0.835468     3B1    -0.784568     3B2    -0.784568
       4B1    -0.637615     4B2    -0.637615

    Beta Virtual:

      10A1    -0.518091    11A1     0.199346     5B2     0.217115
       5B1     0.217115    12A1     0.237500     6B2     0.291656
       6B1     0.291656    13A1     0.314814     7B2     0.354365
       7B1     0.354365    14A1     0.406227     1A2     0.406229
      15A1     0.433254    16A1     0.462564    17A1     0.481047
       2A2     0.481052     8B2     0.579094     8B1     0.579094
      18A1     1.067122

    Final Occupation by Irrep:
             A1    A2    B1    B2
    DOCC [     9,    0,    4,    4 ]
    SOCC [     0,    0,    0,    0 ]
    NA   [     9,    0,    4,    4 ]
    NB   [     9,    0,    4,    4 ]

  @DF-UKS Final Energy:  -987.24279436474126

   => Energetics <=

    Nuclear Repulsion Energy =             76.3960174893426398
    One-Electron Energy =               -1503.5748005446243951
    Two-Electron Energy =                 487.2700392272840304
    DFT Exchange-Correlation Energy =     -47.3340505367437174
    Empirical Dispersion Energy =           0.0000000000000000
    VV10 Nonlocal Energy =                  0.0000000000000000
    Total Energy =                       -987.2427943647412576

  UHF NO Occupations:
  HONO-2 :    8 A1 2.0000000
  HONO-1 :    9 A1 2.0000000
  HONO-0 :    4 B1 2.0000000
  LUNO+0 :   10 A1 0.0000000
  LUNO+1 :   11 A1 0.0000000
  LUNO+2 :    5 B1 0.0000000
  LUNO+3 :   12 A1 0.0000000

Computation Completed

Properties will be evaluated at   0.000000,   0.000000,   0.000000 [a0]

Properties computed using the SCF density matrix

 Multipole Moments:

 ------------------------------------------------------------------------------------
     Multipole            Electronic (a.u.)      Nuclear  (a.u.)        Total (a.u.)
 ------------------------------------------------------------------------------------

 L = 1.  Multiply by 2.5417464519 to convert [e a0] to [Debye]
 Dipole X            :          0.0000000            0.0000000            0.0000000
 Dipole Y            :          0.0000000            0.0000000            0.0000000
 Dipole Z            :         -2.7355220            2.6685327           -0.0669894
 Magnitude           :                                                    0.0669894

 ------------------------------------------------------------------------------------

*** tstop() called on Joses-MacBook-Pro-2.local at Thu Jul 17 16:01:09 2025
Module time:
	user time   =       6.68 seconds =       0.11 minutes
	system time =       1.60 seconds =       0.03 minutes
	total time  =          1 seconds =       0.02 minutes
Total time:
	user time   =     189.00 seconds =       3.15 minutes
	system time =      51.48 seconds =       0.86 minutes
	total time  =         23 seconds =       0.38 minutes

*** tstart() called on Joses-MacBook-Pro-2.local
*** at Thu Jul 17 16:01:09 2025

         ------------------------------------------------------------
                                   SCF GRAD
                          Rob Parrish, Justin Turney,
                       Andy Simmonett, and Alex Sokolov
         ------------------------------------------------------------

  ==> Geometry <==

    Molecular point group: c2v
    Full point group: C_inf_v

    Geometry (in Angstrom), charge = 1, multiplicity = 1:

       Center              X                  Y                   Z               Mass
    ------------   -----------------  -----------------  -----------------  -----------------
         CL           0.000000000000     0.000000000000     1.130421277874    34.968852682000
         AR           0.000000000000     0.000000000000    -0.989168614199    39.962383123700

  Nuclear repulsion =   76.396017489342640

  ==> Basis Set <==

  Basis Set: CC-PVDZ
    Blend: CC-PVDZ
    Number of shells: 16
    Number of basis functions: 36
    Number of Cartesian functions: 38
    Spherical Harmonics?: true
    Max angular momentum: 2

  ==> DFJKGrad: Density-Fitted SCF Gradients <==

    Gradient:                    1
    J tasked:                  Yes
    K tasked:                  Yes
    wK tasked:                  No
    OpenMP threads:              1
    Integrals threads:           1
    Memory [MiB]:              375
    Schwarz Cutoff:          1E-12
    Fitting Condition:       1E-10

   => Auxiliary Basis Set <=

  Basis Set: (CC-PVDZ AUX)
    Blend: CC-PVDZ-JKFIT
    Number of shells: 72
    Number of basis functions: 224
    Number of Cartesian functions: 260
    Spherical Harmonics?: true
    Max angular momentum: 3

  ==> DFT Potential <==

   => LibXC <=

    Version 6.2.2
    S. Lehtola, C. Steigemann, M. J.T. Oliveira, and M. A.L. Marques.,  SoftwareX 7, 1â€“5 (2018) (10.1016/j.softx.2017.11.002)

   => Composite Functional: B3LYP <=

    B3LYP Hyb-GGA Exchange-Correlation Functional

    P. J. Stephens, F. J. Devlin, C. F. Chabalowski, and M. J. Frisch.,  J. Phys. Chem. 98, 11623 (1994) (10.1021/j100096a001)

    Deriv               =              1
    GGA                 =           TRUE
    Meta                =          FALSE

    Exchange Hybrid     =           TRUE
    MP2 Hybrid          =          FALSE

   => Exchange Functionals <=

    0.0800   Slater exchange
    0.7200         Becke 88

   => Exact (HF) Exchange <=

    0.2000               HF

   => Correlation Functionals <=

    0.1900   Vosko, Wilk & Nusair (VWN5_RPA)
    0.8100   Lee, Yang & Parr

   => LibXC Density Thresholds  <==

    XC_HYB_GGA_XC_B3LYP:  1.00E-15

   => Molecular Quadrature <=

    Radial Scheme          =       TREUTLER
    Pruning Scheme         =           NONE
    Nuclear Scheme         =       TREUTLER

    Blocking Scheme        =         OCTREE
    BS radius alpha        =              1
    Pruning alpha          =              1
    Radial Points          =             75
    Spherical Points       =            302
    Total Points           =          39662
    Total Blocks           =            356
    Max Points             =            251
    Max Functions          =             36
    Weights Tolerance      =       1.00E-15

  -Total Gradient:
     Atom            X                  Y                   Z
    ------   -----------------  -----------------  -----------------
       1        0.000000000000     0.000000000000    -0.000022433455
       2       -0.000000000000     0.000000000000     0.000025745911

*** tstop() called on Joses-MacBook-Pro-2.local at Thu Jul 17 16:01:09 2025
Module time:
	user time   =       2.54 seconds =       0.04 minutes
	system time =       0.92 seconds =       0.02 minutes
	total time  =          0 seconds =       0.00 minutes
Total time:
	user time   =     191.55 seconds =       3.19 minutes
	system time =      52.41 seconds =       0.87 minutes
	total time  =         23 seconds =       0.38 minutes

    			-----------------------------------------

    			 OPTKING 3.0: for geometry optimizations

    			     By R.A. King, Bethel University

    			        with contributions from

    			    A.V. Copan, J. Cayton, A. Heide

    			-----------------------------------------

	                            ===> Fragment 1 <==

	 Z (Atomic Numbers)          Masses                          Geom
	      17.000000            34.968853          0.00000000  0.00000000  2.13618662
	      18.000000            39.962383          0.00000000  0.00000000 -1.86925777

	 - Coordinate -           - BOHR/RAD -       - ANG/DEG -
	 R(1,2)           =         4.005444           2.119590

	        --- Internal Coordinate Step in ANG or DEG, aJ/ANG or AJ/DEG ---
	-------------------------------------------------------------------------------
	           Coordinate      Previous         Force          Change          New
	           ----------      --------        ------          ------        ------
	               R(1,2)       2.11959        0.00020        0.00011       2.11970
	-------------------------------------------------------------------------------

	                                 ==> Convergence Check <==

	Measures of convergence in internal coordinates in au.

	Criteria marked as inactive (o), active & met (*), and active & unmet ( ).

	----------------------------------------------------------------------------------------------
	   Step    Total Energy     Delta E     Max Force     RMS Force      Max Disp      RMS Disp
	----------------------------------------------------------------------------------------------
	  Convergence Criteria     1.00e-06 *    3.00e-04 *             o    1.20e-03 *             o
	----------------------------------------------------------------------------------------------
	    17    -987.24279436   -1.28e-07 *    2.41e-05 *    2.41e-05 o    2.01e-04 *    2.01e-04 o  ~
	----------------------------------------------------------------------------------------------

Next Geometry in Ang
	Fragment 1 (Ang)

	   Cl   0.0000000000   0.0000000000   1.1304744563
	   Ar   0.0000000000   0.0000000000  -0.9892217926

    Final optimized geometry and variables:
    Molecular point group: c2v
    Full point group: C_inf_v

    Geometry (in Angstrom), charge = 1, multiplicity = 1:

    CL           0.000000000000     0.000000000000     1.130421277874
    AR           0.000000000000     0.000000000000    -0.989168614199

    Psi4 stopped on: Thursday, 17 July 2025 04:01PM
    Psi4 wall time for execution: 0:00:23.67

*** Psi4 exiting successfully. Buy a developer a beer!
