                               Psi4 1.9.1 release

  ==> Input File <==

--------------------------------------------------------------------------
molecule {
1 1
F   0.00000        0.60000        0.00000
S   0.00000       -0.60000        0.00000
}

set {
basis              cc-pvdz
reference          uks
maxiter            500
geom_maxiter       500
DAMPING_PERCENTAGE 1
guess              SAP
}

optimize('b3lyp')
--------------------------------------------------------------------------

    Molecular point group: c2v
  Charge       = 1
  Multiplicity = 1
  Basis Set: CC-PVDZ
    Blend: CC-PVDZ
  Basis Set: (CC-PVDZ AUX)
    Blend: CC-PVDZ-JKFIT
  @DF-UKS Final Energy:  -497.33212958347633
    Total Energy =                       -497.3321295834763305
 Dipole X            :          0.0000000            0.0000000            0.0000000
 Dipole Y            :          0.0000000            0.0000000            0.0000000
 Dipole Z            :          0.4918747           -0.7218847           -0.2300100
 Magnitude           :                                                    0.2300100
    Molecular point group: c2v
  Basis Set: CC-PVDZ
    Blend: CC-PVDZ
  Basis Set: (CC-PVDZ AUX)
    Blend: CC-PVDZ-JKFIT
  Basis Set: CC-PVDZ
    Blend: CC-PVDZ
  Basis Set: (CC-PVDZ AUX)
    Blend: CC-PVDZ-JKFIT
  @DF-UKS Final Energy:  -497.46165576223706
    Total Energy =                       -497.4616557622370578
  Basis Set: CC-PVDZ
    Blend: CC-PVDZ
  Basis Set: (CC-PVDZ AUX)
    Blend: CC-PVDZ-JKFIT
  Basis Set: CC-PVDZ
    Blend: CC-PVDZ
  @DF-UKS Final Energy:  -497.51882946560193
    Total Energy =                       -497.5188294656019252
  @DF-UKS Final Energy:  -497.53424818697340
    Total Energy =                       -497.5342481869734002
  @DF-UKS Final Energy:  -497.53934253712458
    Total Energy =                       -497.5393425371245826
  @DF-UKS Final Energy:  -497.54175173563084
    Total Energy =                       -497.5417517356308394
  @DF-UKS Final Energy:  -497.54233675994442
    Total Energy =                       -497.5423367599444191
  @DF-UKS Final Energy:  -497.54252069745672
    Total Energy =                       -497.5425206974567232
  Basis Set: (CC-PVDZ AUX)
    Blend: CC-PVDZ-JKFIT
  Basis Set: CC-PVDZ
    Blend: CC-PVDZ
  Basis Set: (CC-PVDZ AUX)
    Blend: CC-PVDZ-JKFIT
  @DF-UKS Final Energy:  -497.54254480854581
    Total Energy =                       -497.5425448085458129
  Basis Set: CC-PVDZ
    Blend: CC-PVDZ
  Basis Set: (CC-PVDZ AUX)
    Blend: CC-PVDZ-JKFIT
  Charge       = 1
  Multiplicity = 1
  Basis Set: CC-PVDZ
    Blend: CC-PVDZ
  Basis Set: (CC-PVDZ AUX)
    Blend: CC-PVDZ-JKFIT

    Orbital Energies [Eh]
    ---------------------

    Alpha Occupied:

       1A1   -89.390728     2A1   -25.120582     3A1    -8.437530
       1B2    -6.408155     4A1    -6.403036     1B1    -6.382428
       5A1    -1.614361     6A1    -1.073661     7A1    -0.848676
       2B2    -0.833868     2B1    -0.827244     3B1    -0.598326

    Alpha Virtual:

       3B2    -0.557419     8A1    -0.370754     9A1     0.121766
       4B2     0.140911    10A1     0.160215     4B1     0.165009
       1A2     0.202177    11A1     0.206648     5B2     0.214029
       5B1     0.241571    12A1     0.453889     6B2     0.884945
       6B1     0.897625    13A1     0.910991    14A1     1.759437
       2A2     3.166747    15A1     3.166946     7B2     3.205231
       7B1     3.221304    16A1     3.518455

    Beta Occupied:

       1A1   -89.390728     2A1   -25.120582     3A1    -8.437530
       1B2    -6.408155     4A1    -6.403036     1B1    -6.382428
       5A1    -1.614361     6A1    -1.073661     7A1    -0.848676
       2B2    -0.833868     2B1    -0.827244     3B1    -0.598326

    Beta Virtual:

       3B2    -0.557419     8A1    -0.370754     9A1     0.121766
       4B2     0.140911    10A1     0.160215     4B1     0.165009
       1A2     0.202177    11A1     0.206648     5B2     0.214029
       5B1     0.241571    12A1     0.453889     6B2     0.884945
       6B1     0.897625    13A1     0.910991    14A1     1.759437
       2A2     3.166747    15A1     3.166946     7B2     3.205231
       7B1     3.221304    16A1     3.518455

    Final Occupation by Irrep:
             A1    A2    B1    B2
    DOCC [     7,    0,    3,    2 ]
    SOCC [     0,    0,    0,    0 ]
    NA   [     7,    0,    3,    2 ]
    NB   [     7,    0,    3,    2 ]

  @DF-UKS Final Energy:  -497.54254610096825

   => Energetics <=

    Nuclear Repulsion Energy =             48.8818210408071252
    One-Electron Energy =                -776.4254843015091865
    Two-Electron Energy =                 258.8172452600708198
    DFT Exchange-Correlation Energy =     -28.8161281003370462
    Empirical Dispersion Energy =           0.0000000000000000
    VV10 Nonlocal Energy =                  0.0000000000000000
    Total Energy =                       -497.5425461009682522

  UHF NO Occupations:
  HONO-2 :    3 B1 2.0000000
  HONO-1 :    7 A1 2.0000000
  HONO-0 :    2 B2 2.0000000
  LUNO+0 :    8 A1 0.0000000
  LUNO+1 :    4 B1 0.0000000
  LUNO+2 :    9 A1 0.0000000
  LUNO+3 :   10 A1 0.0000000

Computation Completed

Properties will be evaluated at   0.000000,   0.000000,   0.000000 [a0]

Properties computed using the SCF density matrix

 Multipole Moments:

 ------------------------------------------------------------------------------------
     Multipole            Electronic (a.u.)      Nuclear  (a.u.)        Total (a.u.)
 ------------------------------------------------------------------------------------

 L = 1.  Multiply by 2.5417464519 to convert [e a0] to [Debye]
 Dipole X            :          0.0000000            0.0000000            0.0000000
 Dipole Y            :          0.0000000            0.0000000            0.0000000
 Dipole Z            :          0.0099877           -0.9377840           -0.9277963
 Magnitude           :                                                    0.9277963

 ------------------------------------------------------------------------------------

*** tstop() called on Joses-MacBook-Pro-2.local at Thu Jul 17 14:29:47 2025
Module time:
	user time   =       3.06 seconds =       0.05 minutes
	system time =       3.59 seconds =       0.06 minutes
	total time  =          0 seconds =       0.00 minutes
Total time:
	user time   =      44.57 seconds =       0.74 minutes
	system time =      51.68 seconds =       0.86 minutes
	total time  =          9 seconds =       0.15 minutes

*** tstart() called on Joses-MacBook-Pro-2.local
*** at Thu Jul 17 14:29:47 2025

         ------------------------------------------------------------
                                   SCF GRAD
                          Rob Parrish, Justin Turney,
                       Andy Simmonett, and Alex Sokolov
         ------------------------------------------------------------

  ==> Geometry <==

    Molecular point group: c2v
    Full point group: C_inf_v

    Geometry (in Angstrom), charge = 1, multiplicity = 1:

       Center              X                  Y                   Z               Mass
    ------------   -----------------  -----------------  -----------------  -----------------
         F            0.000000000000     0.000000000000     0.977841227753    18.998403162730
         S            0.000000000000     0.000000000000    -0.581051561304    31.972071174400

  Nuclear repulsion =   48.881821040807125

  ==> Basis Set <==

  Basis Set: CC-PVDZ
    Blend: CC-PVDZ
    Number of shells: 14
    Number of basis functions: 32
    Number of Cartesian functions: 34
    Spherical Harmonics?: true
    Max angular momentum: 2

  ==> DFJKGrad: Density-Fitted SCF Gradients <==

    Gradient:                    1
    J tasked:                  Yes
    K tasked:                  Yes
    wK tasked:                  No
    OpenMP threads:              1
    Integrals threads:           1
    Memory [MiB]:              375
    Schwarz Cutoff:          1E-12
    Fitting Condition:       1E-10

   => Auxiliary Basis Set <=

  Basis Set: (CC-PVDZ AUX)
    Blend: CC-PVDZ-JKFIT
    Number of shells: 60
    Number of basis functions: 182
    Number of Cartesian functions: 211
    Spherical Harmonics?: true
    Max angular momentum: 3

  ==> DFT Potential <==

   => LibXC <=

    Version 6.2.2
    S. Lehtola, C. Steigemann, M. J.T. Oliveira, and M. A.L. Marques.,  SoftwareX 7, 1â€“5 (2018) (10.1016/j.softx.2017.11.002)

   => Composite Functional: B3LYP <=

    B3LYP Hyb-GGA Exchange-Correlation Functional

    P. J. Stephens, F. J. Devlin, C. F. Chabalowski, and M. J. Frisch.,  J. Phys. Chem. 98, 11623 (1994) (10.1021/j100096a001)

    Deriv               =              1
    GGA                 =           TRUE
    Meta                =          FALSE

    Exchange Hybrid     =           TRUE
    MP2 Hybrid          =          FALSE

   => Exchange Functionals <=

    0.0800   Slater exchange
    0.7200         Becke 88

   => Exact (HF) Exchange <=

    0.2000               HF

   => Correlation Functionals <=

    0.1900   Vosko, Wilk & Nusair (VWN5_RPA)
    0.8100   Lee, Yang & Parr

   => LibXC Density Thresholds  <==

    XC_HYB_GGA_XC_B3LYP:  1.00E-15

   => Molecular Quadrature <=

    Radial Scheme          =       TREUTLER
    Pruning Scheme         =           NONE
    Nuclear Scheme         =       TREUTLER

    Blocking Scheme        =         OCTREE
    BS radius alpha        =              1
    Pruning alpha          =              1
    Radial Points          =             75
    Spherical Points       =            302
    Total Points           =          42105
    Total Blocks           =            378
    Max Points             =            256
    Max Functions          =             32
    Weights Tolerance      =       1.00E-15

  -Total Gradient:
     Atom            X                  Y                   Z
    ------   -----------------  -----------------  -----------------
       1        0.000000000000     0.000000000000    -0.000213813532
       2        0.000000000000     0.000000000000     0.000149822579

*** tstop() called on Joses-MacBook-Pro-2.local at Thu Jul 17 14:29:48 2025
Module time:
	user time   =       0.70 seconds =       0.01 minutes
	system time =       1.69 seconds =       0.03 minutes
	total time  =          1 seconds =       0.02 minutes
Total time:
	user time   =      45.27 seconds =       0.75 minutes
	system time =      53.39 seconds =       0.89 minutes
	total time  =         10 seconds =       0.17 minutes

    			-----------------------------------------

    			 OPTKING 3.0: for geometry optimizations

    			     By R.A. King, Bethel University

    			        with contributions from

    			    A.V. Copan, J. Cayton, A. Heide

    			-----------------------------------------

	                            ===> Fragment 1 <==

	 Z (Atomic Numbers)          Masses                          Geom
	       9.000000            18.998403          0.00000000  0.00000000  1.84785211
	      16.000000            31.972071          0.00000000  0.00000000 -1.09802832

	 - Coordinate -           - BOHR/RAD -       - ANG/DEG -
	 R(1,2)           =         2.945880           1.558893

	        --- Internal Coordinate Step in ANG or DEG, aJ/ANG or AJ/DEG ---
	-------------------------------------------------------------------------------
	           Coordinate      Previous         Force          Change          New
	           ----------      --------        ------          ------        ------
	               R(1,2)       1.55889        0.00150        0.00021       1.55910
	-------------------------------------------------------------------------------

	                                 ==> Convergence Check <==

	Measures of convergence in internal coordinates in au.

	Criteria marked as inactive (o), active & met (*), and active & unmet ( ).

	----------------------------------------------------------------------------------------------
	   Step    Total Energy     Delta E     Max Force     RMS Force      Max Disp      RMS Disp
	----------------------------------------------------------------------------------------------
	  Convergence Criteria     1.00e-06 *    3.00e-04 *             o    1.20e-03 *             o
	----------------------------------------------------------------------------------------------
	    10    -497.54254610   -1.29e-06      1.82e-04 *    1.82e-04 o    3.89e-04 *    3.89e-04 o  ~
	----------------------------------------------------------------------------------------------

Next Geometry in Ang
	Fragment 1 (Ang)

	    F   0.0000000000   0.0000000000   0.9779441179
	    S   0.0000000000   0.0000000000  -0.5811544514

    Final optimized geometry and variables:
    Molecular point group: c2v
    Full point group: C_inf_v

    Geometry (in Angstrom), charge = 1, multiplicity = 1:

    F            0.000000000000     0.000000000000     0.977841227753
    S            0.000000000000     0.000000000000    -0.581051561304

    Psi4 stopped on: Thursday, 17 July 2025 02:29PM
    Psi4 wall time for execution: 0:00:09.95

*** Psi4 exiting successfully. Buy a developer a beer!
