                               Psi4 1.9.1 release

  ==> Input File <==

--------------------------------------------------------------------------
molecule {
1 1
S   0.00000        0.60000        0.00000
Cl   0.00000       -0.60000        0.00000
}

set {
basis              cc-pvdz
reference          uks
maxiter            500
geom_maxiter       500
DAMPING_PERCENTAGE 1
guess              SAP
}

optimize('b3lyp')
--------------------------------------------------------------------------

    Molecular point group: c2v
  Charge       = 1
  Multiplicity = 1
  Basis Set: CC-PVDZ
    Blend: CC-PVDZ
  Basis Set: (CC-PVDZ AUX)
    Blend: CC-PVDZ-JKFIT
  @DF-UKS Final Energy:  -856.83155632719570
    Total Energy =                       -856.8315563271956989
 Dipole X            :          0.0000000            0.0000000            0.0000000
 Dipole Y            :          0.0000000            0.0000000            0.0000000
 Dipole Z            :         -0.8905387            0.5412130           -0.3493257
 Magnitude           :                                                    0.3493257
    Molecular point group: c2v
  Basis Set: CC-PVDZ
    Blend: CC-PVDZ
  Basis Set: (CC-PVDZ AUX)
    Blend: CC-PVDZ-JKFIT
  Basis Set: CC-PVDZ
    Blend: CC-PVDZ
  Basis Set: (CC-PVDZ AUX)
    Blend: CC-PVDZ-JKFIT
  @DF-UKS Final Energy:  -856.87599801236627
    Total Energy =                       -856.8759980123662672
  Basis Set: CC-PVDZ
    Blend: CC-PVDZ
  Basis Set: (CC-PVDZ AUX)
    Blend: CC-PVDZ-JKFIT
  Basis Set: CC-PVDZ
    Blend: CC-PVDZ
  @DF-UKS Final Energy:  -856.95757157415619
    Total Energy =                       -856.9575715741561908
  @DF-UKS Final Energy:  -857.21579502144311
    Total Energy =                       -857.2157950214431139
  @DF-UKS Final Energy:  -857.68653328418577
    Total Energy =                       -857.6865332841856571
  @DF-UKS Final Energy:  -857.83838149759458
    Total Energy =                       -857.8383814975945825
  @DF-UKS Final Energy:  -857.92876494539837
    Total Energy =                       -857.9287649453984841
  @DF-UKS Final Energy:  -857.96066986458868
    Total Energy =                       -857.9606698645886809
  @DF-UKS Final Energy:  -857.97464273193646
    Total Energy =                       -857.9746427319364557
  @DF-UKS Final Energy:  -857.97974429395697
    Total Energy =                       -857.9797442939569692
  @DF-UKS Final Energy:  -857.98073937989523
    Total Energy =                       -857.9807393798952262
  @DF-UKS Final Energy:  -857.98095728284409
    Total Energy =                       -857.9809572828440878
  @DF-UKS Final Energy:  -857.98101513600989
    Total Energy =                       -857.9810151360097734
  Basis Set: (CC-PVDZ AUX)
    Blend: CC-PVDZ-JKFIT
  Basis Set: CC-PVDZ
    Blend: CC-PVDZ
  Basis Set: (CC-PVDZ AUX)
    Blend: CC-PVDZ-JKFIT
  @DF-UKS Final Energy:  -857.98102323939020
    Total Energy =                       -857.9810232393901970
  Basis Set: CC-PVDZ
    Blend: CC-PVDZ
  Basis Set: (CC-PVDZ AUX)
    Blend: CC-PVDZ-JKFIT
  Charge       = 1
  Multiplicity = 1
  Basis Set: CC-PVDZ
    Blend: CC-PVDZ
  Basis Set: (CC-PVDZ AUX)
    Blend: CC-PVDZ-JKFIT

    Orbital Energies [Eh]
    ---------------------

    Alpha Occupied:

       1A1  -101.919450     2A1   -89.293334     3A1    -9.835182
       4A1    -8.347307     5A1    -7.596520     1B2    -7.593857
       1B1    -7.583267     2B2    -6.316047     6A1    -6.311139
       2B1    -6.294515     7A1    -1.227354     8A1    -0.982373
       9A1    -0.739407     3B2    -0.699042     3B1    -0.687157
       4B1    -0.543654

    Alpha Virtual:

       4B2    -0.507133    10A1    -0.335824    11A1     0.048956
       5B2     0.136607     5B1     0.159217    12A1     0.186732
       6B2     0.194641     6B1     0.216139    13A1     0.223443
       1A2     0.248179    14A1     0.251628     7B2     0.273180
       7B1     0.287568     2A2     0.405582    15A1     0.405852
      16A1     0.461299    17A1     0.524395     8B2     0.588681
       8B1     0.609986    18A1     1.024220

    Beta Occupied:

       1A1  -101.919450     2A1   -89.293334     3A1    -9.835182
       4A1    -8.347307     5A1    -7.596520     1B2    -7.593857
       1B1    -7.583267     2B2    -6.316047     6A1    -6.311139
       2B1    -6.294515     7A1    -1.227354     8A1    -0.982373
       9A1    -0.739407     3B2    -0.699042     3B1    -0.687157
       4B1    -0.543654

    Beta Virtual:

       4B2    -0.507133    10A1    -0.335824    11A1     0.048956
       5B2     0.136607     5B1     0.159217    12A1     0.186732
       6B2     0.194641     6B1     0.216139    13A1     0.223443
       1A2     0.248179    14A1     0.251628     7B2     0.273180
       7B1     0.287568     2A2     0.405582    15A1     0.405852
      16A1     0.461299    17A1     0.524395     8B2     0.588681
       8B1     0.609986    18A1     1.024220

    Final Occupation by Irrep:
             A1    A2    B1    B2
    DOCC [     9,    0,    4,    3 ]
    SOCC [     0,    0,    0,    0 ]
    NA   [     9,    0,    4,    3 ]
    NB   [     9,    0,    4,    3 ]

  @DF-UKS Final Energy:  -857.98102369201365

   => Energetics <=

    Nuclear Repulsion Energy =             74.9695597850139563
    One-Electron Energy =               -1323.2857937901062542
    Two-Electron Energy =                 433.4879302605097564
    DFT Exchange-Correlation Energy =     -43.1527199474310308
    Empirical Dispersion Energy =           0.0000000000000000
    VV10 Nonlocal Energy =                  0.0000000000000000
    Total Energy =                       -857.9810236920136504

  UHF NO Occupations:
  HONO-2 :    2 B2 2.0000000
  HONO-1 :    9 A1 2.0000000
  HONO-0 :    3 B2 2.0000000
  LUNO+0 :   10 A1 0.0000000
  LUNO+1 :    5 B1 0.0000000
  LUNO+2 :   11 A1 0.0000000
  LUNO+3 :    4 B2 0.0000000

Computation Completed

Properties will be evaluated at   0.000000,   0.000000,   0.000000 [a0]

Properties computed using the SCF density matrix

 Multipole Moments:

 ------------------------------------------------------------------------------------
     Multipole            Electronic (a.u.)      Nuclear  (a.u.)        Total (a.u.)
 ------------------------------------------------------------------------------------

 L = 1.  Multiply by 2.5417464519 to convert [e a0] to [Debye]
 Dipole X            :          0.0000000            0.0000000            0.0000000
 Dipole Y            :          0.0000000            0.0000000            0.0000000
 Dipole Z            :         -0.4926092            0.8659086            0.3732994
 Magnitude           :                                                    0.3732994

 ------------------------------------------------------------------------------------

*** tstop() called on Joses-MacBook-Pro-2.local at Thu Jul 17 15:53:38 2025
Module time:
	user time   =       7.52 seconds =       0.13 minutes
	system time =       2.03 seconds =       0.03 minutes
	total time  =          1 seconds =       0.02 minutes
Total time:
	user time   =     176.83 seconds =       2.95 minutes
	system time =      46.00 seconds =       0.77 minutes
	total time  =         21 seconds =       0.35 minutes

*** tstart() called on Joses-MacBook-Pro-2.local
*** at Thu Jul 17 15:53:38 2025

         ------------------------------------------------------------
                                   SCF GRAD
                          Rob Parrish, Justin Turney,
                       Andy Simmonett, and Alex Sokolov
         ------------------------------------------------------------

  ==> Geometry <==

    Molecular point group: c2v
    Full point group: C_inf_v

    Geometry (in Angstrom), charge = 1, multiplicity = 1:

       Center              X                  Y                   Z               Mass
    ------------   -----------------  -----------------  -----------------  -----------------
         S            0.000000000000     0.000000000000     1.002939550256    31.972071174400
         CL           0.000000000000     0.000000000000    -0.916989040962    34.968852682000

  Nuclear repulsion =   74.969559785013956

  ==> Basis Set <==

  Basis Set: CC-PVDZ
    Blend: CC-PVDZ
    Number of shells: 16
    Number of basis functions: 36
    Number of Cartesian functions: 38
    Spherical Harmonics?: true
    Max angular momentum: 2

  ==> DFJKGrad: Density-Fitted SCF Gradients <==

    Gradient:                    1
    J tasked:                  Yes
    K tasked:                  Yes
    wK tasked:                  No
    OpenMP threads:              1
    Integrals threads:           1
    Memory [MiB]:              375
    Schwarz Cutoff:          1E-12
    Fitting Condition:       1E-10

   => Auxiliary Basis Set <=

  Basis Set: (CC-PVDZ AUX)
    Blend: CC-PVDZ-JKFIT
    Number of shells: 72
    Number of basis functions: 224
    Number of Cartesian functions: 260
    Spherical Harmonics?: true
    Max angular momentum: 3

  ==> DFT Potential <==

   => LibXC <=

    Version 6.2.2
    S. Lehtola, C. Steigemann, M. J.T. Oliveira, and M. A.L. Marques.,  SoftwareX 7, 1â€“5 (2018) (10.1016/j.softx.2017.11.002)

   => Composite Functional: B3LYP <=

    B3LYP Hyb-GGA Exchange-Correlation Functional

    P. J. Stephens, F. J. Devlin, C. F. Chabalowski, and M. J. Frisch.,  J. Phys. Chem. 98, 11623 (1994) (10.1021/j100096a001)

    Deriv               =              1
    GGA                 =           TRUE
    Meta                =          FALSE

    Exchange Hybrid     =           TRUE
    MP2 Hybrid          =          FALSE

   => Exchange Functionals <=

    0.0800   Slater exchange
    0.7200         Becke 88

   => Exact (HF) Exchange <=

    0.2000               HF

   => Correlation Functionals <=

    0.1900   Vosko, Wilk & Nusair (VWN5_RPA)
    0.8100   Lee, Yang & Parr

   => LibXC Density Thresholds  <==

    XC_HYB_GGA_XC_B3LYP:  1.00E-15

   => Molecular Quadrature <=

    Radial Scheme          =       TREUTLER
    Pruning Scheme         =           NONE
    Nuclear Scheme         =       TREUTLER

    Blocking Scheme        =         OCTREE
    BS radius alpha        =              1
    Pruning alpha          =              1
    Radial Points          =             75
    Spherical Points       =            302
    Total Points           =          40206
    Total Blocks           =            360
    Max Points             =            256
    Max Functions          =             36
    Weights Tolerance      =       1.00E-15

  -Total Gradient:
     Atom            X                  Y                   Z
    ------   -----------------  -----------------  -----------------
       1        0.000000000000    -0.000000000000    -0.000054130925
       2        0.000000000000     0.000000000000     0.000065145401

*** tstop() called on Joses-MacBook-Pro-2.local at Thu Jul 17 15:53:38 2025
Module time:
	user time   =       2.59 seconds =       0.04 minutes
	system time =       1.25 seconds =       0.02 minutes
	total time  =          0 seconds =       0.00 minutes
Total time:
	user time   =     179.44 seconds =       2.99 minutes
	system time =      47.25 seconds =       0.79 minutes
	total time  =         21 seconds =       0.35 minutes

    			-----------------------------------------

    			 OPTKING 3.0: for geometry optimizations

    			     By R.A. King, Bethel University

    			        with contributions from

    			    A.V. Copan, J. Cayton, A. Heide

    			-----------------------------------------

	                            ===> Fragment 1 <==

	 Z (Atomic Numbers)          Masses                          Geom
	      16.000000            31.972071          0.00000000  0.00000000  1.89528107
	      17.000000            34.968853          0.00000000  0.00000000 -1.73285815

	 - Coordinate -           - BOHR/RAD -       - ANG/DEG -
	 R(1,2)           =         3.628139           1.919929

	        --- Internal Coordinate Step in ANG or DEG, aJ/ANG or AJ/DEG ---
	-------------------------------------------------------------------------------
	           Coordinate      Previous         Force          Change          New
	           ----------      --------        ------          ------        ------
	               R(1,2)       1.91993        0.00049        0.00010       1.92003
	-------------------------------------------------------------------------------

	                                 ==> Convergence Check <==

	Measures of convergence in internal coordinates in au.

	Criteria marked as inactive (o), active & met (*), and active & unmet ( ).

	----------------------------------------------------------------------------------------------
	   Step    Total Energy     Delta E     Max Force     RMS Force      Max Disp      RMS Disp
	----------------------------------------------------------------------------------------------
	  Convergence Criteria     1.00e-06 *    3.00e-04 *             o    1.20e-03 *             o
	----------------------------------------------------------------------------------------------
	    15    -857.98102369   -4.53e-07 *    5.96e-05 *    5.96e-05 o    1.98e-04 *    1.98e-04 o  ~
	----------------------------------------------------------------------------------------------

Next Geometry in Ang
	Fragment 1 (Ang)

	    S   0.0000000000   0.0000000000   1.0029919047
	   Cl   0.0000000000   0.0000000000  -0.9170413954

    Final optimized geometry and variables:
    Molecular point group: c2v
    Full point group: C_inf_v

    Geometry (in Angstrom), charge = 1, multiplicity = 1:

    S            0.000000000000     0.000000000000     1.002939550256
    CL           0.000000000000     0.000000000000    -0.916989040962

    Psi4 stopped on: Thursday, 17 July 2025 03:53PM
    Psi4 wall time for execution: 0:00:22.16

*** Psi4 exiting successfully. Buy a developer a beer!
