                               Psi4 1.9.1 release

  ==> Input File <==

--------------------------------------------------------------------------
molecule {
1 1
B   0.00000        0.60000        0.00000
C   0.00000       -0.60000        0.00000
}

set {
basis              cc-pvdz
reference          uks
maxiter            500
geom_maxiter       500
DAMPING_PERCENTAGE 1
guess              SAP
}

optimize('b3lyp')
--------------------------------------------------------------------------

    Molecular point group: c2v
  Charge       = 1
  Multiplicity = 1
  Basis Set: CC-PVDZ
    Blend: CC-PVDZ
  Basis Set: (CC-PVDZ AUX)
    Blend: CC-PVDZ-JKFIT
  @DF-UKS Final Energy:   -62.11572556683619
    Total Energy =                        -62.1157255668361898
 Dipole X            :          0.0000000            0.0000000            0.0000000
 Dipole Y            :          0.0000000            0.0000000            0.0000000
 Dipole Z            :          1.5667508           -0.5968297            0.9699211
 Magnitude           :                                                    0.9699211
    Molecular point group: c2v
  Basis Set: CC-PVDZ
    Blend: CC-PVDZ
  Basis Set: (CC-PVDZ AUX)
    Blend: CC-PVDZ-JKFIT
  Basis Set: CC-PVDZ
    Blend: CC-PVDZ
  Basis Set: (CC-PVDZ AUX)
    Blend: CC-PVDZ-JKFIT
  @DF-UKS Final Energy:   -62.21113307156507
    Total Energy =                        -62.2111330715650723
  Basis Set: CC-PVDZ
    Blend: CC-PVDZ
  Basis Set: (CC-PVDZ AUX)
    Blend: CC-PVDZ-JKFIT
  Basis Set: CC-PVDZ
    Blend: CC-PVDZ
  @DF-UKS Final Energy:   -62.21931566583801
    Total Energy =                        -62.2193156658380104
  @DF-UKS Final Energy:   -62.22174481700763
    Total Energy =                        -62.2217448170076324
  @DF-UKS Final Energy:   -62.22293678766891
    Total Energy =                        -62.2229367876689068
  @DF-UKS Final Energy:   -62.22305867517277
    Total Energy =                        -62.2230586751727728
  Basis Set: (CC-PVDZ AUX)
    Blend: CC-PVDZ-JKFIT
  Basis Set: CC-PVDZ
    Blend: CC-PVDZ
  Basis Set: (CC-PVDZ AUX)
    Blend: CC-PVDZ-JKFIT
  @DF-UKS Final Energy:   -62.22307266219611
    Total Energy =                        -62.2230726621961097
  Basis Set: CC-PVDZ
    Blend: CC-PVDZ
  Basis Set: (CC-PVDZ AUX)
    Blend: CC-PVDZ-JKFIT
  Charge       = 1
  Multiplicity = 1
  Basis Set: CC-PVDZ
    Blend: CC-PVDZ
  Basis Set: (CC-PVDZ AUX)
    Blend: CC-PVDZ-JKFIT

    Orbital Energies [Eh]
    ---------------------

    Alpha Occupied:

       1A1   -10.665117     2A1    -7.261807     3A1    -0.988137
       4A1    -0.665219     1B1    -0.579055

    Alpha Virtual:

       5A1    -0.519249     1B2    -0.517483     2B1    -0.334040
       2B2    -0.329958     6A1    -0.100601     3B2     0.017311
       3B1     0.020902     7A1     0.051892     8A1     0.093785
       9A1     0.194567     4B2     0.248095     4B1     0.255347
       1A2     0.361942    10A1     0.365259     5B2     0.425560
       5B1     0.437573    11A1     0.621504    12A1     0.830341
       2A2     0.884998    13A1     0.890425     6B2     1.170970
       6B1     1.188715    14A1     1.429983

    Beta Occupied:

       1A1   -10.665117     2A1    -7.261807     3A1    -0.988137
       4A1    -0.665219     1B1    -0.579055

    Beta Virtual:

       5A1    -0.519249     1B2    -0.517483     2B1    -0.334040
       2B2    -0.329958     6A1    -0.100601     3B2     0.017311
       3B1     0.020902     7A1     0.051892     8A1     0.093785
       9A1     0.194567     4B2     0.248095     4B1     0.255347
       1A2     0.361942    10A1     0.365259     5B2     0.425560
       5B1     0.437573    11A1     0.621504    12A1     0.830341
       2A2     0.884998    13A1     0.890425     6B2     1.170970
       6B1     1.188715    14A1     1.429983

    Final Occupation by Irrep:
             A1    A2    B1    B2
    DOCC [     4,    0,    1,    0 ]
    SOCC [     0,    0,    0,    0 ]
    NA   [     4,    0,    1,    0 ]
    NB   [     4,    0,    1,    0 ]

  @DF-UKS Final Energy:   -62.22307446444095

   => Energetics <=

    Nuclear Repulsion Energy =             10.3109905232287282
    One-Electron Energy =                 -99.5662088265078467
    Two-Electron Energy =                  34.2040238690283900
    DFT Exchange-Correlation Energy =      -7.1718800301902172
    Empirical Dispersion Energy =           0.0000000000000000
    VV10 Nonlocal Energy =                  0.0000000000000000
    Total Energy =                        -62.2230744644409484

  UHF NO Occupations:
  HONO-2 :    2 A1 2.0000000
  HONO-1 :    3 A1 2.0000000
  HONO-0 :    4 A1 2.0000000
  LUNO+0 :    5 A1 0.0000000
  LUNO+1 :    2 B1 0.0000000
  LUNO+2 :    6 A1 0.0000000
  LUNO+3 :    7 A1 0.0000000

Computation Completed

Properties will be evaluated at   0.000000,   0.000000,   0.000000 [a0]

Properties computed using the SCF density matrix

 Multipole Moments:

 ------------------------------------------------------------------------------------
     Multipole            Electronic (a.u.)      Nuclear  (a.u.)        Total (a.u.)
 ------------------------------------------------------------------------------------

 L = 1.  Multiply by 2.5417464519 to convert [e a0] to [Debye]
 Dipole X            :          0.0000000            0.0000000            0.0000000
 Dipole Y            :          0.0000000            0.0000000            0.0000000
 Dipole Z            :          1.6744368           -0.7657574            0.9086794
 Magnitude           :                                                    0.9086794

 ------------------------------------------------------------------------------------

*** tstop() called on Joses-MacBook-Pro-2.local at Thu Jul 17 13:30:04 2025
Module time:
	user time   =       2.90 seconds =       0.05 minutes
	system time =       3.38 seconds =       0.06 minutes
	total time  =          0 seconds =       0.00 minutes
Total time:
	user time   =      27.53 seconds =       0.46 minutes
	system time =      44.21 seconds =       0.74 minutes
	total time  =          7 seconds =       0.12 minutes

*** tstart() called on Joses-MacBook-Pro-2.local
*** at Thu Jul 17 13:30:04 2025

         ------------------------------------------------------------
                                   SCF GRAD
                          Rob Parrish, Justin Turney,
                       Andy Simmonett, and Alex Sokolov
         ------------------------------------------------------------

  ==> Geometry <==

    Molecular point group: c2v
    Full point group: C_inf_v

    Geometry (in Angstrom), charge = 1, multiplicity = 1:

       Center              X                  Y                   Z               Mass
    ------------   -----------------  -----------------  -----------------  -----------------
         B            0.000000000000     0.000000000000     0.802970773467    11.009305360000
         C            0.000000000000     0.000000000000    -0.736679203355    12.000000000000

  Nuclear repulsion =   10.310990523228728

  ==> Basis Set <==

  Basis Set: CC-PVDZ
    Blend: CC-PVDZ
    Number of shells: 12
    Number of basis functions: 28
    Number of Cartesian functions: 30
    Spherical Harmonics?: true
    Max angular momentum: 2

  ==> DFJKGrad: Density-Fitted SCF Gradients <==

    Gradient:                    1
    J tasked:                  Yes
    K tasked:                  Yes
    wK tasked:                  No
    OpenMP threads:              1
    Integrals threads:           1
    Memory [MiB]:              375
    Schwarz Cutoff:          1E-12
    Fitting Condition:       1E-10

   => Auxiliary Basis Set <=

  Basis Set: (CC-PVDZ AUX)
    Blend: CC-PVDZ-JKFIT
    Number of shells: 48
    Number of basis functions: 140
    Number of Cartesian functions: 162
    Spherical Harmonics?: true
    Max angular momentum: 3

  ==> DFT Potential <==

   => LibXC <=

    Version 6.2.2
    S. Lehtola, C. Steigemann, M. J.T. Oliveira, and M. A.L. Marques.,  SoftwareX 7, 1â€“5 (2018) (10.1016/j.softx.2017.11.002)

   => Composite Functional: B3LYP <=

    B3LYP Hyb-GGA Exchange-Correlation Functional

    P. J. Stephens, F. J. Devlin, C. F. Chabalowski, and M. J. Frisch.,  J. Phys. Chem. 98, 11623 (1994) (10.1021/j100096a001)

    Deriv               =              1
    GGA                 =           TRUE
    Meta                =          FALSE

    Exchange Hybrid     =           TRUE
    MP2 Hybrid          =          FALSE

   => Exchange Functionals <=

    0.0800   Slater exchange
    0.7200         Becke 88

   => Exact (HF) Exchange <=

    0.2000               HF

   => Correlation Functionals <=

    0.1900   Vosko, Wilk & Nusair (VWN5_RPA)
    0.8100   Lee, Yang & Parr

   => LibXC Density Thresholds  <==

    XC_HYB_GGA_XC_B3LYP:  1.00E-15

   => Molecular Quadrature <=

    Radial Scheme          =       TREUTLER
    Pruning Scheme         =           NONE
    Nuclear Scheme         =       TREUTLER

    Blocking Scheme        =         OCTREE
    BS radius alpha        =              1
    Pruning alpha          =              1
    Radial Points          =             75
    Spherical Points       =            302
    Total Points           =          43049
    Total Blocks           =            392
    Max Points             =            255
    Max Functions          =             28
    Weights Tolerance      =       1.00E-15

  -Total Gradient:
     Atom            X                  Y                   Z
    ------   -----------------  -----------------  -----------------
       1        0.000000000000     0.000000000000    -0.000220443365
       2        0.000000000000    -0.000000000000     0.000223778973

*** tstop() called on Joses-MacBook-Pro-2.local at Thu Jul 17 13:30:04 2025
Module time:
	user time   =       0.84 seconds =       0.01 minutes
	system time =       0.98 seconds =       0.02 minutes
	total time  =          0 seconds =       0.00 minutes
Total time:
	user time   =      28.37 seconds =       0.47 minutes
	system time =      45.21 seconds =       0.75 minutes
	total time  =          7 seconds =       0.12 minutes

    			-----------------------------------------

    			 OPTKING 3.0: for geometry optimizations

    			     By R.A. King, Bethel University

    			        with contributions from

    			    A.V. Copan, J. Cayton, A. Heide

    			-----------------------------------------

	                            ===> Fragment 1 <==

	 Z (Atomic Numbers)          Masses                          Geom
	       5.000000            11.009305          0.00000000  0.00000000  1.51739485
	       6.000000            12.000000          0.00000000  0.00000000 -1.39212194

	 - Coordinate -           - BOHR/RAD -       - ANG/DEG -
	 R(1,2)           =         2.909517           1.539650

	        --- Internal Coordinate Step in ANG or DEG, aJ/ANG or AJ/DEG ---
	-------------------------------------------------------------------------------
	           Coordinate      Previous         Force          Change          New
	           ----------      --------        ------          ------        ------
	               R(1,2)       1.53965        0.00183        0.00040       1.54005
	-------------------------------------------------------------------------------

	                                 ==> Convergence Check <==

	Measures of convergence in internal coordinates in au.

	Criteria marked as inactive (o), active & met (*), and active & unmet ( ).

	----------------------------------------------------------------------------------------------
	   Step    Total Energy     Delta E     Max Force     RMS Force      Max Disp      RMS Disp
	----------------------------------------------------------------------------------------------
	  Convergence Criteria     1.00e-06 *    3.00e-04 *             o    1.20e-03 *             o
	----------------------------------------------------------------------------------------------
	     8     -62.22307446   -1.80e-06      2.22e-04 *    2.22e-04 o    7.51e-04 *    7.51e-04 o  ~
	----------------------------------------------------------------------------------------------

Next Geometry in Ang
	Fragment 1 (Ang)

	    B   0.0000000000   0.0000000000   0.8031694754
	    C   0.0000000000   0.0000000000  -0.7368779053

    Final optimized geometry and variables:
    Molecular point group: c2v
    Full point group: C_inf_v

    Geometry (in Angstrom), charge = 1, multiplicity = 1:

    B            0.000000000000     0.000000000000     0.802970773467
    C            0.000000000000     0.000000000000    -0.736679203355

    Psi4 stopped on: Thursday, 17 July 2025 01:30PM
    Psi4 wall time for execution: 0:00:07.94

*** Psi4 exiting successfully. Buy a developer a beer!
