                               Psi4 1.9.1 release

  ==> Input File <==

--------------------------------------------------------------------------
molecule {
1 1
Be   0.00000        0.60000        0.00000
B   0.00000       -0.60000        0.00000
}

set {
basis              cc-pvdz
reference          uks
maxiter            500
geom_maxiter       500
DAMPING_PERCENTAGE 1
guess              SAP
}

optimize('b3lyp')
--------------------------------------------------------------------------

    Molecular point group: c2v
  Charge       = 1
  Multiplicity = 1
  Basis Set: CC-PVDZ
    Blend: CC-PVDZ
  Basis Set: (CC-PVDZ AUX)
    Blend: CC-PVDZ-JKFIT + DEF2-UNIVERSAL-JKFIT
  @DF-UKS Final Energy:   -38.81788972255330
    Total Energy =                        -38.8178897225532964
 Dipole X            :          0.0000000            0.0000000            0.0000000
 Dipole Y            :          0.0000000            0.0000000            0.0000000
 Dipole Z            :          0.7140694           -0.1159455            0.5981239
 Magnitude           :                                                    0.5981239
    Molecular point group: c2v
  Basis Set: CC-PVDZ
    Blend: CC-PVDZ
  Basis Set: (CC-PVDZ AUX)
    Blend: CC-PVDZ-JKFIT + DEF2-UNIVERSAL-JKFIT
  Basis Set: CC-PVDZ
    Blend: CC-PVDZ
  Basis Set: (CC-PVDZ AUX)
    Blend: CC-PVDZ-JKFIT + DEF2-UNIVERSAL-JKFIT
  @DF-UKS Final Energy:   -38.94378606891523
    Total Energy =                        -38.9437860689152231
  Basis Set: CC-PVDZ
    Blend: CC-PVDZ
  Basis Set: (CC-PVDZ AUX)
    Blend: CC-PVDZ-JKFIT + DEF2-UNIVERSAL-JKFIT
  Basis Set: CC-PVDZ
    Blend: CC-PVDZ
  @DF-UKS Final Energy:   -38.96857759046453
    Total Energy =                        -38.9685775904645340
  @DF-UKS Final Energy:   -38.97742878299778
    Total Energy =                        -38.9774287829977766
  @DF-UKS Final Energy:   -38.97871779529069
    Total Energy =                        -38.9787177952906916
  @DF-UKS Final Energy:   -38.97893093525639
    Total Energy =                        -38.9789309352563862
  @DF-UKS Final Energy:   -38.97896874773335
    Total Energy =                        -38.9789687477333473
  Basis Set: (CC-PVDZ AUX)
    Blend: CC-PVDZ-JKFIT + DEF2-UNIVERSAL-JKFIT
  Basis Set: CC-PVDZ
    Blend: CC-PVDZ
  Basis Set: (CC-PVDZ AUX)
    Blend: CC-PVDZ-JKFIT + DEF2-UNIVERSAL-JKFIT
  @DF-UKS Final Energy:   -38.97897658465294
    Total Energy =                        -38.9789765846529477
  Basis Set: CC-PVDZ
    Blend: CC-PVDZ
  Basis Set: (CC-PVDZ AUX)
    Blend: CC-PVDZ-JKFIT + DEF2-UNIVERSAL-JKFIT
  Charge       = 1
  Multiplicity = 1
  Basis Set: CC-PVDZ
    Blend: CC-PVDZ
  Basis Set: (CC-PVDZ AUX)
    Blend: CC-PVDZ-JKFIT + DEF2-UNIVERSAL-JKFIT

    Orbital Energies [Eh]
    ---------------------

    Alpha Occupied:

       1A1    -7.126530     2A1    -4.431416     3A1    -0.686977
       1B2    -0.429268

    Alpha Virtual:

       4A1    -0.420560     1B1    -0.374210     5A1    -0.351398
       2B2    -0.222452     2B1    -0.211546     6A1    -0.095011
       3B2    -0.026090     3B1    -0.024146     7A1    -0.023841
       8A1     0.065026     4B1     0.121194     4B2     0.121772
       9A1     0.136424     1A2     0.208717    10A1     0.215015
       5B1     0.298594     5B2     0.298626    11A1     0.380406
       2A2     0.523255    12A1     0.530409    13A1     0.691404
       6B1     0.760955     6B2     0.763826    14A1     1.005595

    Beta Occupied:

       1A1    -7.126530     2A1    -4.431416     3A1    -0.686977
       1B2    -0.429268

    Beta Virtual:

       4A1    -0.420560     1B1    -0.374210     5A1    -0.351398
       2B2    -0.222452     2B1    -0.211546     6A1    -0.095011
       3B2    -0.026090     3B1    -0.024146     7A1    -0.023841
       8A1     0.065026     4B1     0.121194     4B2     0.121772
       9A1     0.136424     1A2     0.208717    10A1     0.215015
       5B1     0.298594     5B2     0.298626    11A1     0.380406
       2A2     0.523255    12A1     0.530409    13A1     0.691404
       6B1     0.760955     6B2     0.763826    14A1     1.005595

    Final Occupation by Irrep:
             A1    A2    B1    B2
    DOCC [     3,    0,    0,    1 ]
    SOCC [     0,    0,    0,    0 ]
    NA   [     3,    0,    0,    1 ]
    NB   [     3,    0,    0,    1 ]

  @DF-UKS Final Energy:   -38.97897723823306

   => Energetics <=

    Nuclear Repulsion Energy =              6.3322586349435950
    One-Electron Energy =                 -61.4544134197495282
    Two-Electron Energy =                  21.4227474434727974
    DFT Exchange-Correlation Energy =      -5.2795698968999174
    Empirical Dispersion Energy =           0.0000000000000000
    VV10 Nonlocal Energy =                  0.0000000000000000
    Total Energy =                        -38.9789772382330568

  UHF NO Occupations:
  HONO-2 :    1 A1 2.0000000
  HONO-1 :    2 A1 2.0000000
  HONO-0 :    3 A1 2.0000000
  LUNO+0 :    2 B2 0.0000000
  LUNO+1 :    4 A1 0.0000000
  LUNO+2 :    3 B2 0.0000000
  LUNO+3 :    5 A1 0.0000000

Computation Completed

Properties will be evaluated at   0.000000,   0.000000,   0.000000 [a0]

Properties computed using the SCF density matrix

 Multipole Moments:

 ------------------------------------------------------------------------------------
     Multipole            Electronic (a.u.)      Nuclear  (a.u.)        Total (a.u.)
 ------------------------------------------------------------------------------------

 L = 1.  Multiply by 2.5417464519 to convert [e a0] to [Debye]
 Dipole X            :          0.0000000            0.0000000            0.0000000
 Dipole Y            :          0.0000000            0.0000000            0.0000000
 Dipole Z            :          1.2045080           -0.1614898            1.0430182
 Magnitude           :                                                    1.0430182

 ------------------------------------------------------------------------------------

*** tstop() called on Joses-MacBook-Pro-2.local at Thu Jul 17 12:59:24 2025
Module time:
	user time   =       2.87 seconds =       0.05 minutes
	system time =       2.94 seconds =       0.05 minutes
	total time  =          1 seconds =       0.02 minutes
Total time:
	user time   =      32.52 seconds =       0.54 minutes
	system time =      40.23 seconds =       0.67 minutes
	total time  =          7 seconds =       0.12 minutes

*** tstart() called on Joses-MacBook-Pro-2.local
*** at Thu Jul 17 12:59:24 2025

         ------------------------------------------------------------
                                   SCF GRAD
                          Rob Parrish, Justin Turney,
                       Andy Simmonett, and Alex Sokolov
         ------------------------------------------------------------

  ==> Geometry <==

    Molecular point group: c2v
    Full point group: C_inf_v

    Geometry (in Angstrom), charge = 1, multiplicity = 1:

       Center              X                  Y                   Z               Mass
    ------------   -----------------  -----------------  -----------------  -----------------
         BE           0.000000000000     0.000000000000     0.919043442963     9.012183065000
         B            0.000000000000     0.000000000000    -0.752326098862    11.009305360000

  Nuclear repulsion =    6.332258634943595

  ==> Basis Set <==

  Basis Set: CC-PVDZ
    Blend: CC-PVDZ
    Number of shells: 12
    Number of basis functions: 28
    Number of Cartesian functions: 30
    Spherical Harmonics?: true
    Max angular momentum: 2

  ==> DFJKGrad: Density-Fitted SCF Gradients <==

    Gradient:                    1
    J tasked:                  Yes
    K tasked:                  Yes
    wK tasked:                  No
    OpenMP threads:              1
    Integrals threads:           1
    Memory [MiB]:              375
    Schwarz Cutoff:          1E-12
    Fitting Condition:       1E-10

   => Auxiliary Basis Set <=

  Basis Set: (CC-PVDZ AUX)
    Blend: CC-PVDZ-JKFIT + DEF2-UNIVERSAL-JKFIT
    Number of shells: 41
    Number of basis functions: 121
    Number of Cartesian functions: 141
    Spherical Harmonics?: true
    Max angular momentum: 3

  ==> DFT Potential <==

   => LibXC <=

    Version 6.2.2
    S. Lehtola, C. Steigemann, M. J.T. Oliveira, and M. A.L. Marques.,  SoftwareX 7, 1â€“5 (2018) (10.1016/j.softx.2017.11.002)

   => Composite Functional: B3LYP <=

    B3LYP Hyb-GGA Exchange-Correlation Functional

    P. J. Stephens, F. J. Devlin, C. F. Chabalowski, and M. J. Frisch.,  J. Phys. Chem. 98, 11623 (1994) (10.1021/j100096a001)

    Deriv               =              1
    GGA                 =           TRUE
    Meta                =          FALSE

    Exchange Hybrid     =           TRUE
    MP2 Hybrid          =          FALSE

   => Exchange Functionals <=

    0.0800   Slater exchange
    0.7200         Becke 88

   => Exact (HF) Exchange <=

    0.2000               HF

   => Correlation Functionals <=

    0.1900   Vosko, Wilk & Nusair (VWN5_RPA)
    0.8100   Lee, Yang & Parr

   => LibXC Density Thresholds  <==

    XC_HYB_GGA_XC_B3LYP:  1.00E-15

   => Molecular Quadrature <=

    Radial Scheme          =       TREUTLER
    Pruning Scheme         =           NONE
    Nuclear Scheme         =       TREUTLER

    Blocking Scheme        =         OCTREE
    BS radius alpha        =              1
    Pruning alpha          =              1
    Radial Points          =             75
    Spherical Points       =            302
    Total Points           =          43065
    Total Blocks           =            400
    Max Points             =            255
    Max Functions          =             28
    Weights Tolerance      =       1.00E-15

  -Total Gradient:
     Atom            X                  Y                   Z
    ------   -----------------  -----------------  -----------------
       1        0.000000000000    -0.000000000000    -0.000061406373
       2        0.000000000000    -0.000000000000     0.000068201197

*** tstop() called on Joses-MacBook-Pro-2.local at Thu Jul 17 12:59:24 2025
Module time:
	user time   =       0.64 seconds =       0.01 minutes
	system time =       1.07 seconds =       0.02 minutes
	total time  =          0 seconds =       0.00 minutes
Total time:
	user time   =      33.16 seconds =       0.55 minutes
	system time =      41.30 seconds =       0.69 minutes
	total time  =          7 seconds =       0.12 minutes

    			-----------------------------------------

    			 OPTKING 3.0: for geometry optimizations

    			     By R.A. King, Bethel University

    			        with contributions from

    			    A.V. Copan, J. Cayton, A. Heide

    			-----------------------------------------

	                            ===> Fragment 1 <==

	 Z (Atomic Numbers)          Masses                          Geom
	       4.000000             9.012183          0.00000000  0.00000000  1.73674040
	       5.000000            11.009305          0.00000000  0.00000000 -1.42169028

	 - Coordinate -           - BOHR/RAD -       - ANG/DEG -
	 R(1,2)           =         3.158431           1.671370

	        --- Internal Coordinate Step in ANG or DEG, aJ/ANG or AJ/DEG ---
	-------------------------------------------------------------------------------
	           Coordinate      Previous         Force          Change          New
	           ----------      --------        ------          ------        ------
	               R(1,2)       1.67137        0.00053        0.00016       1.67153
	-------------------------------------------------------------------------------

	                                 ==> Convergence Check <==

	Measures of convergence in internal coordinates in au.

	Criteria marked as inactive (o), active & met (*), and active & unmet ( ).

	----------------------------------------------------------------------------------------------
	   Step    Total Energy     Delta E     Max Force     RMS Force      Max Disp      RMS Disp
	----------------------------------------------------------------------------------------------
	  Convergence Criteria     1.00e-06 *    3.00e-04 *             o    1.20e-03 *             o
	----------------------------------------------------------------------------------------------
	     9     -38.97897724   -6.54e-07 *    6.48e-05 *    6.48e-05 o    3.09e-04 *    3.09e-04 o  ~
	----------------------------------------------------------------------------------------------

Next Geometry in Ang
	Fragment 1 (Ang)

	   Be   0.0000000000   0.0000000000   0.9191253229
	    B   0.0000000000   0.0000000000  -0.7524079788

    Final optimized geometry and variables:
    Molecular point group: c2v
    Full point group: C_inf_v

    Geometry (in Angstrom), charge = 1, multiplicity = 1:

    BE           0.000000000000     0.000000000000     0.919043442963
    B            0.000000000000     0.000000000000    -0.752326098862

    Psi4 stopped on: Thursday, 17 July 2025 12:59PM
    Psi4 wall time for execution: 0:00:07.62

*** Psi4 exiting successfully. Buy a developer a beer!
