                               Psi4 1.9.1 release

  ==> Input File <==

--------------------------------------------------------------------------
molecule {
1 1
O   0.00000        0.60000        0.00000
Na   0.00000       -0.60000        0.00000
}

set {
basis              cc-pvdz
reference          uks
maxiter            500
geom_maxiter       500
DAMPING_PERCENTAGE 1
guess              SAP
}

optimize('b3lyp')
--------------------------------------------------------------------------

    Molecular point group: c2v
  Charge       = 1
  Multiplicity = 1
  Basis Set: CC-PVDZ
    Blend: CC-PVDZ
  Basis Set: (CC-PVDZ AUX)
    Blend: CC-PVDZ-JKFIT + DEF2-UNIVERSAL-JKFIT
  @DF-UKS Final Energy:  -236.72251075852054
    Total Energy =                       -236.7225107585205421
 Dipole X            :          0.0000000            0.0000000            0.0000000
 Dipole Y            :          0.0000000            0.0000000            0.0000000
 Dipole Z            :         -1.6836790            0.4638392           -1.2198398
 Magnitude           :                                                    1.2198398
    Molecular point group: c2v
  Basis Set: CC-PVDZ
    Blend: CC-PVDZ
  Basis Set: (CC-PVDZ AUX)
    Blend: CC-PVDZ-JKFIT + DEF2-UNIVERSAL-JKFIT
  Basis Set: CC-PVDZ
    Blend: CC-PVDZ
  Basis Set: (CC-PVDZ AUX)
    Blend: CC-PVDZ-JKFIT + DEF2-UNIVERSAL-JKFIT
  @DF-UKS Final Energy:  -236.82159463345789
    Total Energy =                       -236.8215946334578916
  Basis Set: CC-PVDZ
    Blend: CC-PVDZ
  Basis Set: (CC-PVDZ AUX)
    Blend: CC-PVDZ-JKFIT + DEF2-UNIVERSAL-JKFIT
  Basis Set: CC-PVDZ
    Blend: CC-PVDZ
  @DF-UKS Final Energy:  -236.91092202347258
    Total Energy =                       -236.9109220234725797
  @DF-UKS Final Energy:  -236.97412566221340
    Total Energy =                       -236.9741256622133960
  @DF-UKS Final Energy:  -237.00589194497078
    Total Energy =                       -237.0058919449707844
  @DF-UKS Final Energy:  -237.02890090158115
    Total Energy =                       -237.0289009015811530
  @DF-UKS Final Energy:  -237.04033754495595
    Total Energy =                       -237.0403375449559462
  @DF-UKS Final Energy:  -237.04693165117467
    Total Energy =                       -237.0469316511746740
  @DF-UKS Final Energy:  -237.05070276949399
    Total Energy =                       -237.0507027694939950
  @DF-UKS Final Energy:  -237.05287594732323
    Total Energy =                       -237.0528759473232867
  @DF-UKS Final Energy:  -237.05408607271852
    Total Energy =                       -237.0540860727185191
  @DF-UKS Final Energy:  -237.05472441496940
    Total Energy =                       -237.0547244149693711
  @DF-UKS Final Energy:  -237.05504626421410
    Total Energy =                       -237.0550462642140985
  @DF-UKS Final Energy:  -237.05522904803470
    Total Energy =                       -237.0552290480346755
  @DF-UKS Final Energy:  -237.05536236122367
    Total Energy =                       -237.0553623612236720
  @DF-UKS Final Energy:  -237.05556995549412
    Total Energy =                       -237.0555699554941498
  @DF-UKS Final Energy:  -237.05557076132672
    Total Energy =                       -237.0555707613267202
  @DF-UKS Final Energy:  -237.05557156786682
    Total Energy =                       -237.0555715678668207
  @DF-UKS Final Energy:  -237.05557237592240
    Total Energy =                       -237.0555723759224236
  @DF-UKS Final Energy:  -237.05557318545425
    Total Energy =                       -237.0555731854542501
  @DF-UKS Final Energy:  -237.05599966602409
    Total Energy =                       -237.0559996660241211
  @DF-UKS Final Energy:  -237.05600083854068
    Total Energy =                       -237.0560008385406832
  @DF-UKS Final Energy:  -237.05600201053306
    Total Energy =                       -237.0560020105330636
  @DF-UKS Final Energy:  -237.05600318204145
    Total Energy =                       -237.0560031820414224
  @DF-UKS Final Energy:  -237.05600435298055
    Total Energy =                       -237.0560043529805512
  @DF-UKS Final Energy:  -237.05600552341573
    Total Energy =                       -237.0560055234157346
  @DF-UKS Final Energy:  -237.05600669334814
    Total Energy =                       -237.0560066933481380
  @DF-UKS Final Energy:  -237.05600786277728
    Total Energy =                       -237.0560078627772498
  @DF-UKS Final Energy:  -237.05600903173118
    Total Energy =                       -237.0560090317311790
  @DF-UKS Final Energy:  -237.05601020017940
    Total Energy =                       -237.0560102001794007
  @DF-UKS Final Energy:  -237.05601136808721
    Total Energy =                       -237.0560113680872405
  @DF-UKS Final Energy:  -237.05601253551043
    Total Energy =                       -237.0560125355104617
  @DF-UKS Final Energy:  -237.05601370244580
    Total Energy =                       -237.0560137024457958
  @DF-UKS Final Energy:  -237.05601486889427
    Total Energy =                       -237.0560148688942661
  @DF-UKS Final Energy:  -237.05601603483498
    Total Energy =                       -237.0560160348350109
  @DF-UKS Final Energy:  -237.05601720031552
    Total Energy =                       -237.0560172003155230
  @DF-UKS Final Energy:  -237.05601836532264
    Total Energy =                       -237.0560183653226431
  @DF-UKS Final Energy:  -237.05601952983628
    Total Energy =                       -237.0560195298362771
  Basis Set: (CC-PVDZ AUX)
    Blend: CC-PVDZ-JKFIT + DEF2-UNIVERSAL-JKFIT
  Basis Set: CC-PVDZ
    Blend: CC-PVDZ
  Basis Set: (CC-PVDZ AUX)
    Blend: CC-PVDZ-JKFIT + DEF2-UNIVERSAL-JKFIT
  @DF-UKS Final Energy:  -237.05636483993783
    Total Energy =                       -237.0563648399378280
  Basis Set: CC-PVDZ
    Blend: CC-PVDZ
  Basis Set: (CC-PVDZ AUX)
    Blend: CC-PVDZ-JKFIT + DEF2-UNIVERSAL-JKFIT
  Charge       = 1
  Multiplicity = 1
  Basis Set: CC-PVDZ
    Blend: CC-PVDZ
  Basis Set: (CC-PVDZ AUX)
    Blend: CC-PVDZ-JKFIT + DEF2-UNIVERSAL-JKFIT

    Orbital Energies [Eh]
    ---------------------

    Alpha Occupied:

       1A1   -38.775131     2A1   -19.387916     3A1    -2.512427
       4A1    -1.443616     1B2    -1.443556     1B1    -1.443556
       5A1    -1.045679     2B2    -0.458823     2B1    -0.458823

    Alpha Virtual:

       6A1    -0.381047     7A1    -0.258111     3B2    -0.150122
       3B1    -0.150122     8A1    -0.149583     9A1    -0.067310
       4B2    -0.047952     4B1    -0.047952    10A1    -0.047794
      11A1     0.009040     1A2     0.009358    12A1     0.009360
       5B2     0.009531     5B1     0.009531    13A1     0.755975
       6B1     0.765920     6B2     0.765920    14A1     1.030095
      15A1     2.399888     7B1     2.401147     7B2     2.401147
       2A2     2.452292    16A1     2.452527

    Beta Occupied:

       1A1   -38.775131     2A1   -19.387916     3A1    -2.512427
       4A1    -1.443616     1B2    -1.443556     1B1    -1.443556
       5A1    -1.045679     2B2    -0.458823     2B1    -0.458823

    Beta Virtual:

       6A1    -0.381047     7A1    -0.258111     3B2    -0.150122
       3B1    -0.150122     8A1    -0.149583     9A1    -0.067310
       4B2    -0.047952     4B1    -0.047952    10A1    -0.047794
      11A1     0.009040     1A2     0.009358    12A1     0.009360
       5B2     0.009531     5B1     0.009531    13A1     0.755975
       6B1     0.765920     6B2     0.765920    14A1     1.030095
      15A1     2.399888     7B1     2.401147     7B2     2.401147
       2A2     2.452292    16A1     2.452527

    Final Occupation by Irrep:
             A1    A2    B1    B2
    DOCC [     5,    0,    2,    2 ]
    SOCC [     0,    0,    0,    0 ]
    NA   [     5,    0,    2,    2 ]
    NB   [     5,    0,    2,    2 ]

  @DF-UKS Final Energy:  -237.05636566816028

   => Energetics <=

    Nuclear Repulsion Energy =              9.4413892606538301
    One-Electron Energy =                -345.9147377306263138
    Two-Electron Energy =                 117.7569872753107632
    DFT Exchange-Correlation Energy =     -18.3400044734985492
    Empirical Dispersion Energy =           0.0000000000000000
    VV10 Nonlocal Energy =                  0.0000000000000000
    Total Energy =                       -237.0563656681602822

  UHF NO Occupations:
  HONO-2 :    2 B2 2.0000000
  HONO-1 :    4 A1 2.0000000
  HONO-0 :    5 A1 2.0000000
  LUNO+0 :    6 A1 0.0000000
  LUNO+1 :    7 A1 0.0000000
  LUNO+2 :    3 B1 0.0000000
  LUNO+3 :    3 B2 0.0000000

Computation Completed

Properties will be evaluated at   0.000000,   0.000000,   0.000000 [a0]

Properties computed using the SCF density matrix

 Multipole Moments:

 ------------------------------------------------------------------------------------
     Multipole            Electronic (a.u.)      Nuclear  (a.u.)        Total (a.u.)
 ------------------------------------------------------------------------------------

 L = 1.  Multiply by 2.5417464519 to convert [e a0] to [Debye]
 Dipole X            :          0.0000000            0.0000000            0.0000000
 Dipole Y            :          0.0000000            0.0000000            0.0000000
 Dipole Z            :         -5.6963112            1.9064880           -3.7898232
 Magnitude           :                                                    3.7898232

 ------------------------------------------------------------------------------------

*** tstop() called on Joses-MacBook-Pro-2.local at Thu Jul 17 14:06:06 2025
Module time:
	user time   =       1.56 seconds =       0.03 minutes
	system time =       3.33 seconds =       0.06 minutes
	total time  =          0 seconds =       0.00 minutes
Total time:
	user time   =     155.04 seconds =       2.58 minutes
	system time =     331.52 seconds =       5.53 minutes
	total time  =         51 seconds =       0.85 minutes

*** tstart() called on Joses-MacBook-Pro-2.local
*** at Thu Jul 17 14:06:06 2025

         ------------------------------------------------------------
                                   SCF GRAD
                          Rob Parrish, Justin Turney,
                       Andy Simmonett, and Alex Sokolov
         ------------------------------------------------------------

  ==> Geometry <==

    Molecular point group: c2v
    Full point group: C_inf_v

    Geometry (in Angstrom), charge = 1, multiplicity = 1:

       Center              X                  Y                   Z               Mass
    ------------   -----------------  -----------------  -----------------  -----------------
         O            0.000000000000     0.000000000000     2.908630119177    15.994914619570
         NA           0.000000000000     0.000000000000    -2.023651905570    22.989769282000

  Nuclear repulsion =    9.441389260653830

  ==> Basis Set <==

  Basis Set: CC-PVDZ
    Blend: CC-PVDZ
    Number of shells: 14
    Number of basis functions: 32
    Number of Cartesian functions: 34
    Spherical Harmonics?: true
    Max angular momentum: 2

  ==> DFJKGrad: Density-Fitted SCF Gradients <==

    Gradient:                    1
    J tasked:                  Yes
    K tasked:                  Yes
    wK tasked:                  No
    OpenMP threads:              1
    Integrals threads:           1
    Memory [MiB]:              375
    Schwarz Cutoff:          1E-12
    Fitting Condition:       1E-10

   => Auxiliary Basis Set <=

  Basis Set: (CC-PVDZ AUX)
    Blend: CC-PVDZ-JKFIT + DEF2-UNIVERSAL-JKFIT
    Number of shells: 58
    Number of basis functions: 182
    Number of Cartesian functions: 218
    Spherical Harmonics?: true
    Max angular momentum: 4

  ==> DFT Potential <==

   => LibXC <=

    Version 6.2.2
    S. Lehtola, C. Steigemann, M. J.T. Oliveira, and M. A.L. Marques.,  SoftwareX 7, 1â€“5 (2018) (10.1016/j.softx.2017.11.002)

   => Composite Functional: B3LYP <=

    B3LYP Hyb-GGA Exchange-Correlation Functional

    P. J. Stephens, F. J. Devlin, C. F. Chabalowski, and M. J. Frisch.,  J. Phys. Chem. 98, 11623 (1994) (10.1021/j100096a001)

    Deriv               =              1
    GGA                 =           TRUE
    Meta                =          FALSE

    Exchange Hybrid     =           TRUE
    MP2 Hybrid          =          FALSE

   => Exchange Functionals <=

    0.0800   Slater exchange
    0.7200         Becke 88

   => Exact (HF) Exchange <=

    0.2000               HF

   => Correlation Functionals <=

    0.1900   Vosko, Wilk & Nusair (VWN5_RPA)
    0.8100   Lee, Yang & Parr

   => LibXC Density Thresholds  <==

    XC_HYB_GGA_XC_B3LYP:  1.00E-15

   => Molecular Quadrature <=

    Radial Scheme          =       TREUTLER
    Pruning Scheme         =           NONE
    Nuclear Scheme         =       TREUTLER

    Blocking Scheme        =         OCTREE
    BS radius alpha        =              1
    Pruning alpha          =              1
    Radial Points          =             75
    Spherical Points       =            302
    Total Points           =          43933
    Total Blocks           =            447
    Max Points             =            255
    Max Functions          =             32
    Weights Tolerance      =       1.00E-15

  -Total Gradient:
     Atom            X                  Y                   Z
    ------   -----------------  -----------------  -----------------
       1        0.000000000000     0.000000000000    -0.000206303449
       2       -0.000000000000     0.000000000000     0.000328191904

*** tstop() called on Joses-MacBook-Pro-2.local at Thu Jul 17 14:06:07 2025
Module time:
	user time   =       0.71 seconds =       0.01 minutes
	system time =       2.14 seconds =       0.04 minutes
	total time  =          1 seconds =       0.02 minutes
Total time:
	user time   =     155.75 seconds =       2.60 minutes
	system time =     333.68 seconds =       5.56 minutes
	total time  =         52 seconds =       0.87 minutes

    			-----------------------------------------

    			 OPTKING 3.0: for geometry optimizations

    			     By R.A. King, Bethel University

    			        with contributions from

    			    A.V. Copan, J. Cayton, A. Heide

    			-----------------------------------------

	                            ===> Fragment 1 <==

	 Z (Atomic Numbers)          Masses                          Geom
	       8.000000            15.994915          0.00000000  0.00000000  5.49651433
	      11.000000            22.989769          0.00000000  0.00000000 -3.82414787

	 - Coordinate -           - BOHR/RAD -       - ANG/DEG -
	 R(1,2)           =         9.320662           4.932282

	        --- Internal Coordinate Step in ANG or DEG, aJ/ANG or AJ/DEG ---
	-------------------------------------------------------------------------------
	           Coordinate      Previous         Force          Change          New
	           ----------      --------        ------          ------        ------
	               R(1,2)       4.93228        0.00220        0.00140       4.93368
	-------------------------------------------------------------------------------

	                                 ==> Convergence Check <==

	Measures of convergence in internal coordinates in au.

	Criteria marked as inactive (o), active & met (*), and active & unmet ( ).

	----------------------------------------------------------------------------------------------
	   Step    Total Energy     Delta E     Max Force     RMS Force      Max Disp      RMS Disp
	----------------------------------------------------------------------------------------------
	  Convergence Criteria     1.00e-06 *    3.00e-04 *             o    1.20e-03 *             o
	----------------------------------------------------------------------------------------------
	    53    -237.05636567   -8.28e-07 *    2.67e-04 *    2.67e-04 o    2.65e-03      2.65e-03 o  ~
	----------------------------------------------------------------------------------------------

Next Geometry in Ang
	Fragment 1 (Ang)

	    O   0.0000000000   0.0000000000   2.9093313654
	   Na   0.0000000000   0.0000000000  -2.0243531518

    Final optimized geometry and variables:
    Molecular point group: c2v
    Full point group: C_inf_v

    Geometry (in Angstrom), charge = 1, multiplicity = 1:

    O            0.000000000000     0.000000000000     2.908630119177
    NA           0.000000000000     0.000000000000    -2.023651905570

    Psi4 stopped on: Thursday, 17 July 2025 02:06PM
    Psi4 wall time for execution: 0:00:52.67

*** Psi4 exiting successfully. Buy a developer a beer!
