                               Psi4 1.9.1 release

  ==> Input File <==

--------------------------------------------------------------------------
molecule {
1 1
Li   0.00000        0.60000        0.00000
S   0.00000       -0.60000        0.00000
}

set {
basis              cc-pvdz
reference          uks
maxiter            500
geom_maxiter       500
DAMPING_PERCENTAGE 1
guess              SAP
}

optimize('b3lyp')
--------------------------------------------------------------------------

    Molecular point group: c2v
  Charge       = 1
  Multiplicity = 1
  Basis Set: CC-PVDZ
    Blend: CC-PVDZ
  Basis Set: (CC-PVDZ AUX)
    Blend: CC-PVDZ-JKFIT + DEF2-UNIVERSAL-JKFIT
  @DF-UKS Final Energy:  -404.94797648246066
    Total Energy =                       -404.9479764824606036
 Dipole X            :          0.0000000            0.0000000            0.0000000
 Dipole Y            :          0.0000000            0.0000000            0.0000000
 Dipole Z            :          1.8743960           -0.9503775            0.9240185
 Magnitude           :                                                    0.9240185
    Molecular point group: c2v
  Basis Set: CC-PVDZ
    Blend: CC-PVDZ
  Basis Set: (CC-PVDZ AUX)
    Blend: CC-PVDZ-JKFIT + DEF2-UNIVERSAL-JKFIT
  Basis Set: CC-PVDZ
    Blend: CC-PVDZ
  Basis Set: (CC-PVDZ AUX)
    Blend: CC-PVDZ-JKFIT + DEF2-UNIVERSAL-JKFIT
  @DF-UKS Final Energy:  -405.03665970770322
    Total Energy =                       -405.0366597077032793
  Basis Set: CC-PVDZ
    Blend: CC-PVDZ
  Basis Set: (CC-PVDZ AUX)
    Blend: CC-PVDZ-JKFIT + DEF2-UNIVERSAL-JKFIT
  Basis Set: CC-PVDZ
    Blend: CC-PVDZ
  @DF-UKS Final Energy:  -405.13275136304190
    Total Energy =                       -405.1327513630419617
  @DF-UKS Final Energy:  -405.22492363085195
    Total Energy =                       -405.2249236308519471
  @DF-UKS Final Energy:  -405.27423763833588
    Total Energy =                       -405.2742376383358760
  @DF-UKS Final Energy:  -405.30108573227528
    Total Energy =                       -405.3010857322752827
  @DF-UKS Final Energy:  -405.31650190161724
    Total Energy =                       -405.3165019016171868
  @DF-UKS Final Energy:  -405.32563657283765
    Total Energy =                       -405.3256365728377091
  @DF-UKS Final Energy:  -405.33124303693893
    Total Energy =                       -405.3312430369389290
  @DF-UKS Final Energy:  -405.33487526397397
    Total Energy =                       -405.3348752639739700
  @DF-UKS Final Energy:  -405.33740598386117
    Total Energy =                       -405.3374059838612311
  @DF-UKS Final Energy:  -405.33748948504467
    Total Energy =                       -405.3374894850446140
  @DF-UKS Final Energy:  -405.33962226322240
    Total Energy =                       -405.3396222632223953
  @DF-UKS Final Energy:  -405.33966473609513
    Total Energy =                       -405.3396647360951306
  @DF-UKS Final Energy:  -405.34134039263057
    Total Energy =                       -405.3413403926305705
  @DF-UKS Final Energy:  -405.34136702351418
    Total Energy =                       -405.3413670235141808
  @DF-UKS Final Energy:  -405.34272093802502
    Total Energy =                       -405.3427209380249678
  @DF-UKS Final Energy:  -405.34273884685905
    Total Energy =                       -405.3427388468590493
  @DF-UKS Final Energy:  -405.34275666632385
    Total Energy =                       -405.3427566663238508
  @DF-UKS Final Energy:  -405.34379593937120
    Total Energy =                       -405.3437959393712049
  @DF-UKS Final Energy:  -405.34567705230717
    Total Energy =                       -405.3456770523071668
  @DF-UKS Final Energy:  -405.34602336361689
    Total Energy =                       -405.3460233636168937
  @DF-UKS Final Energy:  -405.34602532982279
    Total Energy =                       -405.3460253298227940
  @DF-UKS Final Energy:  -405.34602729083224
    Total Energy =                       -405.3460272908322395
  @DF-UKS Final Energy:  -405.34602924688409
    Total Energy =                       -405.3460292468840862
  @DF-UKS Final Energy:  -405.34603119800664
    Total Energy =                       -405.3460311980065853
  @DF-UKS Final Energy:  -405.34603314424760
    Total Energy =                       -405.3460331442475990
  @DF-UKS Final Energy:  -405.34603508560303
    Total Energy =                       -405.3460350856030345
  @DF-UKS Final Energy:  -405.34631040411460
    Total Energy =                       -405.3463104041146039
  @DF-UKS Final Energy:  -405.34631171542702
    Total Energy =                       -405.3463117154270208
  @DF-UKS Final Energy:  -405.34631303048872
    Total Energy =                       -405.3463130304887727
  @DF-UKS Final Energy:  -405.34631434291202
    Total Energy =                       -405.3463143429120237
  @DF-UKS Final Energy:  -405.34631565280620
    Total Energy =                       -405.3463156528061972
  @DF-UKS Final Energy:  -405.34631696020040
    Total Energy =                       -405.3463169602002836
  @DF-UKS Final Energy:  -405.34631826507945
    Total Energy =                       -405.3463182650794465
  @DF-UKS Final Energy:  -405.34631956751252
    Total Energy =                       -405.3463195675125235
  @DF-UKS Final Energy:  -405.34632086746245
    Total Energy =                       -405.3463208674624525
  @DF-UKS Final Energy:  -405.34632216492463
    Total Energy =                       -405.3463221649246293
  Basis Set: (CC-PVDZ AUX)
    Blend: CC-PVDZ-JKFIT + DEF2-UNIVERSAL-JKFIT
  Basis Set: CC-PVDZ
    Blend: CC-PVDZ
  Basis Set: (CC-PVDZ AUX)
    Blend: CC-PVDZ-JKFIT + DEF2-UNIVERSAL-JKFIT
  @DF-UKS Final Energy:  -405.34654137348628
    Total Energy =                       -405.3465413734862750
  Basis Set: CC-PVDZ
    Blend: CC-PVDZ
  Basis Set: (CC-PVDZ AUX)
    Blend: CC-PVDZ-JKFIT + DEF2-UNIVERSAL-JKFIT
  Charge       = 1
  Multiplicity = 1
  Basis Set: CC-PVDZ
    Blend: CC-PVDZ
  Basis Set: (CC-PVDZ AUX)
    Blend: CC-PVDZ-JKFIT + DEF2-UNIVERSAL-JKFIT

    Orbital Energies [Eh]
    ---------------------

    Alpha Occupied:

       1A1   -89.011679     2A1    -8.066246     3A1    -6.043813
       1B1    -6.017773     1B2    -6.017773     4A1    -2.351884
       5A1    -0.748871     2B1    -0.340581     2B2    -0.340581

    Alpha Virtual:

       6A1    -0.306951     7A1    -0.252439     8A1    -0.175804
       3B2    -0.175540     3B1    -0.175540     9A1    -0.061992
       4B2    -0.061681     4B1    -0.061681    10A1    -0.040974
      11A1     0.074731     5B1     0.074864     5B2     0.074864
       1A2     0.075072    12A1     0.075078    13A1     0.389083
      14A1     0.395523     6B2     0.419416     6B1     0.419416
      15A1     0.495141     7B2     0.498115     7B1     0.498115
       2A2     0.532412    16A1     0.532437

    Beta Occupied:

       1A1   -89.011679     2A1    -8.066246     3A1    -6.043813
       1B1    -6.017773     1B2    -6.017773     4A1    -2.351884
       5A1    -0.748871     2B2    -0.340581     2B1    -0.340581

    Beta Virtual:

       6A1    -0.306951     7A1    -0.252439     8A1    -0.175804
       3B2    -0.175540     3B1    -0.175540     9A1    -0.061992
       4B2    -0.061681     4B1    -0.061681    10A1    -0.040974
      11A1     0.074731     5B1     0.074864     5B2     0.074864
       1A2     0.075072    12A1     0.075078    13A1     0.389083
      14A1     0.395523     6B2     0.419416     6B1     0.419416
      15A1     0.495141     7B2     0.498115     7B1     0.498115
       2A2     0.532412    16A1     0.532437

    Final Occupation by Irrep:
             A1    A2    B1    B2
    DOCC [     5,    0,    2,    2 ]
    SOCC [     0,    0,    0,    0 ]
    NA   [     5,    0,    2,    2 ]
    NB   [     5,    0,    2,    2 ]

  @DF-UKS Final Energy:  -405.34654226792958

   => Energetics <=

    Nuclear Repulsion Energy =              3.2971262084091464
    One-Electron Energy =                -563.7454751613527151
    Two-Electron Energy =                 177.0960543417892552
    DFT Exchange-Correlation Energy =     -21.9942476567753324
    Empirical Dispersion Energy =           0.0000000000000000
    VV10 Nonlocal Energy =                  0.0000000000000000
    Total Energy =                       -405.3465422679296353

  UHF NO Occupations:
  HONO-2 :    2 B2 2.0000000
  HONO-1 :    4 A1 2.0000000
  HONO-0 :    5 A1 2.0000000
  LUNO+0 :    6 A1 0.0000000
  LUNO+1 :    7 A1 0.0000000
  LUNO+2 :    8 A1 0.0000000
  LUNO+3 :    9 A1 0.0000000

Computation Completed

Properties will be evaluated at   0.000000,   0.000000,   0.000000 [a0]

Properties computed using the SCF density matrix

 Multipole Moments:

 ------------------------------------------------------------------------------------
     Multipole            Electronic (a.u.)      Nuclear  (a.u.)        Total (a.u.)
 ------------------------------------------------------------------------------------

 L = 1.  Multiply by 2.5417464519 to convert [e a0] to [Debye]
 Dipole X            :          0.0000000            0.0000000            0.0000000
 Dipole Y            :          0.0000000            0.0000000            0.0000000
 Dipole Z            :         17.9985991           -6.1012907           11.8973085
 Magnitude           :                                                   11.8973085

 ------------------------------------------------------------------------------------

*** tstop() called on Joses-MacBook-Pro-2.local at Thu Jul 17 12:56:39 2025
Module time:
	user time   =       2.17 seconds =       0.04 minutes
	system time =       1.47 seconds =       0.02 minutes
	total time  =          0 seconds =       0.00 minutes
Total time:
	user time   =     181.65 seconds =       3.03 minutes
	system time =     259.57 seconds =       4.33 minutes
	total time  =         42 seconds =       0.70 minutes

*** tstart() called on Joses-MacBook-Pro-2.local
*** at Thu Jul 17 12:56:39 2025

         ------------------------------------------------------------
                                   SCF GRAD
                          Rob Parrish, Justin Turney,
                       Andy Simmonett, and Alex Sokolov
         ------------------------------------------------------------

  ==> Geometry <==

    Molecular point group: c2v
    Full point group: C_inf_v

    Geometry (in Angstrom), charge = 1, multiplicity = 1:

       Center              X                  Y                   Z               Mass
    ------------   -----------------  -----------------  -----------------  -----------------
         LI           0.000000000000     0.000000000000     6.317507718959     7.016003436600
         S            0.000000000000     0.000000000000    -1.386324196052    31.972071174400

  Nuclear repulsion =    3.297126208409146

  ==> Basis Set <==

  Basis Set: CC-PVDZ
    Blend: CC-PVDZ
    Number of shells: 14
    Number of basis functions: 32
    Number of Cartesian functions: 34
    Spherical Harmonics?: true
    Max angular momentum: 2

  ==> DFJKGrad: Density-Fitted SCF Gradients <==

    Gradient:                    1
    J tasked:                  Yes
    K tasked:                  Yes
    wK tasked:                  No
    OpenMP threads:              1
    Integrals threads:           1
    Memory [MiB]:              375
    Schwarz Cutoff:          1E-12
    Fitting Condition:       1E-10

   => Auxiliary Basis Set <=

  Basis Set: (CC-PVDZ AUX)
    Blend: CC-PVDZ-JKFIT + DEF2-UNIVERSAL-JKFIT
    Number of shells: 53
    Number of basis functions: 163
    Number of Cartesian functions: 190
    Spherical Harmonics?: true
    Max angular momentum: 3

  ==> DFT Potential <==

   => LibXC <=

    Version 6.2.2
    S. Lehtola, C. Steigemann, M. J.T. Oliveira, and M. A.L. Marques.,  SoftwareX 7, 1â€“5 (2018) (10.1016/j.softx.2017.11.002)

   => Composite Functional: B3LYP <=

    B3LYP Hyb-GGA Exchange-Correlation Functional

    P. J. Stephens, F. J. Devlin, C. F. Chabalowski, and M. J. Frisch.,  J. Phys. Chem. 98, 11623 (1994) (10.1021/j100096a001)

    Deriv               =              1
    GGA                 =           TRUE
    Meta                =          FALSE

    Exchange Hybrid     =           TRUE
    MP2 Hybrid          =          FALSE

   => Exchange Functionals <=

    0.0800   Slater exchange
    0.7200         Becke 88

   => Exact (HF) Exchange <=

    0.2000               HF

   => Correlation Functionals <=

    0.1900   Vosko, Wilk & Nusair (VWN5_RPA)
    0.8100   Lee, Yang & Parr

   => LibXC Density Thresholds  <==

    XC_HYB_GGA_XC_B3LYP:  1.00E-15

   => Molecular Quadrature <=

    Radial Scheme          =       TREUTLER
    Pruning Scheme         =           NONE
    Nuclear Scheme         =       TREUTLER

    Blocking Scheme        =         OCTREE
    BS radius alpha        =              1
    Pruning alpha          =              1
    Radial Points          =             75
    Spherical Points       =            302
    Total Points           =          44453
    Total Blocks           =            469
    Max Points             =            256
    Max Functions          =             32
    Weights Tolerance      =       1.00E-15

  -Total Gradient:
     Atom            X                  Y                   Z
    ------   -----------------  -----------------  -----------------
       1        0.000000000000     0.000000000000    -0.000222042194
       2        0.000000000000     0.000000000000     0.000210601030

*** tstop() called on Joses-MacBook-Pro-2.local at Thu Jul 17 12:56:39 2025
Module time:
	user time   =       0.85 seconds =       0.01 minutes
	system time =       1.30 seconds =       0.02 minutes
	total time  =          0 seconds =       0.00 minutes
Total time:
	user time   =     182.50 seconds =       3.04 minutes
	system time =     260.87 seconds =       4.35 minutes
	total time  =         42 seconds =       0.70 minutes

    			-----------------------------------------

    			 OPTKING 3.0: for geometry optimizations

    			     By R.A. King, Bethel University

    			        with contributions from

    			    A.V. Copan, J. Cayton, A. Heide

    			-----------------------------------------

	                            ===> Fragment 1 <==

	 Z (Atomic Numbers)          Masses                          Geom
	       3.000000             7.016003          0.00000000   0.00000000  11.93835938
	      16.000000            31.972071          0.00000000  0.00000000 -2.61977305

	 - Coordinate -           - BOHR/RAD -       - ANG/DEG -
	 R(1,2)           =        14.558132           7.703832

	        --- Internal Coordinate Step in ANG or DEG, aJ/ANG or AJ/DEG ---
	-------------------------------------------------------------------------------
	           Coordinate      Previous         Force          Change          New
	           ----------      --------        ------          ------        ------
	               R(1,2)       7.70383        0.00178        0.00214       7.70597
	-------------------------------------------------------------------------------

	                                 ==> Convergence Check <==

	Measures of convergence in internal coordinates in au.

	Criteria marked as inactive (o), active & met (*), and active & unmet ( ).

	----------------------------------------------------------------------------------------------
	   Step    Total Energy     Delta E     Max Force     RMS Force      Max Disp      RMS Disp
	----------------------------------------------------------------------------------------------
	  Convergence Criteria     1.00e-06 *    3.00e-04 *             o    1.20e-03 *             o
	----------------------------------------------------------------------------------------------
	    55    -405.34654227   -8.94e-07 *    2.16e-04 *    2.16e-04 o    4.05e-03      4.05e-03 o  ~
	----------------------------------------------------------------------------------------------

Next Geometry in Ang
	Fragment 1 (Ang)

	   Li   0.0000000000   0.0000000000   6.3185788360
	    S   0.0000000000   0.0000000000  -1.3873953131

    Final optimized geometry and variables:
    Molecular point group: c2v
    Full point group: C_inf_v

    Geometry (in Angstrom), charge = 1, multiplicity = 1:

    LI           0.000000000000     0.000000000000     6.317507718959
    S            0.000000000000     0.000000000000    -1.386324196052

    Psi4 stopped on: Thursday, 17 July 2025 12:56PM
    Psi4 wall time for execution: 0:00:43.21

*** Psi4 exiting successfully. Buy a developer a beer!
