                               Psi4 1.9.1 release

  ==> Input File <==

--------------------------------------------------------------------------
molecule {
1 1
Al   0.00000        0.60000        0.00000
Si   0.00000       -0.60000        0.00000
}

set {
basis              cc-pvdz
reference          uks
maxiter            500
geom_maxiter       500
DAMPING_PERCENTAGE 1
guess              SAP
}

optimize('b3lyp')
--------------------------------------------------------------------------

    Molecular point group: c2v
  Charge       = 1
  Multiplicity = 1
  Basis Set: CC-PVDZ
    Blend: CC-PVDZ
  Basis Set: (CC-PVDZ AUX)
    Blend: CC-PVDZ-JKFIT
  @DF-UKS Final Energy:  -530.42067746305918
    Total Energy =                       -530.4206774630591781
 Dipole X            :          0.0000000            0.0000000            0.0000000
 Dipole Y            :          0.0000000            0.0000000            0.0000000
 Dipole Z            :          1.2294256           -0.5793738            0.6500518
 Magnitude           :                                                    0.6500518
    Molecular point group: c2v
  Basis Set: CC-PVDZ
    Blend: CC-PVDZ
  Basis Set: (CC-PVDZ AUX)
    Blend: CC-PVDZ-JKFIT
  Basis Set: CC-PVDZ
    Blend: CC-PVDZ
  Basis Set: (CC-PVDZ AUX)
    Blend: CC-PVDZ-JKFIT
  @DF-UKS Final Energy:  -530.43475384263172
    Total Energy =                       -530.4347538426317215
  Basis Set: CC-PVDZ
    Blend: CC-PVDZ
  Basis Set: (CC-PVDZ AUX)
    Blend: CC-PVDZ-JKFIT
  Basis Set: CC-PVDZ
    Blend: CC-PVDZ
  @DF-UKS Final Energy:  -530.46191307970525
    Total Energy =                       -530.4619130797052549
  @DF-UKS Final Energy:  -530.56023026326375
    Total Energy =                       -530.5602302632637475
  @DF-UKS Final Energy:  -531.02026580979816
    Total Energy =                       -531.0202658097981612
  @DF-UKS Final Energy:  -531.33467322180695
    Total Energy =                       -531.3346732218069519
  @DF-UKS Final Energy:  -531.45409377877866
    Total Energy =                       -531.4540937787786561
  @DF-UKS Final Energy:  -531.50925624862327
    Total Energy =                       -531.5092562486232737
  @DF-UKS Final Energy:  -531.53201761638672
    Total Energy =                       -531.5320176163867245
  @DF-UKS Final Energy:  -531.54043266584029
    Total Energy =                       -531.5404326658402852
  @DF-UKS Final Energy:  -531.54290314705850
    Total Energy =                       -531.5429031470584960
  @DF-UKS Final Energy:  -531.54332051874917
    Total Energy =                       -531.5433205187491694
  @DF-UKS Final Energy:  -531.54340368795113
    Total Energy =                       -531.5434036879511268
  @DF-UKS Final Energy:  -531.54342496280969
    Total Energy =                       -531.5434249628096950
  Basis Set: (CC-PVDZ AUX)
    Blend: CC-PVDZ-JKFIT
  Basis Set: CC-PVDZ
    Blend: CC-PVDZ
  Basis Set: (CC-PVDZ AUX)
    Blend: CC-PVDZ-JKFIT
  @DF-UKS Final Energy:  -531.54342699323638
    Total Energy =                       -531.5434269932363804
  Basis Set: CC-PVDZ
    Blend: CC-PVDZ
  Basis Set: (CC-PVDZ AUX)
    Blend: CC-PVDZ-JKFIT
  Charge       = 1
  Multiplicity = 1
  Basis Set: CC-PVDZ
    Blend: CC-PVDZ
  Basis Set: (CC-PVDZ AUX)
    Blend: CC-PVDZ-JKFIT

    Orbital Energies [Eh]
    ---------------------

    Alpha Occupied:

       1A1   -66.417118     2A1   -56.348187     3A1    -5.554637
       4A1    -4.422694     1B2    -3.917544     5A1    -3.915218
       1B1    -3.904469     2B2    -2.976565     6A1    -2.975974
       2B1    -2.972170     7A1    -0.686070     8A1    -0.529045
       3B1    -0.385691

    Alpha Virtual:

       9A1    -0.362248     3B2    -0.350899     4B2    -0.259454
       4B1    -0.255602    10A1    -0.161013    11A1    -0.052535
       5B2     0.000550    12A1     0.002281     5B1     0.005930
       1A2     0.039626     6B2     0.039687    13A1     0.040927
       6B1     0.046839    14A1     0.065216     7B2     0.131664
       7B1     0.143919     2A2     0.171005    15A1     0.173411
      16A1     0.193670    17A1     0.262707     8B2     0.291891
       8B1     0.304959    18A1     0.519586

    Beta Occupied:

       1A1   -66.417118     2A1   -56.348187     3A1    -5.554637
       4A1    -4.422694     1B2    -3.917544     5A1    -3.915218
       1B1    -3.904469     2B2    -2.976565     6A1    -2.975974
       2B1    -2.972170     7A1    -0.686070     8A1    -0.529045
       3B1    -0.385691

    Beta Virtual:

       9A1    -0.362248     3B2    -0.350899     4B2    -0.259454
       4B1    -0.255602    10A1    -0.161013    11A1    -0.052535
       5B2     0.000550    12A1     0.002281     5B1     0.005930
       1A2     0.039626     6B2     0.039687    13A1     0.040927
       6B1     0.046839    14A1     0.065216     7B2     0.131664
       7B1     0.143919     2A2     0.171005    15A1     0.173411
      16A1     0.193670    17A1     0.262707     8B2     0.291891
       8B1     0.304959    18A1     0.519586

    Final Occupation by Irrep:
             A1    A2    B1    B2
    DOCC [     8,    0,    3,    2 ]
    SOCC [     0,    0,    0,    0 ]
    NA   [     8,    0,    3,    2 ]
    NB   [     8,    0,    3,    2 ]

  @DF-UKS Final Energy:  -531.54342720620798

   => Energetics <=

    Nuclear Repulsion Energy =             38.7764488147197781
    One-Electron Energy =                -808.1156773540112681
    Two-Electron Energy =                 269.3672513049034478
    DFT Exchange-Correlation Energy =     -31.5714499718198454
    Empirical Dispersion Energy =           0.0000000000000000
    VV10 Nonlocal Energy =                  0.0000000000000000
    Total Energy =                       -531.5434272062079799

  UHF NO Occupations:
  HONO-2 :    1 B2 2.0000000
  HONO-1 :    3 B1 2.0000000
  HONO-0 :    2 B2 2.0000000
  LUNO+0 :    9 A1 0.0000000
  LUNO+1 :    3 B2 0.0000000
  LUNO+2 :   10 A1 0.0000000
  LUNO+3 :   11 A1 0.0000000

Computation Completed

Properties will be evaluated at   0.000000,   0.000000,   0.000000 [a0]

Properties computed using the SCF density matrix

 Multipole Moments:

 ------------------------------------------------------------------------------------
     Multipole            Electronic (a.u.)      Nuclear  (a.u.)        Total (a.u.)
 ------------------------------------------------------------------------------------

 L = 1.  Multiply by 2.5417464519 to convert [e a0] to [Debye]
 Dipole X            :          0.0000000            0.0000000            0.0000000
 Dipole Y            :          0.0000000            0.0000000            0.0000000
 Dipole Z            :          2.0718049           -1.1991737            0.8726312
 Magnitude           :                                                    0.8726312

 ------------------------------------------------------------------------------------

*** tstop() called on Joses-MacBook-Pro-2.local at Thu Jul 17 15:16:05 2025
Module time:
	user time   =       6.18 seconds =       0.10 minutes
	system time =       1.93 seconds =       0.03 minutes
	total time  =          0 seconds =       0.00 minutes
Total time:
	user time   =     186.67 seconds =       3.11 minutes
	system time =      46.60 seconds =       0.78 minutes
	total time  =         22 seconds =       0.37 minutes

*** tstart() called on Joses-MacBook-Pro-2.local
*** at Thu Jul 17 15:16:05 2025

         ------------------------------------------------------------
                                   SCF GRAD
                          Rob Parrish, Justin Turney,
                       Andy Simmonett, and Alex Sokolov
         ------------------------------------------------------------

  ==> Geometry <==

    Molecular point group: c2v
    Full point group: C_inf_v

    Geometry (in Angstrom), charge = 1, multiplicity = 1:

       Center              X                  Y                   Z               Mass
    ------------   -----------------  -----------------  -----------------  -----------------
         AL           0.000000000000     0.000000000000     1.264357517016    26.981538530000
         SI           0.000000000000     0.000000000000    -1.219373079412    27.976926534650

  Nuclear repulsion =   38.776448814719778

  ==> Basis Set <==

  Basis Set: CC-PVDZ
    Blend: CC-PVDZ
    Number of shells: 16
    Number of basis functions: 36
    Number of Cartesian functions: 38
    Spherical Harmonics?: true
    Max angular momentum: 2

  ==> DFJKGrad: Density-Fitted SCF Gradients <==

    Gradient:                    1
    J tasked:                  Yes
    K tasked:                  Yes
    wK tasked:                  No
    OpenMP threads:              1
    Integrals threads:           1
    Memory [MiB]:              375
    Schwarz Cutoff:          1E-12
    Fitting Condition:       1E-10

   => Auxiliary Basis Set <=

  Basis Set: (CC-PVDZ AUX)
    Blend: CC-PVDZ-JKFIT
    Number of shells: 72
    Number of basis functions: 224
    Number of Cartesian functions: 260
    Spherical Harmonics?: true
    Max angular momentum: 3

  ==> DFT Potential <==

   => LibXC <=

    Version 6.2.2
    S. Lehtola, C. Steigemann, M. J.T. Oliveira, and M. A.L. Marques.,  SoftwareX 7, 1â€“5 (2018) (10.1016/j.softx.2017.11.002)

   => Composite Functional: B3LYP <=

    B3LYP Hyb-GGA Exchange-Correlation Functional

    P. J. Stephens, F. J. Devlin, C. F. Chabalowski, and M. J. Frisch.,  J. Phys. Chem. 98, 11623 (1994) (10.1021/j100096a001)

    Deriv               =              1
    GGA                 =           TRUE
    Meta                =          FALSE

    Exchange Hybrid     =           TRUE
    MP2 Hybrid          =          FALSE

   => Exchange Functionals <=

    0.0800   Slater exchange
    0.7200         Becke 88

   => Exact (HF) Exchange <=

    0.2000               HF

   => Correlation Functionals <=

    0.1900   Vosko, Wilk & Nusair (VWN5_RPA)
    0.8100   Lee, Yang & Parr

   => LibXC Density Thresholds  <==

    XC_HYB_GGA_XC_B3LYP:  1.00E-15

   => Molecular Quadrature <=

    Radial Scheme          =       TREUTLER
    Pruning Scheme         =           NONE
    Nuclear Scheme         =       TREUTLER

    Blocking Scheme        =         OCTREE
    BS radius alpha        =              1
    Pruning alpha          =              1
    Radial Points          =             75
    Spherical Points       =            302
    Total Points           =          42411
    Total Blocks           =            405
    Max Points             =            252
    Max Functions          =             36
    Weights Tolerance      =       1.00E-15

  -Total Gradient:
     Atom            X                  Y                   Z
    ------   -----------------  -----------------  -----------------
       1        0.000000000000     0.000000000000    -0.000020520195
       2        0.000000000000     0.000000000000     0.000027917993

*** tstop() called on Joses-MacBook-Pro-2.local at Thu Jul 17 15:16:06 2025
Module time:
	user time   =       2.68 seconds =       0.04 minutes
	system time =       1.08 seconds =       0.02 minutes
	total time  =          1 seconds =       0.02 minutes
Total time:
	user time   =     189.35 seconds =       3.16 minutes
	system time =      47.69 seconds =       0.79 minutes
	total time  =         23 seconds =       0.38 minutes

    			-----------------------------------------

    			 OPTKING 3.0: for geometry optimizations

    			     By R.A. King, Bethel University

    			        with contributions from

    			    A.V. Copan, J. Cayton, A. Heide

    			-----------------------------------------

	                            ===> Fragment 1 <==

	 Z (Atomic Numbers)          Masses                          Geom
	      13.000000            26.981539          0.00000000  0.00000000  2.38928943
	      14.000000            27.976927          0.00000000  0.00000000 -2.30428116

	 - Coordinate -           - BOHR/RAD -       - ANG/DEG -
	 R(1,2)           =         4.693571           2.483731

	        --- Internal Coordinate Step in ANG or DEG, aJ/ANG or AJ/DEG ---
	-------------------------------------------------------------------------------
	           Coordinate      Previous         Force          Change          New
	           ----------      --------        ------          ------        ------
	               R(1,2)       2.48373        0.00020        0.00024       2.48397
	-------------------------------------------------------------------------------

	                                 ==> Convergence Check <==

	Measures of convergence in internal coordinates in au.

	Criteria marked as inactive (o), active & met (*), and active & unmet ( ).

	----------------------------------------------------------------------------------------------
	   Step    Total Energy     Delta E     Max Force     RMS Force      Max Disp      RMS Disp
	----------------------------------------------------------------------------------------------
	  Convergence Criteria     1.00e-06 *    3.00e-04 *             o    1.20e-03 *             o
	----------------------------------------------------------------------------------------------
	    16    -531.54342721   -2.13e-07 *    2.42e-05 *    2.42e-05 o    4.46e-04 *    4.46e-04 o  ~
	----------------------------------------------------------------------------------------------

Next Geometry in Ang
	Fragment 1 (Ang)

	   Al   0.0000000000   0.0000000000   1.2644756227
	   Si   0.0000000000   0.0000000000  -1.2194911851

    Final optimized geometry and variables:
    Molecular point group: c2v
    Full point group: C_inf_v

    Geometry (in Angstrom), charge = 1, multiplicity = 1:

    AL           0.000000000000     0.000000000000     1.264357517016
    SI           0.000000000000     0.000000000000    -1.219373079412

    Psi4 stopped on: Thursday, 17 July 2025 03:16PM
    Psi4 wall time for execution: 0:00:23.03

*** Psi4 exiting successfully. Buy a developer a beer!
