                               Psi4 1.9.1 release

  ==> Input File <==

--------------------------------------------------------------------------
molecule {
1 1
C   0.00000        0.60000        0.00000
Cl   0.00000       -0.60000        0.00000
}

set {
basis              cc-pvdz
reference          uks
maxiter            500
geom_maxiter       500
DAMPING_PERCENTAGE 1
guess              SAP
}

optimize('b3lyp')
--------------------------------------------------------------------------

    Molecular point group: c2v
  Charge       = 1
  Multiplicity = 1
  Basis Set: CC-PVDZ
    Blend: CC-PVDZ
  Basis Set: (CC-PVDZ AUX)
    Blend: CC-PVDZ-JKFIT
  @DF-UKS Final Energy:  -497.59706019868975
    Total Energy =                       -497.5970601986896895
 Dipole X            :          0.0000000            0.0000000            0.0000000
 Dipole Y            :          0.0000000            0.0000000            0.0000000
 Dipole Z            :         -1.1565161            0.2806591           -0.8758570
 Magnitude           :                                                    0.8758570
    Molecular point group: c2v
  Basis Set: CC-PVDZ
    Blend: CC-PVDZ
  Basis Set: (CC-PVDZ AUX)
    Blend: CC-PVDZ-JKFIT
  Basis Set: CC-PVDZ
    Blend: CC-PVDZ
  Basis Set: (CC-PVDZ AUX)
    Blend: CC-PVDZ-JKFIT
  @DF-UKS Final Energy:  -497.74581833580527
    Total Energy =                       -497.7458183358053248
  Basis Set: CC-PVDZ
    Blend: CC-PVDZ
  Basis Set: (CC-PVDZ AUX)
    Blend: CC-PVDZ-JKFIT
  Basis Set: CC-PVDZ
    Blend: CC-PVDZ
  @DF-UKS Final Energy:  -497.80258456070032
    Total Energy =                       -497.8025845607003248
  @DF-UKS Final Energy:  -497.81779166731496
    Total Energy =                       -497.8177916673149070
  @DF-UKS Final Energy:  -497.82415696897095
    Total Energy =                       -497.8241569689709536
  @DF-UKS Final Energy:  -497.82552737006040
    Total Energy =                       -497.8255273700603993
  @DF-UKS Final Energy:  -497.82585897726102
    Total Energy =                       -497.8258589772610208
  @DF-UKS Final Energy:  -497.82596088079691
    Total Energy =                       -497.8259608807969130
  Basis Set: (CC-PVDZ AUX)
    Blend: CC-PVDZ-JKFIT
  Basis Set: CC-PVDZ
    Blend: CC-PVDZ
  Basis Set: (CC-PVDZ AUX)
    Blend: CC-PVDZ-JKFIT
  @DF-UKS Final Energy:  -497.82597399056908
    Total Energy =                       -497.8259739905690822
  Basis Set: CC-PVDZ
    Blend: CC-PVDZ
  Basis Set: (CC-PVDZ AUX)
    Blend: CC-PVDZ-JKFIT
  Charge       = 1
  Multiplicity = 1
  Basis Set: CC-PVDZ
    Blend: CC-PVDZ
  Basis Set: (CC-PVDZ AUX)
    Blend: CC-PVDZ-JKFIT

    Orbital Energies [Eh]
    ---------------------

    Alpha Occupied:

       1A1  -101.976297     2A1   -10.705783     3A1    -9.894243
       4A1    -7.652841     1B1    -7.648789     1B2    -7.648789
       5A1    -1.305839     6A1    -0.943327     2B2    -0.749267
       2B1    -0.749267     7A1    -0.679317

    Alpha Virtual:

       3B1    -0.443302     3B2    -0.443302     8A1    -0.213936
       9A1     0.081839     4B2     0.169927     4B1     0.169927
      10A1     0.208001     5B1     0.239070     5B2     0.239070
      11A1     0.254402    12A1     0.317333     1A2     0.317333
       6B2     0.344438     6B1     0.344438    13A1     0.596004
      14A1     0.827706     2A2     0.827706    15A1     0.869898
       7B1     1.119403     7B2     1.119403    16A1     1.481921

    Beta Occupied:

       1A1  -101.976297     2A1   -10.705783     3A1    -9.894243
       4A1    -7.652841     1B1    -7.648789     1B2    -7.648789
       5A1    -1.305839     6A1    -0.943327     2B2    -0.749267
       2B1    -0.749267     7A1    -0.679317

    Beta Virtual:

       3B1    -0.443302     3B2    -0.443302     8A1    -0.213936
       9A1     0.081839     4B2     0.169927     4B1     0.169927
      10A1     0.208001     5B1     0.239070     5B2     0.239070
      11A1     0.254402    12A1     0.317333     1A2     0.317333
       6B2     0.344438     6B1     0.344438    13A1     0.596004
      14A1     0.827706     2A2     0.827706    15A1     0.869898
       7B1     1.119403     7B2     1.119403    16A1     1.481921

    Final Occupation by Irrep:
             A1    A2    B1    B2
    DOCC [     7,    0,    2,    2 ]
    SOCC [     0,    0,    0,    0 ]
    NA   [     7,    0,    2,    2 ]
    NB   [     7,    0,    2,    2 ]

  @DF-UKS Final Energy:  -497.82597473203970

   => Energetics <=

    Nuclear Repulsion Energy =             34.6633745655138128
    One-Electron Energy =                -746.0213399617282448
    Two-Electron Energy =                 240.2785002449630554
    DFT Exchange-Correlation Energy =     -26.7465095807882882
    Empirical Dispersion Energy =           0.0000000000000000
    VV10 Nonlocal Energy =                  0.0000000000000000
    Total Energy =                       -497.8259747320396968

  UHF NO Occupations:
  HONO-2 :    2 B2 2.0000000
  HONO-1 :    6 A1 2.0000000
  HONO-0 :    7 A1 2.0000000
  LUNO+0 :    8 A1 0.0000000
  LUNO+1 :    9 A1 0.0000000
  LUNO+2 :   10 A1 0.0000000
  LUNO+3 :   11 A1 0.0000000

Computation Completed

Properties will be evaluated at   0.000000,   0.000000,   0.000000 [a0]

Properties computed using the SCF density matrix

 Multipole Moments:

 ------------------------------------------------------------------------------------
     Multipole            Electronic (a.u.)      Nuclear  (a.u.)        Total (a.u.)
 ------------------------------------------------------------------------------------

 L = 1.  Multiply by 2.5417464519 to convert [e a0] to [Debye]
 Dipole X            :          0.0000000            0.0000000            0.0000000
 Dipole Y            :          0.0000000            0.0000000            0.0000000
 Dipole Z            :         -0.3423754            0.3641903            0.0218149
 Magnitude           :                                                    0.0218149

 ------------------------------------------------------------------------------------

*** tstop() called on Joses-MacBook-Pro-2.local at Thu Jul 17 13:46:36 2025
Module time:
	user time   =       1.68 seconds =       0.03 minutes
	system time =       4.65 seconds =       0.08 minutes
	total time  =          0 seconds =       0.00 minutes
Total time:
	user time   =      37.41 seconds =       0.62 minutes
	system time =      59.97 seconds =       1.00 minutes
	total time  =          9 seconds =       0.15 minutes

*** tstart() called on Joses-MacBook-Pro-2.local
*** at Thu Jul 17 13:46:36 2025

         ------------------------------------------------------------
                                   SCF GRAD
                          Rob Parrish, Justin Turney,
                       Andy Simmonett, and Alex Sokolov
         ------------------------------------------------------------

  ==> Geometry <==

    Molecular point group: c2v
    Full point group: C_inf_v

    Geometry (in Angstrom), charge = 1, multiplicity = 1:

       Center              X                  Y                   Z               Mass
    ------------   -----------------  -----------------  -----------------  -----------------
         C            0.000000000000     0.000000000000     1.159316177506    12.000000000000
         CL           0.000000000000     0.000000000000    -0.397833873950    34.968852682000

  Nuclear repulsion =   34.663374565513813

  ==> Basis Set <==

  Basis Set: CC-PVDZ
    Blend: CC-PVDZ
    Number of shells: 14
    Number of basis functions: 32
    Number of Cartesian functions: 34
    Spherical Harmonics?: true
    Max angular momentum: 2

  ==> DFJKGrad: Density-Fitted SCF Gradients <==

    Gradient:                    1
    J tasked:                  Yes
    K tasked:                  Yes
    wK tasked:                  No
    OpenMP threads:              1
    Integrals threads:           1
    Memory [MiB]:              375
    Schwarz Cutoff:          1E-12
    Fitting Condition:       1E-10

   => Auxiliary Basis Set <=

  Basis Set: (CC-PVDZ AUX)
    Blend: CC-PVDZ-JKFIT
    Number of shells: 60
    Number of basis functions: 182
    Number of Cartesian functions: 211
    Spherical Harmonics?: true
    Max angular momentum: 3

  ==> DFT Potential <==

   => LibXC <=

    Version 6.2.2
    S. Lehtola, C. Steigemann, M. J.T. Oliveira, and M. A.L. Marques.,  SoftwareX 7, 1â€“5 (2018) (10.1016/j.softx.2017.11.002)

   => Composite Functional: B3LYP <=

    B3LYP Hyb-GGA Exchange-Correlation Functional

    P. J. Stephens, F. J. Devlin, C. F. Chabalowski, and M. J. Frisch.,  J. Phys. Chem. 98, 11623 (1994) (10.1021/j100096a001)

    Deriv               =              1
    GGA                 =           TRUE
    Meta                =          FALSE

    Exchange Hybrid     =           TRUE
    MP2 Hybrid          =          FALSE

   => Exchange Functionals <=

    0.0800   Slater exchange
    0.7200         Becke 88

   => Exact (HF) Exchange <=

    0.2000               HF

   => Correlation Functionals <=

    0.1900   Vosko, Wilk & Nusair (VWN5_RPA)
    0.8100   Lee, Yang & Parr

   => LibXC Density Thresholds  <==

    XC_HYB_GGA_XC_B3LYP:  1.00E-15

   => Molecular Quadrature <=

    Radial Scheme          =       TREUTLER
    Pruning Scheme         =           NONE
    Nuclear Scheme         =       TREUTLER

    Blocking Scheme        =         OCTREE
    BS radius alpha        =              1
    Pruning alpha          =              1
    Radial Points          =             75
    Spherical Points       =            302
    Total Points           =          41096
    Total Blocks           =            367
    Max Points             =            256
    Max Functions          =             32
    Weights Tolerance      =       1.00E-15

  -Total Gradient:
     Atom            X                  Y                   Z
    ------   -----------------  -----------------  -----------------
       1       -0.000000000000    -0.000000000000    -0.000111632572
       2       -0.000000000000     0.000000000000     0.000095638493

*** tstop() called on Joses-MacBook-Pro-2.local at Thu Jul 17 13:46:37 2025
Module time:
	user time   =       0.70 seconds =       0.01 minutes
	system time =       1.86 seconds =       0.03 minutes
	total time  =          1 seconds =       0.02 minutes
Total time:
	user time   =      38.11 seconds =       0.64 minutes
	system time =      61.84 seconds =       1.03 minutes
	total time  =         10 seconds =       0.17 minutes

    			-----------------------------------------

    			 OPTKING 3.0: for geometry optimizations

    			     By R.A. King, Bethel University

    			        with contributions from

    			    A.V. Copan, J. Cayton, A. Heide

    			-----------------------------------------

	                            ===> Fragment 1 <==

	 Z (Atomic Numbers)          Masses                          Geom
	       6.000000            12.000000          0.00000000  0.00000000  2.19079007
	      17.000000            34.968853          0.00000000  0.00000000 -0.75179707

	 - Coordinate -           - BOHR/RAD -       - ANG/DEG -
	 R(1,2)           =         2.942587           1.557150

	        --- Internal Coordinate Step in ANG or DEG, aJ/ANG or AJ/DEG ---
	-------------------------------------------------------------------------------
	           Coordinate      Previous         Force          Change          New
	           ----------      --------        ------          ------        ------
	               R(1,2)       1.55715        0.00085        0.00011       1.55726
	-------------------------------------------------------------------------------

	                                 ==> Convergence Check <==

	Measures of convergence in internal coordinates in au.

	Criteria marked as inactive (o), active & met (*), and active & unmet ( ).

	----------------------------------------------------------------------------------------------
	   Step    Total Energy     Delta E     Max Force     RMS Force      Max Disp      RMS Disp
	----------------------------------------------------------------------------------------------
	  Convergence Criteria     1.00e-06 *    3.00e-04 *             o    1.20e-03 *             o
	----------------------------------------------------------------------------------------------
	    10    -497.82597473   -7.41e-07 *    1.04e-04 *    1.04e-04 o    2.08e-04 *    2.08e-04 o  ~
	----------------------------------------------------------------------------------------------

Next Geometry in Ang
	Fragment 1 (Ang)

	    C   0.0000000000   0.0000000000   1.1593711305
	   Cl   0.0000000000   0.0000000000  -0.3978888269

    Final optimized geometry and variables:
    Molecular point group: c2v
    Full point group: C_inf_v

    Geometry (in Angstrom), charge = 1, multiplicity = 1:

    C            0.000000000000     0.000000000000     1.159316177506
    CL           0.000000000000     0.000000000000    -0.397833873950

    Psi4 stopped on: Thursday, 17 July 2025 01:46PM
    Psi4 wall time for execution: 0:00:10.10

*** Psi4 exiting successfully. Buy a developer a beer!
