                               Psi4 1.9.1 release

  ==> Input File <==

--------------------------------------------------------------------------
molecule {
1 1
Na   0.00000        0.60000        0.00000
Si   0.00000       -0.60000        0.00000
}

set {
basis              cc-pvdz
reference          uks
maxiter            500
geom_maxiter       500
DAMPING_PERCENTAGE 1
guess              SAP
}

optimize('b3lyp')
--------------------------------------------------------------------------

    Molecular point group: c2v
  Charge       = 1
  Multiplicity = 1
  Basis Set: CC-PVDZ
    Blend: CC-PVDZ
  Basis Set: (CC-PVDZ AUX)
    Blend: CC-PVDZ-JKFIT + DEF2-UNIVERSAL-JKFIT
  @DF-UKS Final Energy:  -450.63482838934044
    Total Energy =                       -450.6348283893404414
 Dipole X            :          0.0000000            0.0000000            0.0000000
 Dipole Y            :          0.0000000            0.0000000            0.0000000
 Dipole Z            :          1.7552471           -0.6278248            1.1274224
 Magnitude           :                                                    1.1274224
    Molecular point group: c2v
  Basis Set: CC-PVDZ
    Blend: CC-PVDZ
  Basis Set: (CC-PVDZ AUX)
    Blend: CC-PVDZ-JKFIT + DEF2-UNIVERSAL-JKFIT
  Basis Set: CC-PVDZ
    Blend: CC-PVDZ
  Basis Set: (CC-PVDZ AUX)
    Blend: CC-PVDZ-JKFIT + DEF2-UNIVERSAL-JKFIT
  @DF-UKS Final Energy:  -450.64338812501080
    Total Energy =                       -450.6433881250108016
  Basis Set: CC-PVDZ
    Blend: CC-PVDZ
  Basis Set: (CC-PVDZ AUX)
    Blend: CC-PVDZ-JKFIT + DEF2-UNIVERSAL-JKFIT
  Basis Set: CC-PVDZ
    Blend: CC-PVDZ
  @DF-UKS Final Energy:  -450.65995503402178
    Total Energy =                       -450.6599550340217775
  @DF-UKS Final Energy:  -450.72050732912680
    Total Energy =                       -450.7205073291268036
  @DF-UKS Final Energy:  -451.00380481122090
    Total Energy =                       -451.0038048112209026
  @DF-UKS Final Energy:  -451.17250399620923
    Total Energy =                       -451.1725039962091728
  @DF-UKS Final Energy:  -451.29302358086755
    Total Energy =                       -451.2930235808676116
  @DF-UKS Final Energy:  -451.36131154513185
    Total Energy =                       -451.3613115451318549
  @DF-UKS Final Energy:  -451.39726425754634
    Total Energy =                       -451.3972642575463396
  @DF-UKS Final Energy:  -451.41578089939378
    Total Energy =                       -451.4157808993938374
  @DF-UKS Final Energy:  -451.42575778681584
    Total Energy =                       -451.4257577868158364
  @DF-UKS Final Energy:  -451.43106364003881
    Total Energy =                       -451.4310636400388148
  @DF-UKS Final Energy:  -451.43371182261558
    Total Energy =                       -451.4337118226156349
  @DF-UKS Final Energy:  -451.43497262312650
    Total Energy =                       -451.4349726231265549
  @DF-UKS Final Energy:  -451.43553191879835
    Total Energy =                       -451.4355319187983469
  @DF-UKS Final Energy:  -451.43575562397376
    Total Energy =                       -451.4357556239737050
  @DF-UKS Final Energy:  -451.43582981727360
    Total Energy =                       -451.4358298172735999
  @DF-UKS Final Energy:  -451.43584508343378
    Total Energy =                       -451.4358450834337191
  Basis Set: (CC-PVDZ AUX)
    Blend: CC-PVDZ-JKFIT + DEF2-UNIVERSAL-JKFIT
  Basis Set: CC-PVDZ
    Blend: CC-PVDZ
  Basis Set: (CC-PVDZ AUX)
    Blend: CC-PVDZ-JKFIT + DEF2-UNIVERSAL-JKFIT
  @DF-UKS Final Energy:  -451.43584889722257
    Total Energy =                       -451.4358488972225700
  Basis Set: CC-PVDZ
    Blend: CC-PVDZ
  Basis Set: (CC-PVDZ AUX)
    Blend: CC-PVDZ-JKFIT + DEF2-UNIVERSAL-JKFIT
  Charge       = 1
  Multiplicity = 1
  Basis Set: CC-PVDZ
    Blend: CC-PVDZ
  Basis Set: (CC-PVDZ AUX)
    Blend: CC-PVDZ-JKFIT + DEF2-UNIVERSAL-JKFIT

    Orbital Energies [Eh]
    ---------------------

    Alpha Occupied:

       1A1   -66.336099     2A1   -38.769062     3A1    -5.474251
       4A1    -3.837598     1B2    -3.837563     1B1    -3.820912
       5A1    -2.506036     6A1    -1.437459     2B2    -1.437251
       2B1    -1.436947     7A1    -0.575665     3B1    -0.296972

    Alpha Virtual:

       8A1    -0.294370     3B2    -0.264485     9A1    -0.233885
       4B1    -0.153405     4B2    -0.148054    10A1    -0.130130
      11A1    -0.077243    12A1    -0.051927     5B1    -0.051354
       5B2    -0.048483     6B1     0.001362     6B2     0.002357
       1A2     0.006642    13A1     0.010018    14A1     0.025985
      15A1     0.180490     7B2     0.188414     7B1     0.203725
      16A1     0.205847     2A2     0.227219     8B2     0.234517
      17A1     0.235582     8B1     0.248574    18A1     0.362253

    Beta Occupied:

       1A1   -66.336099     2A1   -38.769062     3A1    -5.474251
       4A1    -3.837598     1B2    -3.837563     1B1    -3.820912
       5A1    -2.506036     6A1    -1.437459     2B2    -1.437251
       2B1    -1.436947     7A1    -0.575665     3B1    -0.296972

    Beta Virtual:

       8A1    -0.294370     3B2    -0.264485     9A1    -0.233885
       4B1    -0.153405     4B2    -0.148054    10A1    -0.130130
      11A1    -0.077243    12A1    -0.051927     5B1    -0.051354
       5B2    -0.048483     6B1     0.001362     6B2     0.002357
       1A2     0.006642    13A1     0.010018    14A1     0.025985
      15A1     0.180490     7B2     0.188414     7B1     0.203725
      16A1     0.205847     2A2     0.227219     8B2     0.234517
      17A1     0.235582     8B1     0.248574    18A1     0.362253

    Final Occupation by Irrep:
             A1    A2    B1    B2
    DOCC [     7,    0,    3,    2 ]
    SOCC [     0,    0,    0,    0 ]
    NA   [     7,    0,    3,    2 ]
    NB   [     7,    0,    3,    2 ]

  @DF-UKS Final Energy:  -451.43584915587195

   => Energetics <=

    Nuclear Repulsion Energy =             21.7053670472087852
    One-Electron Energy =                -666.5746628111739938
    Two-Electron Energy =                 221.7056610375370838
    DFT Exchange-Correlation Energy =     -28.2722144294439133
    Empirical Dispersion Energy =           0.0000000000000000
    VV10 Nonlocal Energy =                  0.0000000000000000
    Total Energy =                       -451.4358491558720061

  UHF NO Occupations:
  HONO-2 :    7 A1 2.0000000
  HONO-1 :    6 A1 2.0000000
  HONO-0 :    3 B1 2.0000000
  LUNO+0 :    8 A1 0.0000000
  LUNO+1 :    4 B1 0.0000000
  LUNO+2 :    9 A1 0.0000000
  LUNO+3 :    3 B2 0.0000000

Computation Completed

Properties will be evaluated at   0.000000,   0.000000,   0.000000 [a0]

Properties computed using the SCF density matrix

 Multipole Moments:

 ------------------------------------------------------------------------------------
     Multipole            Electronic (a.u.)      Nuclear  (a.u.)        Total (a.u.)
 ------------------------------------------------------------------------------------

 L = 1.  Multiply by 2.5417464519 to convert [e a0] to [Debye]
 Dipole X            :          0.0000000            0.0000000            0.0000000
 Dipole Y            :          0.0000000            0.0000000            0.0000000
 Dipole Z            :          5.1635204           -1.9643185            3.1992018
 Magnitude           :                                                    3.1992018

 ------------------------------------------------------------------------------------

*** tstop() called on Joses-MacBook-Pro-2.local at Thu Jul 17 14:50:39 2025
Module time:
	user time   =      10.00 seconds =       0.17 minutes
	system time =       2.48 seconds =       0.04 minutes
	total time  =          2 seconds =       0.03 minutes
Total time:
	user time   =     248.97 seconds =       4.15 minutes
	system time =      77.74 seconds =       1.30 minutes
	total time  =         33 seconds =       0.55 minutes

*** tstart() called on Joses-MacBook-Pro-2.local
*** at Thu Jul 17 14:50:39 2025

         ------------------------------------------------------------
                                   SCF GRAD
                          Rob Parrish, Justin Turney,
                       Andy Simmonett, and Alex Sokolov
         ------------------------------------------------------------

  ==> Geometry <==

    Molecular point group: c2v
    Full point group: C_inf_v

    Geometry (in Angstrom), charge = 1, multiplicity = 1:

       Center              X                  Y                   Z               Mass
    ------------   -----------------  -----------------  -----------------  -----------------
         NA           0.000000000000     0.000000000000     2.060953734539    22.989769282000
         SI           0.000000000000     0.000000000000    -1.693568834277    27.976926534650

  Nuclear repulsion =   21.705367047208785

  ==> Basis Set <==

  Basis Set: CC-PVDZ
    Blend: CC-PVDZ
    Number of shells: 16
    Number of basis functions: 36
    Number of Cartesian functions: 38
    Spherical Harmonics?: true
    Max angular momentum: 2

  ==> DFJKGrad: Density-Fitted SCF Gradients <==

    Gradient:                    1
    J tasked:                  Yes
    K tasked:                  Yes
    wK tasked:                  No
    OpenMP threads:              1
    Integrals threads:           1
    Memory [MiB]:              375
    Schwarz Cutoff:          1E-12
    Fitting Condition:       1E-10

   => Auxiliary Basis Set <=

  Basis Set: (CC-PVDZ AUX)
    Blend: CC-PVDZ-JKFIT + DEF2-UNIVERSAL-JKFIT
    Number of shells: 70
    Number of basis functions: 224
    Number of Cartesian functions: 267
    Spherical Harmonics?: true
    Max angular momentum: 4

  ==> DFT Potential <==

   => LibXC <=

    Version 6.2.2
    S. Lehtola, C. Steigemann, M. J.T. Oliveira, and M. A.L. Marques.,  SoftwareX 7, 1â€“5 (2018) (10.1016/j.softx.2017.11.002)

   => Composite Functional: B3LYP <=

    B3LYP Hyb-GGA Exchange-Correlation Functional

    P. J. Stephens, F. J. Devlin, C. F. Chabalowski, and M. J. Frisch.,  J. Phys. Chem. 98, 11623 (1994) (10.1021/j100096a001)

    Deriv               =              1
    GGA                 =           TRUE
    Meta                =          FALSE

    Exchange Hybrid     =           TRUE
    MP2 Hybrid          =          FALSE

   => Exchange Functionals <=

    0.0800   Slater exchange
    0.7200         Becke 88

   => Exact (HF) Exchange <=

    0.2000               HF

   => Correlation Functionals <=

    0.1900   Vosko, Wilk & Nusair (VWN5_RPA)
    0.8100   Lee, Yang & Parr

   => LibXC Density Thresholds  <==

    XC_HYB_GGA_XC_B3LYP:  1.00E-15

   => Molecular Quadrature <=

    Radial Scheme          =       TREUTLER
    Pruning Scheme         =           NONE
    Nuclear Scheme         =       TREUTLER

    Blocking Scheme        =         OCTREE
    BS radius alpha        =              1
    Pruning alpha          =              1
    Radial Points          =             75
    Spherical Points       =            302
    Total Points           =          43897
    Total Blocks           =            458
    Max Points             =            256
    Max Functions          =             36
    Weights Tolerance      =       1.00E-15

  -Total Gradient:
     Atom            X                  Y                   Z
    ------   -----------------  -----------------  -----------------
       1       -0.000000000000     0.000000000000     0.000008381780
       2        0.000000000000     0.000000000000     0.000043374882

*** tstop() called on Joses-MacBook-Pro-2.local at Thu Jul 17 14:50:39 2025
Module time:
	user time   =       2.09 seconds =       0.03 minutes
	system time =       2.05 seconds =       0.03 minutes
	total time  =          0 seconds =       0.00 minutes
Total time:
	user time   =     251.06 seconds =       4.18 minutes
	system time =      79.79 seconds =       1.33 minutes
	total time  =         33 seconds =       0.55 minutes

    			-----------------------------------------

    			 OPTKING 3.0: for geometry optimizations

    			     By R.A. King, Bethel University

    			        with contributions from

    			    A.V. Copan, J. Cayton, A. Heide

    			-----------------------------------------

	                            ===> Fragment 1 <==

	 Z (Atomic Numbers)          Masses                          Geom
	      11.000000            22.989769          0.00000000  0.00000000  3.89463812
	      14.000000            27.976927          0.00000000  0.00000000 -3.20038127

	 - Coordinate -           - BOHR/RAD -       - ANG/DEG -
	 R(1,2)           =         7.095019           3.754523

	        --- Internal Coordinate Step in ANG or DEG, aJ/ANG or AJ/DEG ---
	-------------------------------------------------------------------------------
	           Coordinate      Previous         Force          Change          New
	           ----------      --------        ------          ------        ------
	               R(1,2)       3.75452        0.00014        0.00750       3.76202
	-------------------------------------------------------------------------------

	                                 ==> Convergence Check <==

	Measures of convergence in internal coordinates in au.

	Criteria marked as inactive (o), active & met (*), and active & unmet ( ).

	----------------------------------------------------------------------------------------------
	   Step    Total Energy     Delta E     Max Force     RMS Force      Max Disp      RMS Disp
	----------------------------------------------------------------------------------------------
	  Convergence Criteria     1.00e-06 *    3.00e-04 *             o    1.20e-03 *             o
	----------------------------------------------------------------------------------------------
	    20    -451.43584916   -2.59e-07 *    1.75e-05 *    1.75e-05 o    1.42e-02      1.42e-02 o  ~
	----------------------------------------------------------------------------------------------

Next Geometry in Ang
	Fragment 1 (Ang)

	   Na   0.0000000000   0.0000000000   2.0647032625
	   Si   0.0000000000   0.0000000000  -1.6973183622

    Final optimized geometry and variables:
    Molecular point group: c2v
    Full point group: C_inf_v

    Geometry (in Angstrom), charge = 1, multiplicity = 1:

    NA           0.000000000000     0.000000000000     2.060953734539
    SI           0.000000000000     0.000000000000    -1.693568834277

    Psi4 stopped on: Thursday, 17 July 2025 02:50PM
    Psi4 wall time for execution: 0:00:33.30

*** Psi4 exiting successfully. Buy a developer a beer!
