                               Psi4 1.9.1 release

  ==> Input File <==

--------------------------------------------------------------------------
molecule {
1 1
Na   0.00000        0.60000        0.00000
Mg   0.00000       -0.60000        0.00000
}

set {
basis              cc-pvdz
reference          uks
maxiter            500
geom_maxiter       500
DAMPING_PERCENTAGE 1
guess              SAP
}

optimize('b3lyp')
--------------------------------------------------------------------------

    Molecular point group: c2v
  Charge       = 1
  Multiplicity = 1
  Basis Set: CC-PVDZ
    Blend: CC-PVDZ
  Basis Set: (CC-PVDZ AUX)
    Blend: DEF2-UNIVERSAL-JKFIT
  @DF-UKS Final Energy:  -361.55135087205809
    Total Energy =                       -361.5513508720580944
 Dipole X            :          0.0000000            0.0000000            0.0000000
 Dipole Y            :          0.0000000            0.0000000            0.0000000
 Dipole Z            :          1.0060160           -0.5813069            0.4247091
 Magnitude           :                                                    0.4247091
    Molecular point group: c2v
  Basis Set: CC-PVDZ
    Blend: CC-PVDZ
  Basis Set: (CC-PVDZ AUX)
    Blend: DEF2-UNIVERSAL-JKFIT
  Basis Set: CC-PVDZ
    Blend: CC-PVDZ
  Basis Set: (CC-PVDZ AUX)
    Blend: DEF2-UNIVERSAL-JKFIT
  @DF-UKS Final Energy:  -361.55814127407734
    Total Energy =                       -361.5581412740773430
  Basis Set: CC-PVDZ
    Blend: CC-PVDZ
  Basis Set: (CC-PVDZ AUX)
    Blend: DEF2-UNIVERSAL-JKFIT
  Basis Set: CC-PVDZ
    Blend: CC-PVDZ
  @DF-UKS Final Energy:  -361.57124828340136
    Total Energy =                       -361.5712482834014168
  @DF-UKS Final Energy:  -361.61881957588827
    Total Energy =                       -361.6188195758882671
  @DF-UKS Final Energy:  -361.83659091017807
    Total Energy =                       -361.8365909101780176
  @DF-UKS Final Energy:  -361.95101579569103
    Total Energy =                       -361.9510157956910348
  @DF-UKS Final Energy:  -362.03781512766972
    Total Energy =                       -362.0378151276697167
  @DF-UKS Final Energy:  -362.11103189426660
    Total Energy =                       -362.1110318942666595
  @DF-UKS Final Energy:  -362.15945985431284
    Total Energy =                       -362.1594598543128996
  @DF-UKS Final Energy:  -362.18605638865438
    Total Energy =                       -362.1860563886543787
  @DF-UKS Final Energy:  -362.19841046368168
    Total Energy =                       -362.1984104636816255
  @DF-UKS Final Energy:  -362.20367730729112
    Total Energy =                       -362.2036773072911160
  @DF-UKS Final Energy:  -362.20553803838374
    Total Energy =                       -362.2055380383837360
  @DF-UKS Final Energy:  -362.20598763226764
    Total Energy =                       -362.2059876322676359
  @DF-UKS Final Energy:  -362.20603733502128
    Total Energy =                       -362.2060373350212217
  Basis Set: (CC-PVDZ AUX)
    Blend: DEF2-UNIVERSAL-JKFIT
  Basis Set: CC-PVDZ
    Blend: CC-PVDZ
  Basis Set: (CC-PVDZ AUX)
    Blend: DEF2-UNIVERSAL-JKFIT
  @DF-UKS Final Energy:  -362.20604337401141
    Total Energy =                       -362.2060433740114149
  Basis Set: CC-PVDZ
    Blend: CC-PVDZ
  Basis Set: (CC-PVDZ AUX)
    Blend: DEF2-UNIVERSAL-JKFIT
  Charge       = 1
  Multiplicity = 1
  Basis Set: CC-PVDZ
    Blend: CC-PVDZ
  Basis Set: (CC-PVDZ AUX)
    Blend: DEF2-UNIVERSAL-JKFIT

    Orbital Energies [Eh]
    ---------------------

    Alpha Occupied:

       1A1   -47.005467     2A1   -38.708260     3A1    -3.283370
       4A1    -2.448301     1B2    -2.026840     1B1    -2.026840
       5A1    -2.026472     2B2    -1.379735     2B1    -1.379735
       6A1    -1.379102     7A1    -0.370317

    Alpha Virtual:

       8A1    -0.236548     3B1    -0.188210     3B2    -0.188210
       9A1    -0.169453     4B1    -0.122331     4B2    -0.122331
      10A1    -0.089960    11A1    -0.058863     5B1    -0.044088
       5B2    -0.044088    12A1    -0.033939    13A1     0.007731
      14A1     0.018187     1A2     0.018187     6B2     0.020727
       6B1     0.020727     7B2     0.042553     7B1     0.042553
      15A1     0.052916    16A1     0.145723    17A1     0.167097
       2A2     0.167097     8B1     0.233589     8B2     0.233589
      18A1     0.349687

    Beta Occupied:

       1A1   -47.005467     2A1   -38.708260     3A1    -3.283370
       4A1    -2.448301     1B2    -2.026840     1B1    -2.026840
       5A1    -2.026472     2B2    -1.379735     2B1    -1.379735
       6A1    -1.379102     7A1    -0.370317

    Beta Virtual:

       8A1    -0.236548     3B1    -0.188210     3B2    -0.188210
       9A1    -0.169453     4B1    -0.122331     4B2    -0.122331
      10A1    -0.089960    11A1    -0.058863     5B1    -0.044088
       5B2    -0.044088    12A1    -0.033939    13A1     0.007731
      14A1     0.018187     1A2     0.018187     6B2     0.020727
       6B1     0.020727     7B2     0.042553     7B1     0.042553
      15A1     0.052916    16A1     0.145723    17A1     0.167097
       2A2     0.167097     8B1     0.233589     8B2     0.233589
      18A1     0.349687

    Final Occupation by Irrep:
             A1    A2    B1    B2
    DOCC [     7,    0,    2,    2 ]
    SOCC [     0,    0,    0,    0 ]
    NA   [     7,    0,    2,    2 ]
    NB   [     7,    0,    2,    2 ]

  @DF-UKS Final Energy:  -362.20604356773828

   => Energetics <=

    Nuclear Repulsion Energy =             21.8135499568632092
    One-Electron Energy =                -546.2546364980440785
    Two-Electron Energy =                 187.0293473730013432
    DFT Exchange-Correlation Energy =     -24.7943043995587757
    Empirical Dispersion Energy =           0.0000000000000000
    VV10 Nonlocal Energy =                  0.0000000000000000
    Total Energy =                       -362.2060435677383339

  UHF NO Occupations:
  HONO-2 :    6 A1 2.0000000
  HONO-1 :    2 B1 2.0000000
  HONO-0 :    7 A1 2.0000000
  LUNO+0 :    8 A1 0.0000000
  LUNO+1 :    9 A1 0.0000000
  LUNO+2 :   10 A1 0.0000000
  LUNO+3 :    3 B1 0.0000000

Computation Completed

Properties will be evaluated at   0.000000,   0.000000,   0.000000 [a0]

Properties computed using the SCF density matrix

 Multipole Moments:

 ------------------------------------------------------------------------------------
     Multipole            Electronic (a.u.)      Nuclear  (a.u.)        Total (a.u.)
 ------------------------------------------------------------------------------------

 L = 1.  Multiply by 2.5417464519 to convert [e a0] to [Debye]
 Dipole X            :          0.0000000            0.0000000            0.0000000
 Dipole Y            :          0.0000000            0.0000000            0.0000000
 Dipole Z            :          2.6835067           -1.5512185            1.1322883
 Magnitude           :                                                    1.1322883

 ------------------------------------------------------------------------------------

*** tstop() called on Joses-MacBook-Pro-2.local at Thu Jul 17 14:46:10 2025
Module time:
	user time   =      12.79 seconds =       0.21 minutes
	system time =       3.39 seconds =       0.06 minutes
	total time  =          2 seconds =       0.03 minutes
Total time:
	user time   =     270.42 seconds =       4.51 minutes
	system time =      96.90 seconds =       1.61 minutes
	total time  =         39 seconds =       0.65 minutes

*** tstart() called on Joses-MacBook-Pro-2.local
*** at Thu Jul 17 14:46:10 2025

         ------------------------------------------------------------
                                   SCF GRAD
                          Rob Parrish, Justin Turney,
                       Andy Simmonett, and Alex Sokolov
         ------------------------------------------------------------

  ==> Geometry <==

    Molecular point group: c2v
    Full point group: C_inf_v

    Geometry (in Angstrom), charge = 1, multiplicity = 1:

       Center              X                  Y                   Z               Mass
    ------------   -----------------  -----------------  -----------------  -----------------
         NA           0.000000000000     0.000000000000     1.635024074661    22.989769282000
         MG           0.000000000000     0.000000000000    -1.567177857009    23.985041697000

  Nuclear repulsion =   21.813549956863209

  ==> Basis Set <==

  Basis Set: CC-PVDZ
    Blend: CC-PVDZ
    Number of shells: 16
    Number of basis functions: 36
    Number of Cartesian functions: 38
    Spherical Harmonics?: true
    Max angular momentum: 2

  ==> DFJKGrad: Density-Fitted SCF Gradients <==

    Gradient:                    1
    J tasked:                  Yes
    K tasked:                  Yes
    wK tasked:                  No
    OpenMP threads:              1
    Integrals threads:           1
    Memory [MiB]:              375
    Schwarz Cutoff:          1E-12
    Fitting Condition:       1E-10

   => Auxiliary Basis Set <=

  Basis Set: (CC-PVDZ AUX)
    Blend: DEF2-UNIVERSAL-JKFIT
    Number of shells: 68
    Number of basis functions: 224
    Number of Cartesian functions: 274
    Spherical Harmonics?: true
    Max angular momentum: 4

  ==> DFT Potential <==

   => LibXC <=

    Version 6.2.2
    S. Lehtola, C. Steigemann, M. J.T. Oliveira, and M. A.L. Marques.,  SoftwareX 7, 1â€“5 (2018) (10.1016/j.softx.2017.11.002)

   => Composite Functional: B3LYP <=

    B3LYP Hyb-GGA Exchange-Correlation Functional

    P. J. Stephens, F. J. Devlin, C. F. Chabalowski, and M. J. Frisch.,  J. Phys. Chem. 98, 11623 (1994) (10.1021/j100096a001)

    Deriv               =              1
    GGA                 =           TRUE
    Meta                =          FALSE

    Exchange Hybrid     =           TRUE
    MP2 Hybrid          =          FALSE

   => Exchange Functionals <=

    0.0800   Slater exchange
    0.7200         Becke 88

   => Exact (HF) Exchange <=

    0.2000               HF

   => Correlation Functionals <=

    0.1900   Vosko, Wilk & Nusair (VWN5_RPA)
    0.8100   Lee, Yang & Parr

   => LibXC Density Thresholds  <==

    XC_HYB_GGA_XC_B3LYP:  1.00E-15

   => Molecular Quadrature <=

    Radial Scheme          =       TREUTLER
    Pruning Scheme         =           NONE
    Nuclear Scheme         =       TREUTLER

    Blocking Scheme        =         OCTREE
    BS radius alpha        =              1
    Pruning alpha          =              1
    Radial Points          =             75
    Spherical Points       =            302
    Total Points           =          43612
    Total Blocks           =            458
    Max Points             =            256
    Max Functions          =             36
    Weights Tolerance      =       1.00E-15

  -Total Gradient:
     Atom            X                  Y                   Z
    ------   -----------------  -----------------  -----------------
       1        0.000000000000    -0.000000000000    -0.000008575867
       2        0.000000000000     0.000000000000     0.000016496095

*** tstop() called on Joses-MacBook-Pro-2.local at Thu Jul 17 14:46:11 2025
Module time:
	user time   =       3.96 seconds =       0.07 minutes
	system time =       2.64 seconds =       0.04 minutes
	total time  =          1 seconds =       0.02 minutes
Total time:
	user time   =     274.38 seconds =       4.57 minutes
	system time =      99.55 seconds =       1.66 minutes
	total time  =         40 seconds =       0.67 minutes

    			-----------------------------------------

    			 OPTKING 3.0: for geometry optimizations

    			     By R.A. King, Bethel University

    			        with contributions from

    			    A.V. Copan, J. Cayton, A. Heide

    			-----------------------------------------

	                            ===> Fragment 1 <==

	 Z (Atomic Numbers)          Masses                          Geom
	      11.000000            22.989769          0.00000000  0.00000000  3.08974771
	      12.000000            23.985042          0.00000000  0.00000000 -2.96153694

	 - Coordinate -           - BOHR/RAD -       - ANG/DEG -
	 R(1,2)           =         6.051285           3.202202

	        --- Internal Coordinate Step in ANG or DEG, aJ/ANG or AJ/DEG ---
	-------------------------------------------------------------------------------
	           Coordinate      Previous         Force          Change          New
	           ----------      --------        ------          ------        ------
	               R(1,2)       3.20220        0.00010        0.00055       3.20275
	-------------------------------------------------------------------------------

	                                 ==> Convergence Check <==

	Measures of convergence in internal coordinates in au.

	Criteria marked as inactive (o), active & met (*), and active & unmet ( ).

	----------------------------------------------------------------------------------------------
	   Step    Total Energy     Delta E     Max Force     RMS Force      Max Disp      RMS Disp
	----------------------------------------------------------------------------------------------
	  Convergence Criteria     1.00e-06 *    3.00e-04 *             o    1.20e-03 *             o
	----------------------------------------------------------------------------------------------
	    17    -362.20604357   -1.94e-07 *    1.25e-05 *    1.25e-05 o    1.04e-03 *    1.04e-03 o  ~
	----------------------------------------------------------------------------------------------

Next Geometry in Ang
	Fragment 1 (Ang)

	   Na   0.0000000000   0.0000000000   1.6353005489
	   Mg   0.0000000000   0.0000000000  -1.5674543313

    Final optimized geometry and variables:
    Molecular point group: c2v
    Full point group: C_inf_v

    Geometry (in Angstrom), charge = 1, multiplicity = 1:

    NA           0.000000000000     0.000000000000     1.635024074661
    MG           0.000000000000     0.000000000000    -1.567177857009

    Psi4 stopped on: Thursday, 17 July 2025 02:46PM
    Psi4 wall time for execution: 0:00:40.09

*** Psi4 exiting successfully. Buy a developer a beer!
