                               Psi4 1.9.1 release

  ==> Input File <==

--------------------------------------------------------------------------
molecule {
1 1
F   0.00000        0.60000        0.00000
Ar   0.00000       -0.60000        0.00000
}

set {
basis              cc-pvdz
reference          uks
maxiter            500
geom_maxiter       500
DAMPING_PERCENTAGE 1
guess              SAP
}

optimize('b3lyp')
--------------------------------------------------------------------------

    Molecular point group: c2v
  Charge       = 1
  Multiplicity = 1
  Basis Set: CC-PVDZ
    Blend: CC-PVDZ
  Basis Set: (CC-PVDZ AUX)
    Blend: CC-PVDZ-JKFIT
  @DF-UKS Final Energy:  -626.49132889617090
    Total Energy =                       -626.4913288961710123
 Dipole X            :          0.0000000            0.0000000            0.0000000
 Dipole Y            :          0.0000000            0.0000000            0.0000000
 Dipole Z            :         -1.0518958            0.6803766           -0.3715192
 Magnitude           :                                                    0.3715192
    Molecular point group: c2v
  Basis Set: CC-PVDZ
    Blend: CC-PVDZ
  Basis Set: (CC-PVDZ AUX)
    Blend: CC-PVDZ-JKFIT
  Basis Set: CC-PVDZ
    Blend: CC-PVDZ
  Basis Set: (CC-PVDZ AUX)
    Blend: CC-PVDZ-JKFIT
  @DF-UKS Final Energy:  -626.64508723129165
    Total Energy =                       -626.6450872312916545
  Basis Set: CC-PVDZ
    Blend: CC-PVDZ
  Basis Set: (CC-PVDZ AUX)
    Blend: CC-PVDZ-JKFIT
  Basis Set: CC-PVDZ
    Blend: CC-PVDZ
  @DF-UKS Final Energy:  -626.71707089971198
    Total Energy =                       -626.7170708997118709
  @DF-UKS Final Energy:  -626.74099965479638
    Total Energy =                       -626.7409996547964965
  @DF-UKS Final Energy:  -626.75384446897579
    Total Energy =                       -626.7538444689757853
  @DF-UKS Final Energy:  -626.75787466265388
    Total Energy =                       -626.7578746626538759
  @DF-UKS Final Energy:  -626.75970700522271
    Total Energy =                       -626.7597070052227082
  @DF-UKS Final Energy:  -626.76012032843141
    Total Energy =                       -626.7601203284312987
  @DF-UKS Final Energy:  -626.76023517954275
    Total Energy =                       -626.7602351795426330
  Basis Set: (CC-PVDZ AUX)
    Blend: CC-PVDZ-JKFIT
  Basis Set: CC-PVDZ
    Blend: CC-PVDZ
  Basis Set: (CC-PVDZ AUX)
    Blend: CC-PVDZ-JKFIT
  @DF-UKS Final Energy:  -626.76025398978811
    Total Energy =                       -626.7602539897881115
  Basis Set: CC-PVDZ
    Blend: CC-PVDZ
  Basis Set: (CC-PVDZ AUX)
    Blend: CC-PVDZ-JKFIT
  Charge       = 1
  Multiplicity = 1
  Basis Set: CC-PVDZ
    Blend: CC-PVDZ
  Basis Set: (CC-PVDZ AUX)
    Blend: CC-PVDZ-JKFIT

    Orbital Energies [Eh]
    ---------------------

    Alpha Occupied:

       1A1  -115.595736     2A1   -25.159023     3A1   -11.625758
       4A1    -9.188013     1B2    -9.169770     1B1    -9.169770
       5A1    -1.620860     6A1    -1.374475     7A1    -0.947076
       2B2    -0.876510     2B1    -0.876510     3B2    -0.769050
       3B1    -0.769050

    Alpha Virtual:

       8A1    -0.570188     9A1     0.181314     4B1     0.242019
       4B2     0.242019    10A1     0.341785     5B1     0.356222
       5B2     0.356222     1A2     0.411964    11A1     0.411964
      12A1     0.577016     6B2     0.872417     6B1     0.872417
      13A1     0.899455    14A1     1.660077     7B2     3.142630
       7B1     3.142630     2A2     3.167834    15A1     3.167909
      16A1     3.319639

    Beta Occupied:

       1A1  -115.595736     2A1   -25.159023     3A1   -11.625758
       4A1    -9.188013     1B1    -9.169770     1B2    -9.169770
       5A1    -1.620860     6A1    -1.374475     7A1    -0.947076
       2B2    -0.876510     2B1    -0.876510     3B2    -0.769050
       3B1    -0.769050

    Beta Virtual:

       8A1    -0.570188     9A1     0.181314     4B1     0.242019
       4B2     0.242019    10A1     0.341785     5B1     0.356222
       5B2     0.356222     1A2     0.411964    11A1     0.411964
      12A1     0.577016     6B2     0.872417     6B1     0.872417
      13A1     0.899455    14A1     1.660077     7B2     3.142630
       7B1     3.142630     2A2     3.167834    15A1     3.167909
      16A1     3.319639

    Final Occupation by Irrep:
             A1    A2    B1    B2
    DOCC [     7,    0,    3,    3 ]
    SOCC [     0,    0,    0,    0 ]
    NA   [     7,    0,    3,    3 ]
    NB   [     7,    0,    3,    3 ]

  @DF-UKS Final Energy:  -626.76025517908624

   => Energetics <=

    Nuclear Repulsion Energy =             51.1270275964348713
    One-Electron Energy =                -958.0163842579015636
    Two-Electron Energy =                 313.1067465520733890
    DFT Exchange-Correlation Energy =     -32.9776450696930681
    Empirical Dispersion Energy =           0.0000000000000000
    VV10 Nonlocal Energy =                  0.0000000000000000
    Total Energy =                       -626.7602551790863572

  UHF NO Occupations:
  HONO-2 :    6 A1 2.0000000
  HONO-1 :    3 B2 2.0000000
  HONO-0 :    7 A1 2.0000000
  LUNO+0 :    4 B1 0.0000000
  LUNO+1 :    8 A1 0.0000000
  LUNO+2 :    9 A1 0.0000000
  LUNO+3 :    4 B2 0.0000000

Computation Completed

Properties will be evaluated at   0.000000,   0.000000,   0.000000 [a0]

Properties computed using the SCF density matrix

 Multipole Moments:

 ------------------------------------------------------------------------------------
     Multipole            Electronic (a.u.)      Nuclear  (a.u.)        Total (a.u.)
 ------------------------------------------------------------------------------------

 L = 1.  Multiply by 2.5417464519 to convert [e a0] to [Debye]
 Dipole X            :          0.0000000            0.0000000            0.0000000
 Dipole Y            :          0.0000000            0.0000000            0.0000000
 Dipole Z            :         -1.5599567            0.9506786           -0.6092781
 Magnitude           :                                                    0.6092781

 ------------------------------------------------------------------------------------

*** tstop() called on Joses-MacBook-Pro-2.local at Thu Jul 17 14:36:15 2025
Module time:
	user time   =       2.55 seconds =       0.04 minutes
	system time =       4.48 seconds =       0.07 minutes
	total time  =          0 seconds =       0.00 minutes
Total time:
	user time   =      44.18 seconds =       0.74 minutes
	system time =      64.51 seconds =       1.08 minutes
	total time  =         11 seconds =       0.18 minutes

*** tstart() called on Joses-MacBook-Pro-2.local
*** at Thu Jul 17 14:36:15 2025

         ------------------------------------------------------------
                                   SCF GRAD
                          Rob Parrish, Justin Turney,
                       Andy Simmonett, and Alex Sokolov
         ------------------------------------------------------------

  ==> Geometry <==

    Molecular point group: c2v
    Full point group: C_inf_v

    Geometry (in Angstrom), charge = 1, multiplicity = 1:

       Center              X                  Y                   Z               Mass
    ------------   -----------------  -----------------  -----------------  -----------------
         F            0.000000000000     0.000000000000     1.136458850764    18.998403162730
         AR           0.000000000000     0.000000000000    -0.540280677402    39.962383123700

  Nuclear repulsion =   51.127027596434871

  ==> Basis Set <==

  Basis Set: CC-PVDZ
    Blend: CC-PVDZ
    Number of shells: 14
    Number of basis functions: 32
    Number of Cartesian functions: 34
    Spherical Harmonics?: true
    Max angular momentum: 2

  ==> DFJKGrad: Density-Fitted SCF Gradients <==

    Gradient:                    1
    J tasked:                  Yes
    K tasked:                  Yes
    wK tasked:                  No
    OpenMP threads:              1
    Integrals threads:           1
    Memory [MiB]:              375
    Schwarz Cutoff:          1E-12
    Fitting Condition:       1E-10

   => Auxiliary Basis Set <=

  Basis Set: (CC-PVDZ AUX)
    Blend: CC-PVDZ-JKFIT
    Number of shells: 60
    Number of basis functions: 182
    Number of Cartesian functions: 211
    Spherical Harmonics?: true
    Max angular momentum: 3

  ==> DFT Potential <==

   => LibXC <=

    Version 6.2.2
    S. Lehtola, C. Steigemann, M. J.T. Oliveira, and M. A.L. Marques.,  SoftwareX 7, 1â€“5 (2018) (10.1016/j.softx.2017.11.002)

   => Composite Functional: B3LYP <=

    B3LYP Hyb-GGA Exchange-Correlation Functional

    P. J. Stephens, F. J. Devlin, C. F. Chabalowski, and M. J. Frisch.,  J. Phys. Chem. 98, 11623 (1994) (10.1021/j100096a001)

    Deriv               =              1
    GGA                 =           TRUE
    Meta                =          FALSE

    Exchange Hybrid     =           TRUE
    MP2 Hybrid          =          FALSE

   => Exchange Functionals <=

    0.0800   Slater exchange
    0.7200         Becke 88

   => Exact (HF) Exchange <=

    0.2000               HF

   => Correlation Functionals <=

    0.1900   Vosko, Wilk & Nusair (VWN5_RPA)
    0.8100   Lee, Yang & Parr

   => LibXC Density Thresholds  <==

    XC_HYB_GGA_XC_B3LYP:  1.00E-15

   => Molecular Quadrature <=

    Radial Scheme          =       TREUTLER
    Pruning Scheme         =           NONE
    Nuclear Scheme         =       TREUTLER

    Blocking Scheme        =         OCTREE
    BS radius alpha        =              1
    Pruning alpha          =              1
    Radial Points          =             75
    Spherical Points       =            302
    Total Points           =          41324
    Total Blocks           =            368
    Max Points             =            254
    Max Functions          =             32
    Weights Tolerance      =       1.00E-15

  -Total Gradient:
     Atom            X                  Y                   Z
    ------   -----------------  -----------------  -----------------
       1        0.000000000000    -0.000000000000    -0.000187947167
       2       -0.000000000000     0.000000000000     0.000104614907

*** tstop() called on Joses-MacBook-Pro-2.local at Thu Jul 17 14:36:16 2025
Module time:
	user time   =       0.61 seconds =       0.01 minutes
	system time =       1.84 seconds =       0.03 minutes
	total time  =          1 seconds =       0.02 minutes
Total time:
	user time   =      44.79 seconds =       0.75 minutes
	system time =      66.36 seconds =       1.11 minutes
	total time  =         12 seconds =       0.20 minutes

    			-----------------------------------------

    			 OPTKING 3.0: for geometry optimizations

    			     By R.A. King, Bethel University

    			        with contributions from

    			    A.V. Copan, J. Cayton, A. Heide

    			-----------------------------------------

	                            ===> Fragment 1 <==

	 Z (Atomic Numbers)          Masses                          Geom
	       9.000000            18.998403          0.00000000  0.00000000  2.14759598
	      18.000000            39.962383          0.00000000  0.00000000 -1.02098251

	 - Coordinate -           - BOHR/RAD -       - ANG/DEG -
	 R(1,2)           =         3.168578           1.676740

	        --- Internal Coordinate Step in ANG or DEG, aJ/ANG or AJ/DEG ---
	-------------------------------------------------------------------------------
	           Coordinate      Previous         Force          Change          New
	           ----------      --------        ------          ------        ------
	               R(1,2)       1.67674        0.00121        0.00030       1.67704
	-------------------------------------------------------------------------------

	                                 ==> Convergence Check <==

	Measures of convergence in internal coordinates in au.

	Criteria marked as inactive (o), active & met (*), and active & unmet ( ).

	----------------------------------------------------------------------------------------------
	   Step    Total Energy     Delta E     Max Force     RMS Force      Max Disp      RMS Disp
	----------------------------------------------------------------------------------------------
	  Convergence Criteria     1.00e-06 *    3.00e-04 *             o    1.20e-03 *             o
	----------------------------------------------------------------------------------------------
	    11    -626.76025518   -1.19e-06      1.46e-04 *    1.46e-04 o    5.60e-04 *    5.60e-04 o  ~
	----------------------------------------------------------------------------------------------

Next Geometry in Ang
	Fragment 1 (Ang)

	    F   0.0000000000   0.0000000000   1.1366070728
	   Ar   0.0000000000   0.0000000000  -0.5404288994

    Final optimized geometry and variables:
    Molecular point group: c2v
    Full point group: C_inf_v

    Geometry (in Angstrom), charge = 1, multiplicity = 1:

    F            0.000000000000     0.000000000000     1.136458850764
    AR           0.000000000000     0.000000000000    -0.540280677402

    Psi4 stopped on: Thursday, 17 July 2025 02:36PM
    Psi4 wall time for execution: 0:00:12.61

*** Psi4 exiting successfully. Buy a developer a beer!
