                               Psi4 1.9.1 release

  ==> Input File <==

--------------------------------------------------------------------------
molecule {
1 1
P   0.00000        0.60000        0.00000
S   0.00000       -0.60000        0.00000
}

set {
basis              cc-pvdz
reference          uks
maxiter            500
geom_maxiter       500
DAMPING_PERCENTAGE 1
guess              SAP
}

optimize('b3lyp')
--------------------------------------------------------------------------

    Molecular point group: c2v
  Charge       = 1
  Multiplicity = 1
  Basis Set: CC-PVDZ
    Blend: CC-PVDZ
  Basis Set: (CC-PVDZ AUX)
    Blend: CC-PVDZ-JKFIT
  @DF-UKS Final Energy:  -738.17184766589776
    Total Energy =                       -738.1718476658977579
 Dipole X            :          0.0000000            0.0000000            0.0000000
 Dipole Y            :          0.0000000            0.0000000            0.0000000
 Dipole Z            :          0.5372972           -0.5763806           -0.0390834
 Magnitude           :                                                    0.0390834
    Molecular point group: c2v
  Basis Set: CC-PVDZ
    Blend: CC-PVDZ
  Basis Set: (CC-PVDZ AUX)
    Blend: CC-PVDZ-JKFIT
  Basis Set: CC-PVDZ
    Blend: CC-PVDZ
  Basis Set: (CC-PVDZ AUX)
    Blend: CC-PVDZ-JKFIT
  @DF-UKS Final Energy:  -738.21027969368288
    Total Energy =                       -738.2102796936828781
  Basis Set: CC-PVDZ
    Blend: CC-PVDZ
  Basis Set: (CC-PVDZ AUX)
    Blend: CC-PVDZ-JKFIT
  Basis Set: CC-PVDZ
    Blend: CC-PVDZ
  @DF-UKS Final Energy:  -738.28177806721339
    Total Energy =                       -738.2817780672132812
  @DF-UKS Final Energy:  -738.51562187747129
    Total Energy =                       -738.5156218774712897
  @DF-UKS Final Energy:  -739.01144327390284
    Total Energy =                       -739.0114432739028416
  @DF-UKS Final Energy:  -739.15554517754981
    Total Energy =                       -739.1555451775498113
  @DF-UKS Final Energy:  -739.23174306866179
    Total Energy =                       -739.2317430686616717
  @DF-UKS Final Energy:  -739.25195385535267
    Total Energy =                       -739.2519538553527809
  @DF-UKS Final Energy:  -739.25922736990947
    Total Energy =                       -739.2592273699094676
  @DF-UKS Final Energy:  -739.26081031519561
    Total Energy =                       -739.2608103151956129
  @DF-UKS Final Energy:  -739.26119413693664
    Total Energy =                       -739.2611941369366377
  @DF-UKS Final Energy:  -739.26131233291392
    Total Energy =                       -739.2613123329140308
  Basis Set: (CC-PVDZ AUX)
    Blend: CC-PVDZ-JKFIT
  Basis Set: CC-PVDZ
    Blend: CC-PVDZ
  Basis Set: (CC-PVDZ AUX)
    Blend: CC-PVDZ-JKFIT
  @DF-UKS Final Energy:  -739.26132724350578
    Total Energy =                       -739.2613272435057752
  Basis Set: CC-PVDZ
    Blend: CC-PVDZ
  Basis Set: (CC-PVDZ AUX)
    Blend: CC-PVDZ-JKFIT
  Charge       = 1
  Multiplicity = 1
  Basis Set: CC-PVDZ
    Blend: CC-PVDZ
  Basis Set: (CC-PVDZ AUX)
    Blend: CC-PVDZ-JKFIT

    Orbital Energies [Eh]
    ---------------------

    Alpha Occupied:

       1A1   -89.210245     2A1   -77.456451     3A1    -8.271897
       4A1    -6.921009     1B2    -6.231733     1B1    -6.231733
       5A1    -6.230926     2B1    -5.082883     2B2    -5.082883
       6A1    -5.078368     7A1    -1.073956     8A1    -0.807900
       9A1    -0.621892     3B2    -0.607190     3B1    -0.607190

    Alpha Virtual:

       4B2    -0.394715     4B1    -0.394715    10A1    -0.199648
      11A1    -0.008594     5B2     0.075793     5B1     0.075793
      12A1     0.128060    13A1     0.146721     1A2     0.146722
       6B2     0.178117     6B1     0.178117    14A1     0.187961
       7B2     0.261892     7B1     0.261892     2A2     0.336165
      15A1     0.336166    16A1     0.429680    17A1     0.530913
       8B2     0.573922     8B1     0.573922    18A1     0.965059

    Beta Occupied:

       1A1   -89.210245     2A1   -77.456451     3A1    -8.271897
       4A1    -6.921009     1B2    -6.231733     1B1    -6.231733
       5A1    -6.230926     2B1    -5.082883     2B2    -5.082883
       6A1    -5.078368     7A1    -1.073956     8A1    -0.807900
       9A1    -0.621892     3B2    -0.607190     3B1    -0.607190

    Beta Virtual:

       4B2    -0.394715     4B1    -0.394715    10A1    -0.199648
      11A1    -0.008594     5B2     0.075793     5B1     0.075793
      12A1     0.128060    13A1     0.146721     1A2     0.146722
       6B2     0.178117     6B1     0.178117    14A1     0.187961
       7B2     0.261892     7B1     0.261892     2A2     0.336165
      15A1     0.336166    16A1     0.429680    17A1     0.530913
       8B2     0.573922     8B1     0.573922    18A1     0.965059

    Final Occupation by Irrep:
             A1    A2    B1    B2
    DOCC [     9,    0,    3,    3 ]
    SOCC [     0,    0,    0,    0 ]
    NA   [     9,    0,    3,    3 ]
    NB   [     9,    0,    3,    3 ]

  @DF-UKS Final Energy:  -739.26132800990138

   => Energetics <=

    Nuclear Repulsion Energy =             68.6895674688259419
    One-Electron Energy =               -1149.0113429231810187
    Two-Electron Energy =                 380.2141051279367616
    DFT Exchange-Correlation Energy =     -39.1536576834830896
    Empirical Dispersion Energy =           0.0000000000000000
    VV10 Nonlocal Energy =                  0.0000000000000000
    Total Energy =                       -739.2613280099012627

  UHF NO Occupations:
  HONO-2 :    8 A1 2.0000000
  HONO-1 :    3 B2 2.0000000
  HONO-0 :    9 A1 2.0000000
  LUNO+0 :   10 A1 0.0000000
  LUNO+1 :   11 A1 0.0000000
  LUNO+2 :   12 A1 0.0000000
  LUNO+3 :    4 B1 0.0000000

Computation Completed

Properties will be evaluated at   0.000000,   0.000000,   0.000000 [a0]

Properties computed using the SCF density matrix

 Multipole Moments:

 ------------------------------------------------------------------------------------
     Multipole            Electronic (a.u.)      Nuclear  (a.u.)        Total (a.u.)
 ------------------------------------------------------------------------------------

 L = 1.  Multiply by 2.5417464519 to convert [e a0] to [Debye]
 Dipole X            :          0.0000000            0.0000000            0.0000000
 Dipole Y            :          0.0000000            0.0000000            0.0000000
 Dipole Z            :          1.4263215           -0.8880751            0.5382465
 Magnitude           :                                                    0.5382465

 ------------------------------------------------------------------------------------

*** tstop() called on Joses-MacBook-Pro-2.local at Thu Jul 17 15:45:55 2025
Module time:
	user time   =       7.36 seconds =       0.12 minutes
	system time =       1.73 seconds =       0.03 minutes
	total time  =          1 seconds =       0.02 minutes
Total time:
	user time   =     162.09 seconds =       2.70 minutes
	system time =      41.30 seconds =       0.69 minutes
	total time  =         20 seconds =       0.33 minutes

*** tstart() called on Joses-MacBook-Pro-2.local
*** at Thu Jul 17 15:45:55 2025

         ------------------------------------------------------------
                                   SCF GRAD
                          Rob Parrish, Justin Turney,
                       Andy Simmonett, and Alex Sokolov
         ------------------------------------------------------------

  ==> Geometry <==

    Molecular point group: c2v
    Full point group: C_inf_v

    Geometry (in Angstrom), charge = 1, multiplicity = 1:

       Center              X                  Y                   Z               Mass
    ------------   -----------------  -----------------  -----------------  -----------------
         P            0.000000000000     0.000000000000     0.939129272219    30.973761998420
         S            0.000000000000     0.000000000000    -0.909805511341    31.972071174400

  Nuclear repulsion =   68.689567468825942

  ==> Basis Set <==

  Basis Set: CC-PVDZ
    Blend: CC-PVDZ
    Number of shells: 16
    Number of basis functions: 36
    Number of Cartesian functions: 38
    Spherical Harmonics?: true
    Max angular momentum: 2

  ==> DFJKGrad: Density-Fitted SCF Gradients <==

    Gradient:                    1
    J tasked:                  Yes
    K tasked:                  Yes
    wK tasked:                  No
    OpenMP threads:              1
    Integrals threads:           1
    Memory [MiB]:              375
    Schwarz Cutoff:          1E-12
    Fitting Condition:       1E-10

   => Auxiliary Basis Set <=

  Basis Set: (CC-PVDZ AUX)
    Blend: CC-PVDZ-JKFIT
    Number of shells: 72
    Number of basis functions: 224
    Number of Cartesian functions: 260
    Spherical Harmonics?: true
    Max angular momentum: 3

  ==> DFT Potential <==

   => LibXC <=

    Version 6.2.2
    S. Lehtola, C. Steigemann, M. J.T. Oliveira, and M. A.L. Marques.,  SoftwareX 7, 1â€“5 (2018) (10.1016/j.softx.2017.11.002)

   => Composite Functional: B3LYP <=

    B3LYP Hyb-GGA Exchange-Correlation Functional

    P. J. Stephens, F. J. Devlin, C. F. Chabalowski, and M. J. Frisch.,  J. Phys. Chem. 98, 11623 (1994) (10.1021/j100096a001)

    Deriv               =              1
    GGA                 =           TRUE
    Meta                =          FALSE

    Exchange Hybrid     =           TRUE
    MP2 Hybrid          =          FALSE

   => Exchange Functionals <=

    0.0800   Slater exchange
    0.7200         Becke 88

   => Exact (HF) Exchange <=

    0.2000               HF

   => Correlation Functionals <=

    0.1900   Vosko, Wilk & Nusair (VWN5_RPA)
    0.8100   Lee, Yang & Parr

   => LibXC Density Thresholds  <==

    XC_HYB_GGA_XC_B3LYP:  1.00E-15

   => Molecular Quadrature <=

    Radial Scheme          =       TREUTLER
    Pruning Scheme         =           NONE
    Nuclear Scheme         =       TREUTLER

    Blocking Scheme        =         OCTREE
    BS radius alpha        =              1
    Pruning alpha          =              1
    Radial Points          =             75
    Spherical Points       =            302
    Total Points           =          40790
    Total Blocks           =            364
    Max Points             =            255
    Max Functions          =             36
    Weights Tolerance      =       1.00E-15

  -Total Gradient:
     Atom            X                  Y                   Z
    ------   -----------------  -----------------  -----------------
       1        0.000000000000     0.000000000000    -0.000091933760
       2        0.000000000000    -0.000000000000     0.000099587056

*** tstop() called on Joses-MacBook-Pro-2.local at Thu Jul 17 15:45:55 2025
Module time:
	user time   =       2.35 seconds =       0.04 minutes
	system time =       1.30 seconds =       0.02 minutes
	total time  =          0 seconds =       0.00 minutes
Total time:
	user time   =     164.46 seconds =       2.74 minutes
	system time =      42.60 seconds =       0.71 minutes
	total time  =         20 seconds =       0.33 minutes

    			-----------------------------------------

    			 OPTKING 3.0: for geometry optimizations

    			     By R.A. King, Bethel University

    			        with contributions from

    			    A.V. Copan, J. Cayton, A. Heide

    			-----------------------------------------

	                            ===> Fragment 1 <==

	 Z (Atomic Numbers)          Masses                          Geom
	      15.000000            30.973762          0.00000000  0.00000000  1.77469712
	      16.000000            31.972071          0.00000000  0.00000000 -1.71928324

	 - Coordinate -           - BOHR/RAD -       - ANG/DEG -
	 R(1,2)           =         3.493980           1.848935

	        --- Internal Coordinate Step in ANG or DEG, aJ/ANG or AJ/DEG ---
	-------------------------------------------------------------------------------
	           Coordinate      Previous         Force          Change          New
	           ----------      --------        ------          ------        ------
	               R(1,2)       1.84893        0.00079        0.00011       1.84904
	-------------------------------------------------------------------------------

	                                 ==> Convergence Check <==

	Measures of convergence in internal coordinates in au.

	Criteria marked as inactive (o), active & met (*), and active & unmet ( ).

	----------------------------------------------------------------------------------------------
	   Step    Total Energy     Delta E     Max Force     RMS Force      Max Disp      RMS Disp
	----------------------------------------------------------------------------------------------
	  Convergence Criteria     1.00e-06 *    3.00e-04 *             o    1.20e-03 *             o
	----------------------------------------------------------------------------------------------
	    14    -739.26132801   -7.66e-07 *    9.58e-05 *    9.58e-05 o    2.06e-04 *    2.06e-04 o  ~
	----------------------------------------------------------------------------------------------

Next Geometry in Ang
	Fragment 1 (Ang)

	    P   0.0000000000   0.0000000000   0.9391839006
	    S   0.0000000000   0.0000000000  -0.9098601397

    Final optimized geometry and variables:
    Molecular point group: c2v
    Full point group: C_inf_v

    Geometry (in Angstrom), charge = 1, multiplicity = 1:

    P            0.000000000000     0.000000000000     0.939129272219
    S            0.000000000000     0.000000000000    -0.909805511341

    Psi4 stopped on: Thursday, 17 July 2025 03:45PM
    Psi4 wall time for execution: 0:00:20.25

*** Psi4 exiting successfully. Buy a developer a beer!
