                               Psi4 1.9.1 release

  ==> Input File <==

--------------------------------------------------------------------------
molecule {
1 1
B   0.00000        0.60000        0.00000
Mg   0.00000       -0.60000        0.00000
}

set {
basis              cc-pvdz
reference          uks
maxiter            500
geom_maxiter       500
DAMPING_PERCENTAGE 1
guess              SAP
}

optimize('b3lyp')
--------------------------------------------------------------------------

    Molecular point group: c2v
  Charge       = 1
  Multiplicity = 1
  Basis Set: CC-PVDZ
    Blend: CC-PVDZ
  Basis Set: (CC-PVDZ AUX)
    Blend: CC-PVDZ-JKFIT + DEF2-UNIVERSAL-JKFIT
  @DF-UKS Final Energy:  -223.94887239057707
    Total Energy =                       -223.9488723905770655
 Dipole X            :          0.0000000            0.0000000            0.0000000
 Dipole Y            :          0.0000000            0.0000000            0.0000000
 Dipole Z            :         -0.5753994           -0.7896955           -1.3650949
 Magnitude           :                                                    1.3650949
    Molecular point group: c2v
  Basis Set: CC-PVDZ
    Blend: CC-PVDZ
  Basis Set: (CC-PVDZ AUX)
    Blend: CC-PVDZ-JKFIT + DEF2-UNIVERSAL-JKFIT
  Basis Set: CC-PVDZ
    Blend: CC-PVDZ
  Basis Set: (CC-PVDZ AUX)
    Blend: CC-PVDZ-JKFIT + DEF2-UNIVERSAL-JKFIT
  @DF-UKS Final Energy:  -224.09417576922976
    Total Energy =                       -224.0941757692298211
  Basis Set: CC-PVDZ
    Blend: CC-PVDZ
  Basis Set: (CC-PVDZ AUX)
    Blend: CC-PVDZ-JKFIT + DEF2-UNIVERSAL-JKFIT
  Basis Set: CC-PVDZ
    Blend: CC-PVDZ
  @DF-UKS Final Energy:  -224.23527999771187
    Total Energy =                       -224.2352799977118707
  @DF-UKS Final Energy:  -224.33580570040237
    Total Energy =                       -224.3358057004023749
  @DF-UKS Final Energy:  -224.37559813473177
    Total Energy =                       -224.3755981347317743
  @DF-UKS Final Energy:  -224.46841242531383
    Total Energy =                       -224.4684124253138293
  @DF-UKS Final Energy:  -224.52390138400176
    Total Energy =                       -224.5239013840017606
  @DF-UKS Final Energy:  -224.52418499029406
    Total Energy =                       -224.5241849902940601
  @DF-UKS Final Energy:  -224.52511773018102
    Total Energy =                       -224.5251177301810515
  @DF-UKS Final Energy:  -224.52515642793702
    Total Energy =                       -224.5251564279370200
  Basis Set: (CC-PVDZ AUX)
    Blend: CC-PVDZ-JKFIT + DEF2-UNIVERSAL-JKFIT
  Basis Set: CC-PVDZ
    Blend: CC-PVDZ
  Basis Set: (CC-PVDZ AUX)
    Blend: CC-PVDZ-JKFIT + DEF2-UNIVERSAL-JKFIT
  @DF-UKS Final Energy:  -224.52515791958825
    Total Energy =                       -224.5251579195882528
  Basis Set: CC-PVDZ
    Blend: CC-PVDZ
  Basis Set: (CC-PVDZ AUX)
    Blend: CC-PVDZ-JKFIT + DEF2-UNIVERSAL-JKFIT
  Charge       = 1
  Multiplicity = 1
  Basis Set: CC-PVDZ
    Blend: CC-PVDZ
  Basis Set: (CC-PVDZ AUX)
    Blend: CC-PVDZ-JKFIT + DEF2-UNIVERSAL-JKFIT

    Orbital Energies [Eh]
    ---------------------

    Alpha Occupied:

       1A1   -47.092369     2A1    -7.113185     3A1    -3.367772
       1B2    -2.111799     1B1    -2.111799     4A1    -2.110137
       5A1    -0.617693     6A1    -0.420709

    Alpha Virtual:

       2B1    -0.313922     2B2    -0.313922     7A1    -0.308012
       3B2    -0.204953     3B1    -0.204953     8A1    -0.147449
       9A1    -0.064997     4B2    -0.013148     4B1    -0.013148
      10A1     0.000285     5B2     0.083824     5B1     0.083824
       1A2     0.101239    11A1     0.101239    12A1     0.101656
       6B2     0.155333     6B1     0.155333    13A1     0.231540
      14A1     0.337418     2A2     0.492380    15A1     0.492382
       7B2     0.569004     7B1     0.569004    16A1     0.804959

    Beta Occupied:

       1A1   -47.092369     2A1    -7.113185     3A1    -3.367772
       1B2    -2.111799     1B1    -2.111799     4A1    -2.110137
       5A1    -0.617693     6A1    -0.420709

    Beta Virtual:

       2B1    -0.313922     2B2    -0.313922     7A1    -0.308012
       3B2    -0.204953     3B1    -0.204953     8A1    -0.147449
       9A1    -0.064997     4B2    -0.013148     4B1    -0.013148
      10A1     0.000285     5B2     0.083824     5B1     0.083824
       1A2     0.101239    11A1     0.101239    12A1     0.101656
       6B2     0.155333     6B1     0.155333    13A1     0.231540
      14A1     0.337418     2A2     0.492380    15A1     0.492382
       7B2     0.569004     7B1     0.569004    16A1     0.804959

    Final Occupation by Irrep:
             A1    A2    B1    B2
    DOCC [     6,    0,    1,    1 ]
    SOCC [     0,    0,    0,    0 ]
    NA   [     6,    0,    1,    1 ]
    NB   [     6,    0,    1,    1 ]

  @DF-UKS Final Energy:  -224.52515797575990

   => Energetics <=

    Nuclear Repulsion Energy =             12.2858149884117562
    One-Electron Energy =                -332.0959284211338627
    Two-Electron Energy =                 111.5343216894906533
    DFT Exchange-Correlation Energy =     -16.2493662325284198
    Empirical Dispersion Energy =           0.0000000000000000
    VV10 Nonlocal Energy =                  0.0000000000000000
    Total Energy =                       -224.5251579757598961

  UHF NO Occupations:
  HONO-2 :    1 B1 2.0000000
  HONO-1 :    5 A1 2.0000000
  HONO-0 :    6 A1 2.0000000
  LUNO+0 :    7 A1 0.0000000
  LUNO+1 :    8 A1 0.0000000
  LUNO+2 :    2 B1 0.0000000
  LUNO+3 :    9 A1 0.0000000

Computation Completed

Properties will be evaluated at   0.000000,   0.000000,   0.000000 [a0]

Properties computed using the SCF density matrix

 Multipole Moments:

 ------------------------------------------------------------------------------------
     Multipole            Electronic (a.u.)      Nuclear  (a.u.)        Total (a.u.)
 ------------------------------------------------------------------------------------

 L = 1.  Multiply by 2.5417464519 to convert [e a0] to [Debye]
 Dipole X            :          0.0000000            0.0000000            0.0000000
 Dipole Y            :          0.0000000            0.0000000            0.0000000
 Dipole Z            :          1.0507153           -1.7006964           -0.6499812
 Magnitude           :                                                    0.6499812

 ------------------------------------------------------------------------------------

*** tstop() called on Joses-MacBook-Pro-2.local at Thu Jul 17 13:34:14 2025
Module time:
	user time   =       2.48 seconds =       0.04 minutes
	system time =       2.92 seconds =       0.05 minutes
	total time  =          0 seconds =       0.00 minutes
Total time:
	user time   =      54.91 seconds =       0.92 minutes
	system time =      68.41 seconds =       1.14 minutes
	total time  =         13 seconds =       0.22 minutes

*** tstart() called on Joses-MacBook-Pro-2.local
*** at Thu Jul 17 13:34:14 2025

         ------------------------------------------------------------
                                   SCF GRAD
                          Rob Parrish, Justin Turney,
                       Andy Simmonett, and Alex Sokolov
         ------------------------------------------------------------

  ==> Geometry <==

    Molecular point group: c2v
    Full point group: C_inf_v

    Geometry (in Angstrom), charge = 1, multiplicity = 1:

       Center              X                  Y                   Z               Mass
    ------------   -----------------  -----------------  -----------------  -----------------
         B            0.000000000000     0.000000000000     1.771295402189    11.009305360000
         MG           0.000000000000     0.000000000000    -0.813037234282    23.985041697000

  Nuclear repulsion =   12.285814988411756

  ==> Basis Set <==

  Basis Set: CC-PVDZ
    Blend: CC-PVDZ
    Number of shells: 14
    Number of basis functions: 32
    Number of Cartesian functions: 34
    Spherical Harmonics?: true
    Max angular momentum: 2

  ==> DFJKGrad: Density-Fitted SCF Gradients <==

    Gradient:                    1
    J tasked:                  Yes
    K tasked:                  Yes
    wK tasked:                  No
    OpenMP threads:              1
    Integrals threads:           1
    Memory [MiB]:              375
    Schwarz Cutoff:          1E-12
    Fitting Condition:       1E-10

   => Auxiliary Basis Set <=

  Basis Set: (CC-PVDZ AUX)
    Blend: CC-PVDZ-JKFIT + DEF2-UNIVERSAL-JKFIT
    Number of shells: 58
    Number of basis functions: 182
    Number of Cartesian functions: 218
    Spherical Harmonics?: true
    Max angular momentum: 4

  ==> DFT Potential <==

   => LibXC <=

    Version 6.2.2
    S. Lehtola, C. Steigemann, M. J.T. Oliveira, and M. A.L. Marques.,  SoftwareX 7, 1â€“5 (2018) (10.1016/j.softx.2017.11.002)

   => Composite Functional: B3LYP <=

    B3LYP Hyb-GGA Exchange-Correlation Functional

    P. J. Stephens, F. J. Devlin, C. F. Chabalowski, and M. J. Frisch.,  J. Phys. Chem. 98, 11623 (1994) (10.1021/j100096a001)

    Deriv               =              1
    GGA                 =           TRUE
    Meta                =          FALSE

    Exchange Hybrid     =           TRUE
    MP2 Hybrid          =          FALSE

   => Exchange Functionals <=

    0.0800   Slater exchange
    0.7200         Becke 88

   => Exact (HF) Exchange <=

    0.2000               HF

   => Correlation Functionals <=

    0.1900   Vosko, Wilk & Nusair (VWN5_RPA)
    0.8100   Lee, Yang & Parr

   => LibXC Density Thresholds  <==

    XC_HYB_GGA_XC_B3LYP:  1.00E-15

   => Molecular Quadrature <=

    Radial Scheme          =       TREUTLER
    Pruning Scheme         =           NONE
    Nuclear Scheme         =       TREUTLER

    Blocking Scheme        =         OCTREE
    BS radius alpha        =              1
    Pruning alpha          =              1
    Radial Points          =             75
    Spherical Points       =            302
    Total Points           =          43293
    Total Blocks           =            419
    Max Points             =            255
    Max Functions          =             32
    Weights Tolerance      =       1.00E-15

  -Total Gradient:
     Atom            X                  Y                   Z
    ------   -----------------  -----------------  -----------------
       1        0.000000000000     0.000000000000    -0.000019549303
       2        0.000000000000    -0.000000000000     0.000006314021

*** tstop() called on Joses-MacBook-Pro-2.local at Thu Jul 17 13:34:15 2025
Module time:
	user time   =       1.19 seconds =       0.02 minutes
	system time =       1.77 seconds =       0.03 minutes
	total time  =          1 seconds =       0.02 minutes
Total time:
	user time   =      56.11 seconds =       0.94 minutes
	system time =      70.19 seconds =       1.17 minutes
	total time  =         14 seconds =       0.23 minutes

    			-----------------------------------------

    			 OPTKING 3.0: for geometry optimizations

    			     By R.A. King, Bethel University

    			        with contributions from

    			    A.V. Copan, J. Cayton, A. Heide

    			-----------------------------------------

	                            ===> Fragment 1 <==

	 Z (Atomic Numbers)          Masses                          Geom
	       5.000000            11.009305          0.00000000  0.00000000  3.34726320
	      12.000000            23.985042          0.00000000  0.00000000 -1.53641770

	 - Coordinate -           - BOHR/RAD -       - ANG/DEG -
	 R(1,2)           =         4.883681           2.584333

	        --- Internal Coordinate Step in ANG or DEG, aJ/ANG or AJ/DEG ---
	-------------------------------------------------------------------------------
	           Coordinate      Previous         Force          Change          New
	           ----------      --------        ------          ------        ------
	               R(1,2)       2.58433        0.00011        0.00017       2.58450
	-------------------------------------------------------------------------------

	                                 ==> Convergence Check <==

	Measures of convergence in internal coordinates in au.

	Criteria marked as inactive (o), active & met (*), and active & unmet ( ).

	----------------------------------------------------------------------------------------------
	   Step    Total Energy     Delta E     Max Force     RMS Force      Max Disp      RMS Disp
	----------------------------------------------------------------------------------------------
	  Convergence Criteria     1.00e-06 *    3.00e-04 *             o    1.20e-03 *             o
	----------------------------------------------------------------------------------------------
	    12    -224.52515798   -5.62e-08 *    1.29e-05 *    1.29e-05 o    3.21e-04 *    3.21e-04 o  ~
	----------------------------------------------------------------------------------------------

Next Geometry in Ang
	Fragment 1 (Ang)

	    B   0.0000000000   0.0000000000   1.7713802679
	   Mg   0.0000000000   0.0000000000  -0.8131221000

    Final optimized geometry and variables:
    Molecular point group: c2v
    Full point group: C_inf_v

    Geometry (in Angstrom), charge = 1, multiplicity = 1:

    B            0.000000000000     0.000000000000     1.771295402189
    MG           0.000000000000     0.000000000000    -0.813037234282

    Psi4 stopped on: Thursday, 17 July 2025 01:34PM
    Psi4 wall time for execution: 0:00:14.28

*** Psi4 exiting successfully. Buy a developer a beer!
