                               Psi4 1.9.1 release

  ==> Input File <==

--------------------------------------------------------------------------
molecule {
1 1
Li   0.00000        0.60000        0.00000
C   0.00000       -0.60000        0.00000
}

set {
basis              cc-pvdz
reference          uks
maxiter            500
geom_maxiter       500
DAMPING_PERCENTAGE 1
guess              SAP
}

optimize('b3lyp')
--------------------------------------------------------------------------

    Molecular point group: c2v
  Charge       = 1
  Multiplicity = 1
  Basis Set: CC-PVDZ
    Blend: CC-PVDZ
  Basis Set: (CC-PVDZ AUX)
    Blend: CC-PVDZ-JKFIT + DEF2-UNIVERSAL-JKFIT
  @DF-UKS Final Energy:   -44.84862949894418
    Total Energy =                        -44.8486294989441774
 Dipole X            :          0.0000000            0.0000000            0.0000000
 Dipole Y            :          0.0000000            0.0000000            0.0000000
 Dipole Z            :          1.6637472           -0.7269546            0.9367926
 Magnitude           :                                                    0.9367926
    Molecular point group: c2v
  Basis Set: CC-PVDZ
    Blend: CC-PVDZ
  Basis Set: (CC-PVDZ AUX)
    Blend: CC-PVDZ-JKFIT + DEF2-UNIVERSAL-JKFIT
  Basis Set: CC-PVDZ
    Blend: CC-PVDZ
  Basis Set: (CC-PVDZ AUX)
    Blend: CC-PVDZ-JKFIT + DEF2-UNIVERSAL-JKFIT
  @DF-UKS Final Energy:   -44.95803961280097
    Total Energy =                        -44.9580396128009738
  Basis Set: CC-PVDZ
    Blend: CC-PVDZ
  Basis Set: (CC-PVDZ AUX)
    Blend: CC-PVDZ-JKFIT + DEF2-UNIVERSAL-JKFIT
  Basis Set: CC-PVDZ
    Blend: CC-PVDZ
  @DF-UKS Final Energy:   -45.01314414641409
    Total Energy =                        -45.0131441464140920
  @DF-UKS Final Energy:   -45.04056059611273
    Total Energy =                        -45.0405605961127335
  @DF-UKS Final Energy:   -45.05462739939637
    Total Energy =                        -45.0546273993963808
  @DF-UKS Final Energy:   -45.06179249582870
    Total Energy =                        -45.0617924958286977
  @DF-UKS Final Energy:   -45.06538201827380
    Total Energy =                        -45.0653820182737945
  @DF-UKS Final Energy:   -45.06709154726078
    Total Energy =                        -45.0670915472607803
  @DF-UKS Final Energy:   -45.06785410260342
    Total Energy =                        -45.0678541026034196
  @DF-UKS Final Energy:   -45.06815727928858
    Total Energy =                        -45.0681572792885845
  @DF-UKS Final Energy:   -45.06824042854701
    Total Energy =                        -45.0682404285470213
  @DF-UKS Final Energy:   -45.06827431745434
    Total Energy =                        -45.0682743174543390
  @DF-UKS Final Energy:   -45.06828182757968
    Total Energy =                        -45.0682818275796819
  Basis Set: (CC-PVDZ AUX)
    Blend: CC-PVDZ-JKFIT + DEF2-UNIVERSAL-JKFIT
  Basis Set: CC-PVDZ
    Blend: CC-PVDZ
  Basis Set: (CC-PVDZ AUX)
    Blend: CC-PVDZ-JKFIT + DEF2-UNIVERSAL-JKFIT
  @DF-UKS Final Energy:   -45.06828392960435
    Total Energy =                        -45.0682839296043483
  Basis Set: CC-PVDZ
    Blend: CC-PVDZ
  Basis Set: (CC-PVDZ AUX)
    Blend: CC-PVDZ-JKFIT + DEF2-UNIVERSAL-JKFIT
  Charge       = 1
  Multiplicity = 1
  Basis Set: CC-PVDZ
    Blend: CC-PVDZ
  Basis Set: (CC-PVDZ AUX)
    Blend: CC-PVDZ-JKFIT + DEF2-UNIVERSAL-JKFIT

    Orbital Energies [Eh]
    ---------------------

    Alpha Occupied:

       1A1   -10.525838     2A1    -2.345312     3A1    -0.738537
       1B2    -0.398165

    Alpha Virtual:

       4A1    -0.359340     1B1    -0.335623     5A1    -0.238029
       2B2    -0.183267     2B1    -0.176810     6A1    -0.149500
       3B2    -0.067002     7A1    -0.065215     3B1    -0.064091
       8A1    -0.048517     1A2     0.062552     4B2     0.063918
       4B1     0.066124     9A1     0.067491    10A1     0.116396
       5B1     0.341535     5B2     0.349064    11A1     0.364113
      12A1     0.624652     2A2     0.964982     6B1     0.965486
      13A1     0.971157     6B2     0.984422    14A1     1.033759

    Beta Occupied:

       1A1   -10.525838     2A1    -2.345312     3A1    -0.738537
       1B2    -0.398165

    Beta Virtual:

       4A1    -0.359340     1B1    -0.335623     5A1    -0.238029
       2B2    -0.183267     2B1    -0.176810     6A1    -0.149500
       3B2    -0.067002     7A1    -0.065215     3B1    -0.064091
       8A1    -0.048517     1A2     0.062552     4B2     0.063918
       4B1     0.066124     9A1     0.067491    10A1     0.116396
       5B1     0.341535     5B2     0.349064    11A1     0.364113
      12A1     0.624652     2A2     0.964982     6B1     0.965486
      13A1     0.971157     6B2     0.984422    14A1     1.033759

    Final Occupation by Irrep:
             A1    A2    B1    B2
    DOCC [     3,    0,    0,    1 ]
    SOCC [     0,    0,    0,    0 ]
    NA   [     3,    0,    0,    1 ]
    NB   [     3,    0,    0,    1 ]

  @DF-UKS Final Energy:   -45.06828411808413

   => Energetics <=

    Nuclear Repulsion Energy =              3.3584300128791544
    One-Electron Energy =                 -64.8179335905199281
    Two-Electron Energy =                  21.9500906593634717
    DFT Exchange-Correlation Energy =      -5.5588711998068234
    Empirical Dispersion Energy =           0.0000000000000000
    VV10 Nonlocal Energy =                  0.0000000000000000
    Total Energy =                        -45.0682841180841294

  UHF NO Occupations:
  HONO-2 :    2 A1 2.0000000
  HONO-1 :    1 B2 2.0000000
  HONO-0 :    3 A1 2.0000000
  LUNO+0 :    4 A1 0.0000000
  LUNO+1 :    2 B2 0.0000000
  LUNO+2 :    5 A1 0.0000000
  LUNO+3 :    6 A1 0.0000000

Computation Completed

Properties will be evaluated at   0.000000,   0.000000,   0.000000 [a0]

Properties computed using the SCF density matrix

 Multipole Moments:

 ------------------------------------------------------------------------------------
     Multipole            Electronic (a.u.)      Nuclear  (a.u.)        Total (a.u.)
 ------------------------------------------------------------------------------------

 L = 1.  Multiply by 2.5417464519 to convert [e a0] to [Debye]
 Dipole X            :          0.0000000            0.0000000            0.0000000
 Dipole Y            :          0.0000000            0.0000000            0.0000000
 Dipole Z            :          4.6696055           -1.7181591            2.9514463
 Magnitude           :                                                    2.9514463

 ------------------------------------------------------------------------------------

*** tstop() called on Joses-MacBook-Pro-2.local at Thu Jul 17 12:44:29 2025
Module time:
	user time   =       2.15 seconds =       0.04 minutes
	system time =       2.50 seconds =       0.04 minutes
	total time  =          0 seconds =       0.00 minutes
Total time:
	user time   =      54.12 seconds =       0.90 minutes
	system time =      67.16 seconds =       1.12 minutes
	total time  =         11 seconds =       0.18 minutes

*** tstart() called on Joses-MacBook-Pro-2.local
*** at Thu Jul 17 12:44:29 2025

         ------------------------------------------------------------
                                   SCF GRAD
                          Rob Parrish, Justin Turney,
                       Andy Simmonett, and Alex Sokolov
         ------------------------------------------------------------

  ==> Geometry <==

    Molecular point group: c2v
    Full point group: C_inf_v

    Geometry (in Angstrom), charge = 1, multiplicity = 1:

       Center              X                  Y                   Z               Mass
    ------------   -----------------  -----------------  -----------------  -----------------
         LI           0.000000000000     0.000000000000     1.789778696187     7.016003436600
         C            0.000000000000     0.000000000000    -1.046424456933    12.000000000000

  Nuclear repulsion =    3.358430012879154

  ==> Basis Set <==

  Basis Set: CC-PVDZ
    Blend: CC-PVDZ
    Number of shells: 12
    Number of basis functions: 28
    Number of Cartesian functions: 30
    Spherical Harmonics?: true
    Max angular momentum: 2

  ==> DFJKGrad: Density-Fitted SCF Gradients <==

    Gradient:                    1
    J tasked:                  Yes
    K tasked:                  Yes
    wK tasked:                  No
    OpenMP threads:              1
    Integrals threads:           1
    Memory [MiB]:              375
    Schwarz Cutoff:          1E-12
    Fitting Condition:       1E-10

   => Auxiliary Basis Set <=

  Basis Set: (CC-PVDZ AUX)
    Blend: CC-PVDZ-JKFIT + DEF2-UNIVERSAL-JKFIT
    Number of shells: 41
    Number of basis functions: 121
    Number of Cartesian functions: 141
    Spherical Harmonics?: true
    Max angular momentum: 3

  ==> DFT Potential <==

   => LibXC <=

    Version 6.2.2
    S. Lehtola, C. Steigemann, M. J.T. Oliveira, and M. A.L. Marques.,  SoftwareX 7, 1â€“5 (2018) (10.1016/j.softx.2017.11.002)

   => Composite Functional: B3LYP <=

    B3LYP Hyb-GGA Exchange-Correlation Functional

    P. J. Stephens, F. J. Devlin, C. F. Chabalowski, and M. J. Frisch.,  J. Phys. Chem. 98, 11623 (1994) (10.1021/j100096a001)

    Deriv               =              1
    GGA                 =           TRUE
    Meta                =          FALSE

    Exchange Hybrid     =           TRUE
    MP2 Hybrid          =          FALSE

   => Exchange Functionals <=

    0.0800   Slater exchange
    0.7200         Becke 88

   => Exact (HF) Exchange <=

    0.2000               HF

   => Correlation Functionals <=

    0.1900   Vosko, Wilk & Nusair (VWN5_RPA)
    0.8100   Lee, Yang & Parr

   => LibXC Density Thresholds  <==

    XC_HYB_GGA_XC_B3LYP:  1.00E-15

   => Molecular Quadrature <=

    Radial Scheme          =       TREUTLER
    Pruning Scheme         =           NONE
    Nuclear Scheme         =       TREUTLER

    Blocking Scheme        =         OCTREE
    BS radius alpha        =              1
    Pruning alpha          =              1
    Radial Points          =             75
    Spherical Points       =            302
    Total Points           =          44367
    Total Blocks           =            429
    Max Points             =            256
    Max Functions          =             28
    Weights Tolerance      =       1.00E-15

  -Total Gradient:
     Atom            X                  Y                   Z
    ------   -----------------  -----------------  -----------------
       1        0.000000000000     0.000000000000    -0.000004657115
       2       -0.000000000000     0.000000000000     0.000021936785

*** tstop() called on Joses-MacBook-Pro-2.local at Thu Jul 17 12:44:30 2025
Module time:
	user time   =       0.54 seconds =       0.01 minutes
	system time =       1.15 seconds =       0.02 minutes
	total time  =          1 seconds =       0.02 minutes
Total time:
	user time   =      54.66 seconds =       0.91 minutes
	system time =      68.31 seconds =       1.14 minutes
	total time  =         12 seconds =       0.20 minutes

    			-----------------------------------------

    			 OPTKING 3.0: for geometry optimizations

    			     By R.A. King, Bethel University

    			        with contributions from

    			    A.V. Copan, J. Cayton, A. Heide

    			-----------------------------------------

	                            ===> Fragment 1 <==

	 Z (Atomic Numbers)          Masses                          Geom
	       3.000000             7.016003          0.00000000  0.00000000  3.38219156
	       6.000000            12.000000          0.00000000  0.00000000 -1.97745563

	 - Coordinate -           - BOHR/RAD -       - ANG/DEG -
	 R(1,2)           =         5.359647           2.836203

	        --- Internal Coordinate Step in ANG or DEG, aJ/ANG or AJ/DEG ---
	-------------------------------------------------------------------------------
	           Coordinate      Previous         Force          Change          New
	           ----------      --------        ------          ------        ------
	               R(1,2)       2.83620        0.00011        0.00347       2.83967
	-------------------------------------------------------------------------------

	                                 ==> Convergence Check <==

	Measures of convergence in internal coordinates in au.

	Criteria marked as inactive (o), active & met (*), and active & unmet ( ).

	----------------------------------------------------------------------------------------------
	   Step    Total Energy     Delta E     Max Force     RMS Force      Max Disp      RMS Disp
	----------------------------------------------------------------------------------------------
	  Convergence Criteria     1.00e-06 *    3.00e-04 *             o    1.20e-03 *             o
	----------------------------------------------------------------------------------------------
	    15     -45.06828412   -1.88e-07 *    1.33e-05 *    1.33e-05 o    6.55e-03      6.55e-03 o  ~
	----------------------------------------------------------------------------------------------

Next Geometry in Ang
	Fragment 1 (Ang)

	   Li   0.0000000000   0.0000000000   1.7915125122
	    C   0.0000000000   0.0000000000  -1.0481582729

    Final optimized geometry and variables:
    Molecular point group: c2v
    Full point group: C_inf_v

    Geometry (in Angstrom), charge = 1, multiplicity = 1:

    LI           0.000000000000     0.000000000000     1.789778696187
    C            0.000000000000     0.000000000000    -1.046424456933

    Psi4 stopped on: Thursday, 17 July 2025 12:44PM
    Psi4 wall time for execution: 0:00:12.17

*** Psi4 exiting successfully. Buy a developer a beer!
