                               Psi4 1.9.1 release

  ==> Input File <==

--------------------------------------------------------------------------
molecule {
1 1
Na   0.00000        0.60000        0.00000
S   0.00000       -0.60000        0.00000
}

set {
basis              cc-pvdz
reference          uks
maxiter            500
geom_maxiter       500
DAMPING_PERCENTAGE 1
guess              SAP
}

optimize('b3lyp')
--------------------------------------------------------------------------

    Molecular point group: c2v
  Charge       = 1
  Multiplicity = 1
  Basis Set: CC-PVDZ
    Blend: CC-PVDZ
  Basis Set: (CC-PVDZ AUX)
    Blend: CC-PVDZ-JKFIT + DEF2-UNIVERSAL-JKFIT
  @DF-UKS Final Energy:  -559.32916651607331
    Total Energy =                       -559.3291665160734283
 Dipole X            :          0.0000000            0.0000000            0.0000000
 Dipole Y            :          0.0000000            0.0000000            0.0000000
 Dipole Z            :          2.1720932           -0.6660660            1.5060272
 Magnitude           :                                                    1.5060272
    Molecular point group: c2v
  Basis Set: CC-PVDZ
    Blend: CC-PVDZ
  Basis Set: (CC-PVDZ AUX)
    Blend: CC-PVDZ-JKFIT + DEF2-UNIVERSAL-JKFIT
  Basis Set: CC-PVDZ
    Blend: CC-PVDZ
  Basis Set: (CC-PVDZ AUX)
    Blend: CC-PVDZ-JKFIT + DEF2-UNIVERSAL-JKFIT
  @DF-UKS Final Energy:  -559.34024204317973
    Total Energy =                       -559.3402420431797282
  Basis Set: CC-PVDZ
    Blend: CC-PVDZ
  Basis Set: (CC-PVDZ AUX)
    Blend: CC-PVDZ-JKFIT + DEF2-UNIVERSAL-JKFIT
  Basis Set: CC-PVDZ
    Blend: CC-PVDZ
  @DF-UKS Final Energy:  -559.36155145669647
    Total Energy =                       -559.3615514566964748
  @DF-UKS Final Energy:  -559.43817336749225
    Total Energy =                       -559.4381733674922543
  @DF-UKS Final Energy:  -559.76572178836091
    Total Energy =                       -559.7657217883610201
  @DF-UKS Final Energy:  -559.91545458795827
    Total Energy =                       -559.9154545879582656
  @DF-UKS Final Energy:  -560.01403721923214
    Total Energy =                       -560.0140372192321365
  @DF-UKS Final Energy:  -560.07284559808920
    Total Energy =                       -560.0728455980892022
  @DF-UKS Final Energy:  -560.10421822359501
    Total Energy =                       -560.1042182235951259
  @DF-UKS Final Energy:  -560.12190723835988
    Total Energy =                       -560.1219072383598814
  @DF-UKS Final Energy:  -560.13237375577773
    Total Energy =                       -560.1323737557778486
  @DF-UKS Final Energy:  -560.13879615678957
    Total Energy =                       -560.1387961567894536
  @DF-UKS Final Energy:  -560.14278549296864
    Total Energy =                       -560.1427854929685282
  @DF-UKS Final Energy:  -560.14536411904521
    Total Energy =                       -560.1453641190453254
  @DF-UKS Final Energy:  -560.14715809335598
    Total Energy =                       -560.1471580933560972
  @DF-UKS Final Energy:  -560.14717838830904
    Total Energy =                       -560.1471783883090438
  @DF-UKS Final Energy:  -560.14870828471203
    Total Energy =                       -560.1487082847120291
  @DF-UKS Final Energy:  -560.14871868087278
    Total Energy =                       -560.1487186808728893
  @DF-UKS Final Energy:  -560.14872903227797
    Total Energy =                       -560.1487290322780837
  @DF-UKS Final Energy:  -560.14995795920993
    Total Energy =                       -560.1499579592100417
  @DF-UKS Final Energy:  -560.15285395723686
    Total Energy =                       -560.1528539572368572
  @DF-UKS Final Energy:  -560.15285520553869
    Total Energy =                       -560.1528552055385717
  @DF-UKS Final Energy:  -560.15285645229437
    Total Energy =                       -560.1528564522941451
  @DF-UKS Final Energy:  -560.15320511389928
    Total Energy =                       -560.1532051138992756
  @DF-UKS Final Energy:  -560.15320591421744
    Total Energy =                       -560.1532059142175513
  @DF-UKS Final Energy:  -560.15320672460791
    Total Energy =                       -560.1532067246079123
  @DF-UKS Final Energy:  -560.15320753394371
    Total Energy =                       -560.1532075339437142
  @DF-UKS Final Energy:  -560.15320834243630
    Total Energy =                       -560.1532083424363009
  @DF-UKS Final Energy:  -560.15320915010113
    Total Energy =                       -560.1532091501011337
  @DF-UKS Final Energy:  -560.15320995696220
    Total Energy =                       -560.1532099569619731
  @DF-UKS Final Energy:  -560.15321076292696
    Total Energy =                       -560.1532107629269603
  @DF-UKS Final Energy:  -560.15321156812354
    Total Energy =                       -560.1532115681235382
  @DF-UKS Final Energy:  -560.15321237241380
    Total Energy =                       -560.1532123724138046
  @DF-UKS Final Energy:  -560.15321317589030
    Total Energy =                       -560.1532131758901869
  @DF-UKS Final Energy:  -560.15321397855405
    Total Energy =                       -560.1532139785539357
  @DF-UKS Final Energy:  -560.15321478034900
    Total Energy =                       -560.1532147803490034
  @DF-UKS Final Energy:  -560.15321558129426
    Total Energy =                       -560.1532155812941483
  @DF-UKS Final Energy:  -560.15321638137198
    Total Energy =                       -560.1532163813719762
  Basis Set: (CC-PVDZ AUX)
    Blend: CC-PVDZ-JKFIT + DEF2-UNIVERSAL-JKFIT
  Basis Set: CC-PVDZ
    Blend: CC-PVDZ
  Basis Set: (CC-PVDZ AUX)
    Blend: CC-PVDZ-JKFIT + DEF2-UNIVERSAL-JKFIT
  @DF-UKS Final Energy:  -560.15348621728458
    Total Energy =                       -560.1534862172845806
  Basis Set: CC-PVDZ
    Blend: CC-PVDZ
  Basis Set: (CC-PVDZ AUX)
    Blend: CC-PVDZ-JKFIT + DEF2-UNIVERSAL-JKFIT
  Charge       = 1
  Multiplicity = 1
  Basis Set: CC-PVDZ
    Blend: CC-PVDZ
  Basis Set: (CC-PVDZ AUX)
    Blend: CC-PVDZ-JKFIT + DEF2-UNIVERSAL-JKFIT

    Orbital Energies [Eh]
    ---------------------

    Alpha Occupied:

       1A1   -89.016939     2A1   -38.774879     3A1    -8.071514
       4A1    -6.049085     1B2    -6.023037     1B1    -6.023037
       5A1    -2.512177     6A1    -1.443342     2B2    -1.443319
       2B1    -1.443319     7A1    -0.754178     3B2    -0.345806
       3B1    -0.345806

    Alpha Virtual:

       8A1    -0.312509     9A1    -0.257936    10A1    -0.149151
       4B1    -0.149076     4B2    -0.149076    11A1    -0.063990
      12A1    -0.046595     5B1    -0.045940     5B2    -0.045940
      13A1     0.009310     6B1     0.009487     6B2     0.009487
       1A2     0.009650    14A1     0.009653    15A1     0.389901
      16A1     0.392206     7B1     0.414427     7B2     0.414427
      17A1     0.489893     8B1     0.492786     8B2     0.492786
       2A2     0.527169    18A1     0.527230

    Beta Occupied:

       1A1   -89.016939     2A1   -38.774879     3A1    -8.071514
       4A1    -6.049085     1B2    -6.023037     1B1    -6.023037
       5A1    -2.512177     6A1    -1.443342     2B2    -1.443319
       2B1    -1.443319     7A1    -0.754178     3B2    -0.345806
       3B1    -0.345806

    Beta Virtual:

       8A1    -0.312509     9A1    -0.257936    10A1    -0.149151
       4B1    -0.149076     4B2    -0.149076    11A1    -0.063990
      12A1    -0.046595     5B2    -0.045940     5B1    -0.045940
      13A1     0.009310     6B1     0.009487     6B2     0.009487
       1A2     0.009650    14A1     0.009653    15A1     0.389901
      16A1     0.392206     7B1     0.414427     7B2     0.414427
      17A1     0.489893     8B2     0.492786     8B1     0.492786
       2A2     0.527169    18A1     0.527230

    Final Occupation by Irrep:
             A1    A2    B1    B2
    DOCC [     7,    0,    3,    3 ]
    SOCC [     0,    0,    0,    0 ]
    NA   [     7,    0,    3,    3 ]
    NB   [     7,    0,    3,    3 ]

  @DF-UKS Final Energy:  -560.15348675339033

   => Energetics <=

    Nuclear Repulsion Energy =             13.0161772770065216
    One-Electron Energy =                -798.9355495004801924
    Two-Electron Energy =                 257.9164005643215773
    DFT Exchange-Correlation Energy =     -32.1505150942381661
    Empirical Dispersion Energy =           0.0000000000000000
    VV10 Nonlocal Energy =                  0.0000000000000000
    Total Energy =                       -560.1534867533902116

  UHF NO Occupations:
  HONO-2 :    3 B1 2.0000000
  HONO-1 :    6 A1 2.0000000
  HONO-0 :    7 A1 2.0000000
  LUNO+0 :    8 A1 0.0000000
  LUNO+1 :    9 A1 0.0000000
  LUNO+2 :    4 B2 0.0000000
  LUNO+3 :   10 A1 0.0000000

Computation Completed

Properties will be evaluated at   0.000000,   0.000000,   0.000000 [a0]

Properties computed using the SCF density matrix

 Multipole Moments:

 ------------------------------------------------------------------------------------
     Multipole            Electronic (a.u.)      Nuclear  (a.u.)        Total (a.u.)
 ------------------------------------------------------------------------------------

 L = 1.  Multiply by 2.5417464519 to convert [e a0] to [Debye]
 Dipole X            :          0.0000000            0.0000000            0.0000000
 Dipole Y            :          0.0000000            0.0000000            0.0000000
 Dipole Z            :         11.7883931           -3.9716076            7.8167855
 Magnitude           :                                                    7.8167855

 ------------------------------------------------------------------------------------

*** tstop() called on Joses-MacBook-Pro-2.local at Thu Jul 17 14:58:43 2025
Module time:
	user time   =       3.59 seconds =       0.06 minutes
	system time =       1.40 seconds =       0.02 minutes
	total time  =          0 seconds =       0.00 minutes
Total time:
	user time   =     610.67 seconds =      10.18 minutes
	system time =     271.79 seconds =       4.53 minutes
	total time  =         83 seconds =       1.38 minutes

*** tstart() called on Joses-MacBook-Pro-2.local
*** at Thu Jul 17 14:58:43 2025

         ------------------------------------------------------------
                                   SCF GRAD
                          Rob Parrish, Justin Turney,
                       Andy Simmonett, and Alex Sokolov
         ------------------------------------------------------------

  ==> Geometry <==

    Molecular point group: c2v
    Full point group: C_inf_v

    Geometry (in Angstrom), charge = 1, multiplicity = 1:

       Center              X                  Y                   Z               Mass
    ------------   -----------------  -----------------  -----------------  -----------------
         NA           0.000000000000     0.000000000000     4.162362015118    22.989769282000
         S            0.000000000000     0.000000000000    -2.992979149638    31.972071174400

  Nuclear repulsion =   13.016177277006522

  ==> Basis Set <==

  Basis Set: CC-PVDZ
    Blend: CC-PVDZ
    Number of shells: 16
    Number of basis functions: 36
    Number of Cartesian functions: 38
    Spherical Harmonics?: true
    Max angular momentum: 2

  ==> DFJKGrad: Density-Fitted SCF Gradients <==

    Gradient:                    1
    J tasked:                  Yes
    K tasked:                  Yes
    wK tasked:                  No
    OpenMP threads:              1
    Integrals threads:           1
    Memory [MiB]:              375
    Schwarz Cutoff:          1E-12
    Fitting Condition:       1E-10

   => Auxiliary Basis Set <=

  Basis Set: (CC-PVDZ AUX)
    Blend: CC-PVDZ-JKFIT + DEF2-UNIVERSAL-JKFIT
    Number of shells: 70
    Number of basis functions: 224
    Number of Cartesian functions: 267
    Spherical Harmonics?: true
    Max angular momentum: 4

  ==> DFT Potential <==

   => LibXC <=

    Version 6.2.2
    S. Lehtola, C. Steigemann, M. J.T. Oliveira, and M. A.L. Marques.,  SoftwareX 7, 1â€“5 (2018) (10.1016/j.softx.2017.11.002)

   => Composite Functional: B3LYP <=

    B3LYP Hyb-GGA Exchange-Correlation Functional

    P. J. Stephens, F. J. Devlin, C. F. Chabalowski, and M. J. Frisch.,  J. Phys. Chem. 98, 11623 (1994) (10.1021/j100096a001)

    Deriv               =              1
    GGA                 =           TRUE
    Meta                =          FALSE

    Exchange Hybrid     =           TRUE
    MP2 Hybrid          =          FALSE

   => Exchange Functionals <=

    0.0800   Slater exchange
    0.7200         Becke 88

   => Exact (HF) Exchange <=

    0.2000               HF

   => Correlation Functionals <=

    0.1900   Vosko, Wilk & Nusair (VWN5_RPA)
    0.8100   Lee, Yang & Parr

   => LibXC Density Thresholds  <==

    XC_HYB_GGA_XC_B3LYP:  1.00E-15

   => Molecular Quadrature <=

    Radial Scheme          =       TREUTLER
    Pruning Scheme         =           NONE
    Nuclear Scheme         =       TREUTLER

    Blocking Scheme        =         OCTREE
    BS radius alpha        =              1
    Pruning alpha          =              1
    Radial Points          =             75
    Spherical Points       =            302
    Total Points           =          43966
    Total Blocks           =            470
    Max Points             =            255
    Max Functions          =             36
    Weights Tolerance      =       1.00E-15

  -Total Gradient:
     Atom            X                  Y                   Z
    ------   -----------------  -----------------  -----------------
       1       -0.000000000000     0.000000000000    -0.000280021244
       2        0.000000000000     0.000000000000     0.000251949725

*** tstop() called on Joses-MacBook-Pro-2.local at Thu Jul 17 14:58:44 2025
Module time:
	user time   =       2.55 seconds =       0.04 minutes
	system time =       1.04 seconds =       0.02 minutes
	total time  =          1 seconds =       0.02 minutes
Total time:
	user time   =     613.24 seconds =      10.22 minutes
	system time =     272.83 seconds =       4.55 minutes
	total time  =         84 seconds =       1.40 minutes

    			-----------------------------------------

    			 OPTKING 3.0: for geometry optimizations

    			     By R.A. King, Bethel University

    			        with contributions from

    			    A.V. Copan, J. Cayton, A. Heide

    			-----------------------------------------

	                            ===> Fragment 1 <==

	 Z (Atomic Numbers)          Masses                          Geom
	      11.000000            22.989769          0.00000000  0.00000000  7.86572424
	      16.000000            31.972071          0.00000000  0.00000000 -5.65591089

	 - Coordinate -           - BOHR/RAD -       - ANG/DEG -
	 R(1,2)           =        13.521635           7.155341

	        --- Internal Coordinate Step in ANG or DEG, aJ/ANG or AJ/DEG ---
	-------------------------------------------------------------------------------
	           Coordinate      Previous         Force          Change          New
	           ----------      --------        ------          ------        ------
	               R(1,2)       7.15534        0.00219        0.00102       7.15636
	-------------------------------------------------------------------------------

	                                 ==> Convergence Check <==

	Measures of convergence in internal coordinates in au.

	Criteria marked as inactive (o), active & met (*), and active & unmet ( ).

	----------------------------------------------------------------------------------------------
	   Step    Total Energy     Delta E     Max Force     RMS Force      Max Disp      RMS Disp
	----------------------------------------------------------------------------------------------
	  Convergence Criteria     1.00e-06 *    3.00e-04 *             o    1.20e-03 *             o
	----------------------------------------------------------------------------------------------
	    71    -560.15348675   -5.36e-07 *    2.66e-04 *    2.66e-04 o    1.92e-03      1.92e-03 o  ~
	----------------------------------------------------------------------------------------------

Next Geometry in Ang
	Fragment 1 (Ang)

	   Na   0.0000000000   0.0000000000   4.1628700539
	    S   0.0000000000   0.0000000000  -2.9934871884

    Final optimized geometry and variables:
    Molecular point group: c2v
    Full point group: C_inf_v

    Geometry (in Angstrom), charge = 1, multiplicity = 1:

    NA           0.000000000000     0.000000000000     4.162362015118
    S            0.000000000000     0.000000000000    -2.992979149638

    Psi4 stopped on: Thursday, 17 July 2025 02:58PM
    Psi4 wall time for execution: 0:01:24.30

*** Psi4 exiting successfully. Buy a developer a beer!
