                               Psi4 1.9.1 release

  ==> Input File <==

--------------------------------------------------------------------------
molecule {
1 1
Si   0.00000        0.60000        0.00000
Cl   0.00000       -0.60000        0.00000
}

set {
basis              cc-pvdz
reference          uks
maxiter            500
geom_maxiter       500
DAMPING_PERCENTAGE 1
guess              SAP
}

optimize('b3lyp')
--------------------------------------------------------------------------

    Molecular point group: c2v
  Charge       = 1
  Multiplicity = 1
  Basis Set: CC-PVDZ
    Blend: CC-PVDZ
  Basis Set: (CC-PVDZ AUX)
    Blend: CC-PVDZ-JKFIT
  @DF-UKS Final Energy:  -748.25699885641154
    Total Energy =                       -748.2569988564115420
 Dipole X            :          0.0000000            0.0000000            0.0000000
 Dipole Y            :          0.0000000            0.0000000            0.0000000
 Dipole Z            :         -0.8189323            0.5027826           -0.3161497
 Magnitude           :                                                    0.3161497
    Molecular point group: c2v
  Basis Set: CC-PVDZ
    Blend: CC-PVDZ
  Basis Set: (CC-PVDZ AUX)
    Blend: CC-PVDZ-JKFIT
  Basis Set: CC-PVDZ
    Blend: CC-PVDZ
  Basis Set: (CC-PVDZ AUX)
    Blend: CC-PVDZ-JKFIT
  @DF-UKS Final Energy:  -748.29446805585599
    Total Energy =                       -748.2944680558559867
  Basis Set: CC-PVDZ
    Blend: CC-PVDZ
  Basis Set: (CC-PVDZ AUX)
    Blend: CC-PVDZ-JKFIT
  Basis Set: CC-PVDZ
    Blend: CC-PVDZ
  @DF-UKS Final Energy:  -748.36432877292555
    Total Energy =                       -748.3643287729255462
  @DF-UKS Final Energy:  -748.59431100896768
    Total Energy =                       -748.5943110089675656
  @DF-UKS Final Energy:  -749.10729092846759
    Total Energy =                       -749.1072909284674779
  @DF-UKS Final Energy:  -749.27276149684349
    Total Energy =                       -749.2727614968434864
  @DF-UKS Final Energy:  -749.36996068055123
    Total Energy =                       -749.3699606805513440
  @DF-UKS Final Energy:  -749.40407690366374
    Total Energy =                       -749.4040769036636220
  @DF-UKS Final Energy:  -749.41939665401571
    Total Energy =                       -749.4193966540157135
  @DF-UKS Final Energy:  -749.42507419684785
    Total Energy =                       -749.4250741968478451
  @DF-UKS Final Energy:  -749.42620054296151
    Total Energy =                       -749.4262005429615101
  @DF-UKS Final Energy:  -749.42644980938098
    Total Energy =                       -749.4264498093808697
  @DF-UKS Final Energy:  -749.42651660936872
    Total Energy =                       -749.4265166093687185
  Basis Set: (CC-PVDZ AUX)
    Blend: CC-PVDZ-JKFIT
  Basis Set: CC-PVDZ
    Blend: CC-PVDZ
  Basis Set: (CC-PVDZ AUX)
    Blend: CC-PVDZ-JKFIT
  @DF-UKS Final Energy:  -749.42652620691194
    Total Energy =                       -749.4265262069118307
  Basis Set: CC-PVDZ
    Blend: CC-PVDZ
  Basis Set: (CC-PVDZ AUX)
    Blend: CC-PVDZ-JKFIT
  Charge       = 1
  Multiplicity = 1
  Basis Set: CC-PVDZ
    Blend: CC-PVDZ
  Basis Set: (CC-PVDZ AUX)
    Blend: CC-PVDZ-JKFIT

    Orbital Energies [Eh]
    ---------------------

    Alpha Occupied:

       1A1  -101.821214     2A1   -66.522019     3A1    -9.741059
       4A1    -7.499057     1B1    -7.495779     1B2    -7.495779
       5A1    -5.655229     2B1    -4.014545     2B2    -4.014545
       6A1    -4.009807     7A1    -1.110969     8A1    -0.760623
       3B2    -0.611870     3B1    -0.611870     9A1    -0.590321

    Alpha Virtual:

       4B2    -0.365013     4B1    -0.365013    10A1    -0.225720
      11A1    -0.031387     5B1     0.039839     5B2     0.039839
      12A1     0.052480    13A1     0.075217     1A2     0.075217
       6B1     0.094116     6B2     0.094116    14A1     0.168623
       7B1     0.335621     7B2     0.335621    15A1     0.442092
       2A2     0.469332    16A1     0.469333    17A1     0.542541
       8B1     0.610263     8B2     0.610263    18A1     1.001200

    Beta Occupied:

       1A1  -101.821214     2A1   -66.522019     3A1    -9.741059
       4A1    -7.499057     1B1    -7.495779     1B2    -7.495779
       5A1    -5.655229     2B1    -4.014545     2B2    -4.014545
       6A1    -4.009807     7A1    -1.110969     8A1    -0.760623
       3B2    -0.611870     3B1    -0.611870     9A1    -0.590321

    Beta Virtual:

       4B2    -0.365013     4B1    -0.365013    10A1    -0.225720
      11A1    -0.031387     5B1     0.039839     5B2     0.039839
      12A1     0.052480    13A1     0.075217     1A2     0.075217
       6B1     0.094116     6B2     0.094116    14A1     0.168623
       7B1     0.335621     7B2     0.335621    15A1     0.442092
       2A2     0.469332    16A1     0.469333    17A1     0.542541
       8B1     0.610263     8B2     0.610263    18A1     1.001200

    Final Occupation by Irrep:
             A1    A2    B1    B2
    DOCC [     9,    0,    3,    3 ]
    SOCC [     0,    0,    0,    0 ]
    NA   [     9,    0,    3,    3 ]
    NB   [     9,    0,    3,    3 ]

  @DF-UKS Final Energy:  -749.42652676205455

   => Energetics <=

    Nuclear Repulsion Energy =             63.0740203380001887
    One-Electron Energy =               -1153.0994084879348520
    Two-Electron Energy =                 379.9447121228479887
    DFT Exchange-Correlation Energy =     -39.3458507349677760
    Empirical Dispersion Energy =           0.0000000000000000
    VV10 Nonlocal Energy =                  0.0000000000000000
    Total Energy =                       -749.4265267620546638

  UHF NO Occupations:
  HONO-2 :    3 B1 2.0000000
  HONO-1 :    9 A1 2.0000000
  HONO-0 :    3 B2 2.0000000
  LUNO+0 :   10 A1 0.0000000
  LUNO+1 :   11 A1 0.0000000
  LUNO+2 :    4 B2 0.0000000
  LUNO+3 :   12 A1 0.0000000

Computation Completed

Properties will be evaluated at   0.000000,   0.000000,   0.000000 [a0]

Properties computed using the SCF density matrix

 Multipole Moments:

 ------------------------------------------------------------------------------------
     Multipole            Electronic (a.u.)      Nuclear  (a.u.)        Total (a.u.)
 ------------------------------------------------------------------------------------

 L = 1.  Multiply by 2.5417464519 to convert [e a0] to [Debye]
 Dipole X            :          0.0000000            0.0000000            0.0000000
 Dipole Y            :          0.0000000            0.0000000            0.0000000
 Dipole Z            :          0.6235852            0.8366168            1.4602020
 Magnitude           :                                                    1.4602020

 ------------------------------------------------------------------------------------

*** tstop() called on Joses-MacBook-Pro-2.local at Thu Jul 17 15:42:17 2025
Module time:
	user time   =       7.17 seconds =       0.12 minutes
	system time =       2.39 seconds =       0.04 minutes
	total time  =          1 seconds =       0.02 minutes
Total time:
	user time   =     168.57 seconds =       2.81 minutes
	system time =      45.61 seconds =       0.76 minutes
	total time  =         21 seconds =       0.35 minutes

*** tstart() called on Joses-MacBook-Pro-2.local
*** at Thu Jul 17 15:42:17 2025

         ------------------------------------------------------------
                                   SCF GRAD
                          Rob Parrish, Justin Turney,
                       Andy Simmonett, and Alex Sokolov
         ------------------------------------------------------------

  ==> Geometry <==

    Molecular point group: c2v
    Full point group: C_inf_v

    Geometry (in Angstrom), charge = 1, multiplicity = 1:

       Center              X                  Y                   Z               Mass
    ------------   -----------------  -----------------  -----------------  -----------------
         SI           0.000000000000     0.000000000000     1.109282969303    27.976926534650
         CL           0.000000000000     0.000000000000    -0.887484883206    34.968852682000

  Nuclear repulsion =   63.074020338000189

  ==> Basis Set <==

  Basis Set: CC-PVDZ
    Blend: CC-PVDZ
    Number of shells: 16
    Number of basis functions: 36
    Number of Cartesian functions: 38
    Spherical Harmonics?: true
    Max angular momentum: 2

  ==> DFJKGrad: Density-Fitted SCF Gradients <==

    Gradient:                    1
    J tasked:                  Yes
    K tasked:                  Yes
    wK tasked:                  No
    OpenMP threads:              1
    Integrals threads:           1
    Memory [MiB]:              375
    Schwarz Cutoff:          1E-12
    Fitting Condition:       1E-10

   => Auxiliary Basis Set <=

  Basis Set: (CC-PVDZ AUX)
    Blend: CC-PVDZ-JKFIT
    Number of shells: 72
    Number of basis functions: 224
    Number of Cartesian functions: 260
    Spherical Harmonics?: true
    Max angular momentum: 3

  ==> DFT Potential <==

   => LibXC <=

    Version 6.2.2
    S. Lehtola, C. Steigemann, M. J.T. Oliveira, and M. A.L. Marques.,  SoftwareX 7, 1â€“5 (2018) (10.1016/j.softx.2017.11.002)

   => Composite Functional: B3LYP <=

    B3LYP Hyb-GGA Exchange-Correlation Functional

    P. J. Stephens, F. J. Devlin, C. F. Chabalowski, and M. J. Frisch.,  J. Phys. Chem. 98, 11623 (1994) (10.1021/j100096a001)

    Deriv               =              1
    GGA                 =           TRUE
    Meta                =          FALSE

    Exchange Hybrid     =           TRUE
    MP2 Hybrid          =          FALSE

   => Exchange Functionals <=

    0.0800   Slater exchange
    0.7200         Becke 88

   => Exact (HF) Exchange <=

    0.2000               HF

   => Correlation Functionals <=

    0.1900   Vosko, Wilk & Nusair (VWN5_RPA)
    0.8100   Lee, Yang & Parr

   => LibXC Density Thresholds  <==

    XC_HYB_GGA_XC_B3LYP:  1.00E-15

   => Molecular Quadrature <=

    Radial Scheme          =       TREUTLER
    Pruning Scheme         =           NONE
    Nuclear Scheme         =       TREUTLER

    Blocking Scheme        =         OCTREE
    BS radius alpha        =              1
    Pruning alpha          =              1
    Radial Points          =             75
    Spherical Points       =            302
    Total Points           =          41590
    Total Blocks           =            384
    Max Points             =            255
    Max Functions          =             36
    Weights Tolerance      =       1.00E-15

  -Total Gradient:
     Atom            X                  Y                   Z
    ------   -----------------  -----------------  -----------------
       1       -0.000000000000     0.000000000000    -0.000049198072
       2       -0.000000000000     0.000000000000     0.000075913559

*** tstop() called on Joses-MacBook-Pro-2.local at Thu Jul 17 15:42:17 2025
Module time:
	user time   =       2.94 seconds =       0.05 minutes
	system time =       0.73 seconds =       0.01 minutes
	total time  =          0 seconds =       0.00 minutes
Total time:
	user time   =     171.51 seconds =       2.86 minutes
	system time =      46.35 seconds =       0.77 minutes
	total time  =         21 seconds =       0.35 minutes

    			-----------------------------------------

    			 OPTKING 3.0: for geometry optimizations

    			     By R.A. King, Bethel University

    			        with contributions from

    			    A.V. Copan, J. Cayton, A. Heide

    			-----------------------------------------

	                            ===> Fragment 1 <==

	 Z (Atomic Numbers)          Masses                          Geom
	      14.000000            27.976927          0.00000000  0.00000000  2.09624101
	      17.000000            34.968853          0.00000000  0.00000000 -1.67710337

	 - Coordinate -           - BOHR/RAD -       - ANG/DEG -
	 R(1,2)           =         3.773344           1.996768

	        --- Internal Coordinate Step in ANG or DEG, aJ/ANG or AJ/DEG ---
	-------------------------------------------------------------------------------
	           Coordinate      Previous         Force          Change          New
	           ----------      --------        ------          ------        ------
	               R(1,2)       1.99677        0.00052        0.00013       1.99690
	-------------------------------------------------------------------------------

	                                 ==> Convergence Check <==

	Measures of convergence in internal coordinates in au.

	Criteria marked as inactive (o), active & met (*), and active & unmet ( ).

	----------------------------------------------------------------------------------------------
	   Step    Total Energy     Delta E     Max Force     RMS Force      Max Disp      RMS Disp
	----------------------------------------------------------------------------------------------
	  Convergence Criteria     1.00e-06 *    3.00e-04 *             o    1.20e-03 *             o
	----------------------------------------------------------------------------------------------
	    15    -749.42652676   -5.55e-07 *    6.26e-05 *    6.26e-05 o    2.46e-04 *    2.46e-04 o  ~
	----------------------------------------------------------------------------------------------

Next Geometry in Ang
	Fragment 1 (Ang)

	   Si   0.0000000000   0.0000000000   1.1093479441
	   Cl   0.0000000000   0.0000000000  -0.8875498580

    Final optimized geometry and variables:
    Molecular point group: c2v
    Full point group: C_inf_v

    Geometry (in Angstrom), charge = 1, multiplicity = 1:

    SI           0.000000000000     0.000000000000     1.109282969303
    CL           0.000000000000     0.000000000000    -0.887484883206

    Psi4 stopped on: Thursday, 17 July 2025 03:42PM
    Psi4 wall time for execution: 0:00:21.22

*** Psi4 exiting successfully. Buy a developer a beer!
