                               Psi4 1.9.1 release

  ==> Input File <==

--------------------------------------------------------------------------
molecule {
1 1
Be   0.00000        0.60000        0.00000
P   0.00000       -0.60000        0.00000
}

set {
basis              cc-pvdz
reference          uks
maxiter            500
geom_maxiter       500
DAMPING_PERCENTAGE 1
guess              SAP
}

optimize('b3lyp')
--------------------------------------------------------------------------

    Molecular point group: c2v
  Charge       = 1
  Multiplicity = 1
  Basis Set: CC-PVDZ
    Blend: CC-PVDZ
  Basis Set: (CC-PVDZ AUX)
    Blend: CC-PVDZ-JKFIT + DEF2-UNIVERSAL-JKFIT
  @DF-UKS Final Energy:  -355.17870733957091
    Total Energy =                       -355.1787073395709058
 Dipole X            :          0.0000000            0.0000000            0.0000000
 Dipole Y            :          0.0000000            0.0000000            0.0000000
 Dipole Z            :          0.9964477           -0.6401447            0.3563030
 Magnitude           :                                                    0.3563030
    Molecular point group: c2v
  Basis Set: CC-PVDZ
    Blend: CC-PVDZ
  Basis Set: (CC-PVDZ AUX)
    Blend: CC-PVDZ-JKFIT + DEF2-UNIVERSAL-JKFIT
  Basis Set: CC-PVDZ
    Blend: CC-PVDZ
  Basis Set: (CC-PVDZ AUX)
    Blend: CC-PVDZ-JKFIT + DEF2-UNIVERSAL-JKFIT
  @DF-UKS Final Energy:  -355.32255557129758
    Total Energy =                       -355.3225555712975847
  Basis Set: CC-PVDZ
    Blend: CC-PVDZ
  Basis Set: (CC-PVDZ AUX)
    Blend: CC-PVDZ-JKFIT + DEF2-UNIVERSAL-JKFIT
  Basis Set: CC-PVDZ
    Blend: CC-PVDZ
  @DF-UKS Final Energy:  -355.43377467264418
    Total Energy =                       -355.4337746726441765
  @DF-UKS Final Energy:  -355.57722386559959
    Total Energy =                       -355.5772238655995920
  @DF-UKS Final Energy:  -355.65262407805233
    Total Energy =                       -355.6526240780523267
  @DF-UKS Final Energy:  -355.66352499898051
    Total Energy =                       -355.6635249989805061
  @DF-UKS Final Energy:  -355.66756708642322
    Total Energy =                       -355.6675670864232188
  @DF-UKS Final Energy:  -355.66803610504445
    Total Energy =                       -355.6680361050444503
  @DF-UKS Final Energy:  -355.66809756730396
    Total Energy =                       -355.6680975673039029
  Basis Set: (CC-PVDZ AUX)
    Blend: CC-PVDZ-JKFIT + DEF2-UNIVERSAL-JKFIT
  Basis Set: CC-PVDZ
    Blend: CC-PVDZ
  Basis Set: (CC-PVDZ AUX)
    Blend: CC-PVDZ-JKFIT + DEF2-UNIVERSAL-JKFIT
  @DF-UKS Final Energy:  -355.66810614954022
    Total Energy =                       -355.6681061495402218
  Basis Set: CC-PVDZ
    Blend: CC-PVDZ
  Basis Set: (CC-PVDZ AUX)
    Blend: CC-PVDZ-JKFIT + DEF2-UNIVERSAL-JKFIT
  Charge       = 1
  Multiplicity = 1
  Basis Set: CC-PVDZ
    Blend: CC-PVDZ
  Basis Set: (CC-PVDZ AUX)
    Blend: CC-PVDZ-JKFIT + DEF2-UNIVERSAL-JKFIT

    Orbital Energies [Eh]
    ---------------------

    Alpha Occupied:

       1A1   -77.372963     2A1    -6.835691     1B2    -5.006593
       3A1    -4.993452     1B1    -4.988445     4A1    -4.406992
       5A1    -0.810103     6A1    -0.530473     2B1    -0.451643

    Alpha Virtual:

       2B2    -0.414108     7A1    -0.367996     3B2    -0.259011
       3B1    -0.257058     8A1    -0.118720     9A1    -0.038003
       4B2    -0.025920     4B1    -0.022984    10A1    -0.018219
       5B2     0.145862     5B1     0.157796    11A1     0.168077
       1A2     0.172534    12A1     0.176558     6B2     0.241362
       6B1     0.260091     2A2     0.308350    13A1     0.310674
      14A1     0.329660    15A1     0.513531     7B2     0.518999
       7B1     0.534349    16A1     0.745412

    Beta Occupied:

       1A1   -77.372963     2A1    -6.835691     1B2    -5.006593
       3A1    -4.993452     1B1    -4.988445     4A1    -4.406992
       5A1    -0.810103     6A1    -0.530473     2B1    -0.451643

    Beta Virtual:

       2B2    -0.414108     7A1    -0.367996     3B2    -0.259011
       3B1    -0.257058     8A1    -0.118720     9A1    -0.038003
       4B2    -0.025920     4B1    -0.022984    10A1    -0.018219
       5B2     0.145862     5B1     0.157796    11A1     0.168077
       1A2     0.172534    12A1     0.176558     6B2     0.241362
       6B1     0.260091     2A2     0.308350    13A1     0.310674
      14A1     0.329660    15A1     0.513531     7B2     0.518999
       7B1     0.534349    16A1     0.745412

    Final Occupation by Irrep:
             A1    A2    B1    B2
    DOCC [     6,    0,    2,    1 ]
    SOCC [     0,    0,    0,    0 ]
    NA   [     6,    0,    2,    1 ]
    NB   [     6,    0,    2,    1 ]

  @DF-UKS Final Energy:  -355.66810750721334

   => Energetics <=

    Nuclear Repulsion Energy =             15.7725233464674979
    One-Electron Energy =                -517.2777766656206495
    Two-Electron Energy =                 166.6031144337788135
    DFT Exchange-Correlation Energy =     -20.7659686218390469
    Empirical Dispersion Energy =           0.0000000000000000
    VV10 Nonlocal Energy =                  0.0000000000000000
    Total Energy =                       -355.6681075072133922

  UHF NO Occupations:
  HONO-2 :    5 A1 2.0000000
  HONO-1 :    2 B1 2.0000000
  HONO-0 :    6 A1 2.0000000
  LUNO+0 :    7 A1 0.0000000
  LUNO+1 :    2 B2 0.0000000
  LUNO+2 :    8 A1 0.0000000
  LUNO+3 :    3 B1 0.0000000

Computation Completed

Properties will be evaluated at   0.000000,   0.000000,   0.000000 [a0]

Properties computed using the SCF density matrix

 Multipole Moments:

 ------------------------------------------------------------------------------------
     Multipole            Electronic (a.u.)      Nuclear  (a.u.)        Total (a.u.)
 ------------------------------------------------------------------------------------

 L = 1.  Multiply by 2.5417464519 to convert [e a0] to [Debye]
 Dipole X            :          0.0000000            0.0000000            0.0000000
 Dipole Y            :          0.0000000            0.0000000            0.0000000
 Dipole Z            :          3.5047460           -1.0738610            2.4308849
 Magnitude           :                                                    2.4308849

 ------------------------------------------------------------------------------------

*** tstop() called on Joses-MacBook-Pro-2.local at Thu Jul 17 13:23:37 2025
Module time:
	user time   =       1.92 seconds =       0.03 minutes
	system time =       4.56 seconds =       0.08 minutes
	total time  =          1 seconds =       0.02 minutes
Total time:
	user time   =      38.85 seconds =       0.65 minutes
	system time =      71.78 seconds =       1.20 minutes
	total time  =         11 seconds =       0.18 minutes

*** tstart() called on Joses-MacBook-Pro-2.local
*** at Thu Jul 17 13:23:37 2025

         ------------------------------------------------------------
                                   SCF GRAD
                          Rob Parrish, Justin Turney,
                       Andy Simmonett, and Alex Sokolov
         ------------------------------------------------------------

  ==> Geometry <==

    Molecular point group: c2v
    Full point group: C_inf_v

    Geometry (in Angstrom), charge = 1, multiplicity = 1:

       Center              X                  Y                   Z               Mass
    ------------   -----------------  -----------------  -----------------  -----------------
         BE           0.000000000000     0.000000000000     1.559329144744     9.012183065000
         P            0.000000000000     0.000000000000    -0.453705291328    30.973761998420

  Nuclear repulsion =   15.772523346467498

  ==> Basis Set <==

  Basis Set: CC-PVDZ
    Blend: CC-PVDZ
    Number of shells: 14
    Number of basis functions: 32
    Number of Cartesian functions: 34
    Spherical Harmonics?: true
    Max angular momentum: 2

  ==> DFJKGrad: Density-Fitted SCF Gradients <==

    Gradient:                    1
    J tasked:                  Yes
    K tasked:                  Yes
    wK tasked:                  No
    OpenMP threads:              1
    Integrals threads:           1
    Memory [MiB]:              375
    Schwarz Cutoff:          1E-12
    Fitting Condition:       1E-10

   => Auxiliary Basis Set <=

  Basis Set: (CC-PVDZ AUX)
    Blend: CC-PVDZ-JKFIT + DEF2-UNIVERSAL-JKFIT
    Number of shells: 53
    Number of basis functions: 163
    Number of Cartesian functions: 190
    Spherical Harmonics?: true
    Max angular momentum: 3

  ==> DFT Potential <==

   => LibXC <=

    Version 6.2.2
    S. Lehtola, C. Steigemann, M. J.T. Oliveira, and M. A.L. Marques.,  SoftwareX 7, 1â€“5 (2018) (10.1016/j.softx.2017.11.002)

   => Composite Functional: B3LYP <=

    B3LYP Hyb-GGA Exchange-Correlation Functional

    P. J. Stephens, F. J. Devlin, C. F. Chabalowski, and M. J. Frisch.,  J. Phys. Chem. 98, 11623 (1994) (10.1021/j100096a001)

    Deriv               =              1
    GGA                 =           TRUE
    Meta                =          FALSE

    Exchange Hybrid     =           TRUE
    MP2 Hybrid          =          FALSE

   => Exchange Functionals <=

    0.0800   Slater exchange
    0.7200         Becke 88

   => Exact (HF) Exchange <=

    0.2000               HF

   => Correlation Functionals <=

    0.1900   Vosko, Wilk & Nusair (VWN5_RPA)
    0.8100   Lee, Yang & Parr

   => LibXC Density Thresholds  <==

    XC_HYB_GGA_XC_B3LYP:  1.00E-15

   => Molecular Quadrature <=

    Radial Scheme          =       TREUTLER
    Pruning Scheme         =           NONE
    Nuclear Scheme         =       TREUTLER

    Blocking Scheme        =         OCTREE
    BS radius alpha        =              1
    Pruning alpha          =              1
    Radial Points          =             75
    Spherical Points       =            302
    Total Points           =          42761
    Total Blocks           =            399
    Max Points             =            255
    Max Functions          =             32
    Weights Tolerance      =       1.00E-15

  -Total Gradient:
     Atom            X                  Y                   Z
    ------   -----------------  -----------------  -----------------
       1       -0.000000000000     0.000000000000    -0.000148057216
       2        0.000000000000    -0.000000000000     0.000147325535

*** tstop() called on Joses-MacBook-Pro-2.local at Thu Jul 17 13:23:37 2025
Module time:
	user time   =       0.63 seconds =       0.01 minutes
	system time =       1.95 seconds =       0.03 minutes
	total time  =          0 seconds =       0.00 minutes
Total time:
	user time   =      39.48 seconds =       0.66 minutes
	system time =      73.73 seconds =       1.23 minutes
	total time  =         11 seconds =       0.18 minutes

    			-----------------------------------------

    			 OPTKING 3.0: for geometry optimizations

    			     By R.A. King, Bethel University

    			        with contributions from

    			    A.V. Copan, J. Cayton, A. Heide

    			-----------------------------------------

	                            ===> Fragment 1 <==

	 Z (Atomic Numbers)          Masses                          Geom
	       4.000000             9.012183          0.00000000  0.00000000  2.94670502
	      15.000000            30.973762          0.00000000  0.00000000 -0.85737874

	 - Coordinate -           - BOHR/RAD -       - ANG/DEG -
	 R(1,2)           =         3.804084           2.013034

	        --- Internal Coordinate Step in ANG or DEG, aJ/ANG or AJ/DEG ---
	-------------------------------------------------------------------------------
	           Coordinate      Previous         Force          Change          New
	           ----------      --------        ------          ------        ------
	               R(1,2)       2.01303        0.00122        0.00054       2.01358
	-------------------------------------------------------------------------------

	                                 ==> Convergence Check <==

	Measures of convergence in internal coordinates in au.

	Criteria marked as inactive (o), active & met (*), and active & unmet ( ).

	----------------------------------------------------------------------------------------------
	   Step    Total Energy     Delta E     Max Force     RMS Force      Max Disp      RMS Disp
	----------------------------------------------------------------------------------------------
	  Convergence Criteria     1.00e-06 *    3.00e-04 *             o    1.20e-03 *             o
	----------------------------------------------------------------------------------------------
	    11    -355.66810751   -1.36e-06      1.48e-04 *    1.48e-04 o    1.03e-03 *    1.03e-03 o  ~
	----------------------------------------------------------------------------------------------

Next Geometry in Ang
	Fragment 1 (Ang)

	   Be   0.0000000000   0.0000000000   1.5596013686
	    P   0.0000000000   0.0000000000  -0.4539775152

    Final optimized geometry and variables:
    Molecular point group: c2v
    Full point group: C_inf_v

    Geometry (in Angstrom), charge = 1, multiplicity = 1:

    BE           0.000000000000     0.000000000000     1.559329144744
    P            0.000000000000     0.000000000000    -0.453705291328

    Psi4 stopped on: Thursday, 17 July 2025 01:23PM
    Psi4 wall time for execution: 0:00:11.47

*** Psi4 exiting successfully. Buy a developer a beer!
