                               Psi4 1.9.1 release

  ==> Input File <==

--------------------------------------------------------------------------
molecule {
1 1
Ne   0.00000        0.60000        0.00000
Na   0.00000       -0.60000        0.00000
}

set {
basis              cc-pvdz
reference          uks
maxiter            500
geom_maxiter       500
DAMPING_PERCENTAGE 1
guess              SAP
}

optimize('b3lyp')
--------------------------------------------------------------------------

    Molecular point group: c2v
  Charge       = 1
  Multiplicity = 1
  Basis Set: CC-PVDZ
    Blend: CC-PVDZ
  Basis Set: (CC-PVDZ AUX)
    Blend: CC-PVDZ-JKFIT + DEF2-UNIVERSAL-JKFIT
  @DF-UKS Final Energy:  -290.51295448152132
    Total Energy =                       -290.5129544815213194
 Dipole X            :          0.0000000            0.0000000            0.0000000
 Dipole Y            :          0.0000000            0.0000000            0.0000000
 Dipole Z            :         -1.5683362            0.5265734           -1.0417627
 Magnitude           :                                                    1.0417627
    Molecular point group: c2v
  Basis Set: CC-PVDZ
    Blend: CC-PVDZ
  Basis Set: (CC-PVDZ AUX)
    Blend: CC-PVDZ-JKFIT + DEF2-UNIVERSAL-JKFIT
  Basis Set: CC-PVDZ
    Blend: CC-PVDZ
  Basis Set: (CC-PVDZ AUX)
    Blend: CC-PVDZ-JKFIT + DEF2-UNIVERSAL-JKFIT
  @DF-UKS Final Energy:  -290.78707763845767
    Total Energy =                       -290.7870776384576743
  Basis Set: CC-PVDZ
    Blend: CC-PVDZ
  Basis Set: (CC-PVDZ AUX)
    Blend: CC-PVDZ-JKFIT + DEF2-UNIVERSAL-JKFIT
  Basis Set: CC-PVDZ
    Blend: CC-PVDZ
  @DF-UKS Final Energy:  -290.89600980002393
    Total Energy =                       -290.8960098000239327
  @DF-UKS Final Energy:  -290.95619170340524
    Total Energy =                       -290.9561917034052385
  @DF-UKS Final Energy:  -290.97960852459261
    Total Energy =                       -290.9796085245926065
  @DF-UKS Final Energy:  -290.99475047836313
    Total Energy =                       -290.9947504783630734
  @DF-UKS Final Energy:  -291.00390422343901
    Total Energy =                       -291.0039042234390081
  @DF-UKS Final Energy:  -291.00864308336219
    Total Energy =                       -291.0086430833621307
  @DF-UKS Final Energy:  -291.01116053485748
    Total Energy =                       -291.0111605348574813
  @DF-UKS Final Energy:  -291.01243425647402
    Total Energy =                       -291.0124342564740232
  @DF-UKS Final Energy:  -291.01302866692060
    Total Energy =                       -291.0130286669206043
  @DF-UKS Final Energy:  -291.01320506950799
    Total Energy =                       -291.0132050695079897
  @DF-UKS Final Energy:  -291.01327459839581
    Total Energy =                       -291.0132745983958102
  @DF-UKS Final Energy:  -291.01329132895967
    Total Energy =                       -291.0132913289596672
  Basis Set: (CC-PVDZ AUX)
    Blend: CC-PVDZ-JKFIT + DEF2-UNIVERSAL-JKFIT
  Basis Set: CC-PVDZ
    Blend: CC-PVDZ
  Basis Set: (CC-PVDZ AUX)
    Blend: CC-PVDZ-JKFIT + DEF2-UNIVERSAL-JKFIT
  @DF-UKS Final Energy:  -291.01329592774431
    Total Energy =                       -291.0132959277443092
  Basis Set: CC-PVDZ
    Blend: CC-PVDZ
  Basis Set: (CC-PVDZ AUX)
    Blend: CC-PVDZ-JKFIT + DEF2-UNIVERSAL-JKFIT
  Charge       = 1
  Multiplicity = 1
  Basis Set: CC-PVDZ
    Blend: CC-PVDZ
  Basis Set: (CC-PVDZ AUX)
    Blend: CC-PVDZ-JKFIT + DEF2-UNIVERSAL-JKFIT

    Orbital Energies [Eh]
    ---------------------

    Alpha Occupied:

       1A1   -38.766915     2A1   -31.211388     3A1    -2.504921
       4A1    -1.671686     1B1    -1.436119     1B2    -1.436119
       5A1    -1.436043     6A1    -0.784283     2B1    -0.776914
       2B2    -0.776914

    Alpha Virtual:

       7A1    -0.251702     3B2    -0.151618     3B1    -0.151618
       8A1    -0.145568     9A1    -0.067441     4B2    -0.046757
       4B1    -0.046757    10A1    -0.045574     5B2     0.002868
       5B1     0.002868     1A2     0.008134    11A1     0.008145
      12A1     0.041426     6B2     1.205819     6B1     1.205819
      13A1     1.209197    14A1     1.956363    15A1     4.483314
       7B2     4.486843     7B1     4.486843    16A1     4.488474
       2A2     4.488580

    Beta Occupied:

       1A1   -38.766915     2A1   -31.211388     3A1    -2.504921
       4A1    -1.671686     1B1    -1.436119     1B2    -1.436119
       5A1    -1.436043     6A1    -0.784283     2B1    -0.776914
       2B2    -0.776914

    Beta Virtual:

       7A1    -0.251702     3B2    -0.151618     3B1    -0.151618
       8A1    -0.145568     9A1    -0.067441     4B2    -0.046757
       4B1    -0.046757    10A1    -0.045574     5B2     0.002868
       5B1     0.002868     1A2     0.008134    11A1     0.008145
      12A1     0.041426     6B2     1.205819     6B1     1.205819
      13A1     1.209197    14A1     1.956363    15A1     4.483314
       7B2     4.486843     7B1     4.486843    16A1     4.488474
       2A2     4.488580

    Final Occupation by Irrep:
             A1    A2    B1    B2
    DOCC [     6,    0,    2,    2 ]
    SOCC [     0,    0,    0,    0 ]
    NA   [     6,    0,    2,    2 ]
    NB   [     6,    0,    2,    2 ]

  @DF-UKS Final Energy:  -291.01329609061310

   => Energetics <=

    Nuclear Repulsion Energy =             24.5472172553985857
    One-Electron Energy =                -454.0560770749356152
    Two-Electron Energy =                 160.1140551424513205
    DFT Exchange-Correlation Energy =     -21.6184914135273836
    Empirical Dispersion Energy =           0.0000000000000000
    VV10 Nonlocal Energy =                  0.0000000000000000
    Total Energy =                       -291.0132960906130961

  UHF NO Occupations:
  HONO-2 :    2 B1 2.0000000
  HONO-1 :    5 A1 2.0000000
  HONO-0 :    6 A1 2.0000000
  LUNO+0 :    3 B2 0.0000000
  LUNO+1 :    7 A1 0.0000000
  LUNO+2 :    4 B2 0.0000000
  LUNO+3 :    3 B1 0.0000000

Computation Completed

Properties will be evaluated at   0.000000,   0.000000,   0.000000 [a0]

Properties computed using the SCF density matrix

 Multipole Moments:

 ------------------------------------------------------------------------------------
     Multipole            Electronic (a.u.)      Nuclear  (a.u.)        Total (a.u.)
 ------------------------------------------------------------------------------------

 L = 1.  Multiply by 2.5417464519 to convert [e a0] to [Debye]
 Dipole X            :          0.0000000            0.0000000            0.0000000
 Dipole Y            :          0.0000000            0.0000000            0.0000000
 Dipole Z            :         -2.9970009            1.0405651           -1.9564358
 Magnitude           :                                                    1.9564358

 ------------------------------------------------------------------------------------

*** tstop() called on Joses-MacBook-Pro-2.local at Thu Jul 17 14:37:34 2025
Module time:
	user time   =       2.39 seconds =       0.04 minutes
	system time =       2.92 seconds =       0.05 minutes
	total time  =          0 seconds =       0.00 minutes
Total time:
	user time   =      74.15 seconds =       1.24 minutes
	system time =      79.60 seconds =       1.33 minutes
	total time  =         16 seconds =       0.27 minutes

*** tstart() called on Joses-MacBook-Pro-2.local
*** at Thu Jul 17 14:37:34 2025

         ------------------------------------------------------------
                                   SCF GRAD
                          Rob Parrish, Justin Turney,
                       Andy Simmonett, and Alex Sokolov
         ------------------------------------------------------------

  ==> Geometry <==

    Molecular point group: c2v
    Full point group: C_inf_v

    Geometry (in Angstrom), charge = 1, multiplicity = 1:

       Center              X                  Y                   Z               Mass
    ------------   -----------------  -----------------  -----------------  -----------------
         NE           0.000000000000     0.000000000000     1.268345078918    19.992440176200
         NA           0.000000000000     0.000000000000    -1.102982496345    22.989769282000

  Nuclear repulsion =   24.547217255398586

  ==> Basis Set <==

  Basis Set: CC-PVDZ
    Blend: CC-PVDZ
    Number of shells: 14
    Number of basis functions: 32
    Number of Cartesian functions: 34
    Spherical Harmonics?: true
    Max angular momentum: 2

  ==> DFJKGrad: Density-Fitted SCF Gradients <==

    Gradient:                    1
    J tasked:                  Yes
    K tasked:                  Yes
    wK tasked:                  No
    OpenMP threads:              1
    Integrals threads:           1
    Memory [MiB]:              375
    Schwarz Cutoff:          1E-12
    Fitting Condition:       1E-10

   => Auxiliary Basis Set <=

  Basis Set: (CC-PVDZ AUX)
    Blend: CC-PVDZ-JKFIT + DEF2-UNIVERSAL-JKFIT
    Number of shells: 58
    Number of basis functions: 182
    Number of Cartesian functions: 218
    Spherical Harmonics?: true
    Max angular momentum: 4

  ==> DFT Potential <==

   => LibXC <=

    Version 6.2.2
    S. Lehtola, C. Steigemann, M. J.T. Oliveira, and M. A.L. Marques.,  SoftwareX 7, 1â€“5 (2018) (10.1016/j.softx.2017.11.002)

   => Composite Functional: B3LYP <=

    B3LYP Hyb-GGA Exchange-Correlation Functional

    P. J. Stephens, F. J. Devlin, C. F. Chabalowski, and M. J. Frisch.,  J. Phys. Chem. 98, 11623 (1994) (10.1021/j100096a001)

    Deriv               =              1
    GGA                 =           TRUE
    Meta                =          FALSE

    Exchange Hybrid     =           TRUE
    MP2 Hybrid          =          FALSE

   => Exchange Functionals <=

    0.0800   Slater exchange
    0.7200         Becke 88

   => Exact (HF) Exchange <=

    0.2000               HF

   => Correlation Functionals <=

    0.1900   Vosko, Wilk & Nusair (VWN5_RPA)
    0.8100   Lee, Yang & Parr

   => LibXC Density Thresholds  <==

    XC_HYB_GGA_XC_B3LYP:  1.00E-15

   => Molecular Quadrature <=

    Radial Scheme          =       TREUTLER
    Pruning Scheme         =           NONE
    Nuclear Scheme         =       TREUTLER

    Blocking Scheme        =         OCTREE
    BS radius alpha        =              1
    Pruning alpha          =              1
    Radial Points          =             75
    Spherical Points       =            302
    Total Points           =          43810
    Total Blocks           =            416
    Max Points             =            253
    Max Functions          =             32
    Weights Tolerance      =       1.00E-15

  -Total Gradient:
     Atom            X                  Y                   Z
    ------   -----------------  -----------------  -----------------
       1        0.000000000000     0.000000000000    -0.000022774629
       2        0.000000000000     0.000000000000     0.000067306059

*** tstop() called on Joses-MacBook-Pro-2.local at Thu Jul 17 14:37:35 2025
Module time:
	user time   =       0.96 seconds =       0.02 minutes
	system time =       1.62 seconds =       0.03 minutes
	total time  =          1 seconds =       0.02 minutes
Total time:
	user time   =      75.11 seconds =       1.25 minutes
	system time =      81.24 seconds =       1.35 minutes
	total time  =         17 seconds =       0.28 minutes

    			-----------------------------------------

    			 OPTKING 3.0: for geometry optimizations

    			     By R.A. King, Bethel University

    			        with contributions from

    			    A.V. Copan, J. Cayton, A. Heide

    			-----------------------------------------

	                            ===> Fragment 1 <==

	 Z (Atomic Numbers)          Masses                          Geom
	      10.000000            19.992440          0.00000000  0.00000000  2.39682483
	      11.000000            22.989769          0.00000000  0.00000000 -2.08433484

	 - Coordinate -           - BOHR/RAD -       - ANG/DEG -
	 R(1,2)           =         4.481160           2.371328

	        --- Internal Coordinate Step in ANG or DEG, aJ/ANG or AJ/DEG ---
	-------------------------------------------------------------------------------
	           Coordinate      Previous         Force          Change          New
	           ----------      --------        ------          ------        ------
	               R(1,2)       2.37133        0.00037        0.00217       2.37350
	-------------------------------------------------------------------------------

	                                 ==> Convergence Check <==

	Measures of convergence in internal coordinates in au.

	Criteria marked as inactive (o), active & met (*), and active & unmet ( ).

	----------------------------------------------------------------------------------------------
	   Step    Total Energy     Delta E     Max Force     RMS Force      Max Disp      RMS Disp
	----------------------------------------------------------------------------------------------
	  Convergence Criteria     1.00e-06 *    3.00e-04 *             o    1.20e-03 *             o
	----------------------------------------------------------------------------------------------
	    16    -291.01329609   -1.63e-07 *    4.50e-05 *    4.50e-05 o    4.10e-03      4.10e-03 o  ~
	----------------------------------------------------------------------------------------------

Next Geometry in Ang
	Fragment 1 (Ang)

	   Ne   0.0000000000   0.0000000000   1.2694288845
	   Na   0.0000000000   0.0000000000  -1.1040663019

    Final optimized geometry and variables:
    Molecular point group: c2v
    Full point group: C_inf_v

    Geometry (in Angstrom), charge = 1, multiplicity = 1:

    NE           0.000000000000     0.000000000000     1.268345078918
    NA           0.000000000000     0.000000000000    -1.102982496345

    Psi4 stopped on: Thursday, 17 July 2025 02:37PM
    Psi4 wall time for execution: 0:00:17.42

*** Psi4 exiting successfully. Buy a developer a beer!
