                               Psi4 1.9.1 release

  ==> Input File <==

--------------------------------------------------------------------------
molecule {
1 1
Si   0.00000        0.60000        0.00000
P   0.00000       -0.60000        0.00000
}

set {
basis              cc-pvdz
reference          uks
maxiter            500
geom_maxiter       500
DAMPING_PERCENTAGE 1
guess              SAP
}

optimize('b3lyp')
--------------------------------------------------------------------------

    Molecular point group: c2v
  Charge       = 1
  Multiplicity = 1
  Basis Set: CC-PVDZ
    Blend: CC-PVDZ
  Basis Set: (CC-PVDZ AUX)
    Blend: CC-PVDZ-JKFIT
  @DF-UKS Final Energy:  -629.37304261715781
    Total Energy =                       -629.3730426171578074
 Dipole X            :          0.0000000            0.0000000            0.0000000
 Dipole Y            :          0.0000000            0.0000000            0.0000000
 Dipole Z            :          0.0004773            0.5377250            0.5382023
 Magnitude           :                                                    0.5382023
    Molecular point group: c2v
  Basis Set: CC-PVDZ
    Blend: CC-PVDZ
  Basis Set: (CC-PVDZ AUX)
    Blend: CC-PVDZ-JKFIT
  Basis Set: CC-PVDZ
    Blend: CC-PVDZ
  Basis Set: (CC-PVDZ AUX)
    Blend: CC-PVDZ-JKFIT
  @DF-UKS Final Energy:  -629.39731247759812
    Total Energy =                       -629.3973124775981205
  Basis Set: CC-PVDZ
    Blend: CC-PVDZ
  Basis Set: (CC-PVDZ AUX)
    Blend: CC-PVDZ-JKFIT
  Basis Set: CC-PVDZ
    Blend: CC-PVDZ
  @DF-UKS Final Energy:  -629.44358342989142
    Total Energy =                       -629.4435834298914187
  @DF-UKS Final Energy:  -629.60534424122318
    Total Energy =                       -629.6053442412232926
  @DF-UKS Final Energy:  -630.13496451620074
    Total Energy =                       -630.1349645162008528
  @DF-UKS Final Energy:  -630.29726246568282
    Total Energy =                       -630.2972624656828202
  @DF-UKS Final Energy:  -630.37484463682597
    Total Energy =                       -630.3748446368259692
  @DF-UKS Final Energy:  -630.40060969614876
    Total Energy =                       -630.4006096961487629
  @DF-UKS Final Energy:  -630.40653105878641
    Total Energy =                       -630.4065310587864133
  @DF-UKS Final Energy:  -630.40854516294553
    Total Energy =                       -630.4085451629455292
  @DF-UKS Final Energy:  -630.40886936895424
    Total Energy =                       -630.4088693689542424
  @DF-UKS Final Energy:  -630.40892714429594
    Total Energy =                       -630.4089271442959443
  Basis Set: (CC-PVDZ AUX)
    Blend: CC-PVDZ-JKFIT
  Basis Set: CC-PVDZ
    Blend: CC-PVDZ
  Basis Set: (CC-PVDZ AUX)
    Blend: CC-PVDZ-JKFIT
  @DF-UKS Final Energy:  -630.40893952494059
    Total Energy =                       -630.4089395249407062
  Basis Set: CC-PVDZ
    Blend: CC-PVDZ
  Basis Set: (CC-PVDZ AUX)
    Blend: CC-PVDZ-JKFIT
  Charge       = 1
  Multiplicity = 1
  Basis Set: CC-PVDZ
    Blend: CC-PVDZ
  Basis Set: (CC-PVDZ AUX)
    Blend: CC-PVDZ-JKFIT

    Orbital Energies [Eh]
    ---------------------

    Alpha Occupied:

       1A1   -77.395593     2A1   -66.496982     3A1    -6.860932
       4A1    -5.634046     5A1    -5.029232     1B1    -5.017494
       1B2    -5.017494     6A1    -3.996707     2B2    -3.989560
       2B1    -3.989560     7A1    -0.886608     8A1    -0.667687
       3B2    -0.500111     3B1    -0.500111

    Alpha Virtual:

       9A1    -0.477137     4B2    -0.322078     4B1    -0.322078
      10A1    -0.167995    11A1    -0.031865     5B1     0.027166
       5B2     0.027166    12A1     0.041391    13A1     0.082546
       1A2     0.082547     6B1     0.105269     6B2     0.105269
      14A1     0.124482     7B2     0.225979     7B1     0.225979
       2A2     0.265999    15A1     0.265999    16A1     0.310993
      17A1     0.433150     8B1     0.456906     8B2     0.456906
      18A1     0.788176

    Beta Occupied:

       1A1   -77.395593     2A1   -66.496982     3A1    -6.860932
       4A1    -5.634046     5A1    -5.029232     1B1    -5.017494
       1B2    -5.017494     6A1    -3.996707     2B2    -3.989560
       2B1    -3.989560     7A1    -0.886608     8A1    -0.667687
       3B2    -0.500111     3B1    -0.500111

    Beta Virtual:

       9A1    -0.477137     4B2    -0.322078     4B1    -0.322078
      10A1    -0.167995    11A1    -0.031865     5B1     0.027166
       5B2     0.027166    12A1     0.041391    13A1     0.082546
       1A2     0.082547     6B1     0.105269     6B2     0.105269
      14A1     0.124482     7B2     0.225979     7B1     0.225979
       2A2     0.265999    15A1     0.265999    16A1     0.310993
      17A1     0.433150     8B1     0.456906     8B2     0.456906
      18A1     0.788176

    Final Occupation by Irrep:
             A1    A2    B1    B2
    DOCC [     8,    0,    3,    3 ]
    SOCC [     0,    0,    0,    0 ]
    NA   [     8,    0,    3,    3 ]
    NB   [     8,    0,    3,    3 ]

  @DF-UKS Final Energy:  -630.40894046771109

   => Energetics <=

    Nuclear Repulsion Energy =             55.7714464495391482
    One-Electron Energy =                -975.2832485378455658
    Two-Electron Energy =                 324.3619621651272382
    DFT Exchange-Correlation Energy =     -35.2591005445318828
    Empirical Dispersion Energy =           0.0000000000000000
    VV10 Nonlocal Energy =                  0.0000000000000000
    Total Energy =                       -630.4089404677110906

  UHF NO Occupations:
  HONO-2 :    3 B1 2.0000000
  HONO-1 :    7 A1 2.0000000
  HONO-0 :    8 A1 2.0000000
  LUNO+0 :    9 A1 0.0000000
  LUNO+1 :    4 B1 0.0000000
  LUNO+2 :    4 B2 0.0000000
  LUNO+3 :   10 A1 0.0000000

Computation Completed

Properties will be evaluated at   0.000000,   0.000000,   0.000000 [a0]

Properties computed using the SCF density matrix

 Multipole Moments:

 ------------------------------------------------------------------------------------
     Multipole            Electronic (a.u.)      Nuclear  (a.u.)        Total (a.u.)
 ------------------------------------------------------------------------------------

 L = 1.  Multiply by 2.5417464519 to convert [e a0] to [Debye]
 Dipole X            :          0.0000000            0.0000000            0.0000000
 Dipole Y            :          0.0000000            0.0000000            0.0000000
 Dipole Z            :          0.0611879            0.8928684            0.9540563
 Magnitude           :                                                    0.9540563

 ------------------------------------------------------------------------------------

*** tstop() called on Joses-MacBook-Pro-2.local at Thu Jul 17 15:39:54 2025
Module time:
	user time   =       6.82 seconds =       0.11 minutes
	system time =       2.33 seconds =       0.04 minutes
	total time  =          1 seconds =       0.02 minutes
Total time:
	user time   =     161.17 seconds =       2.69 minutes
	system time =      42.99 seconds =       0.72 minutes
	total time  =         20 seconds =       0.33 minutes

*** tstart() called on Joses-MacBook-Pro-2.local
*** at Thu Jul 17 15:39:54 2025

         ------------------------------------------------------------
                                   SCF GRAD
                          Rob Parrish, Justin Turney,
                       Andy Simmonett, and Alex Sokolov
         ------------------------------------------------------------

  ==> Geometry <==

    Molecular point group: c2v
    Full point group: C_inf_v

    Geometry (in Angstrom), charge = 1, multiplicity = 1:

       Center              X                  Y                   Z               Mass
    ------------   -----------------  -----------------  -----------------  -----------------
         SI           0.000000000000     0.000000000000     1.046920235734    27.976926534650
         P            0.000000000000     0.000000000000    -0.945626512022    30.973761998420

  Nuclear repulsion =   55.771446449539148

  ==> Basis Set <==

  Basis Set: CC-PVDZ
    Blend: CC-PVDZ
    Number of shells: 16
    Number of basis functions: 36
    Number of Cartesian functions: 38
    Spherical Harmonics?: true
    Max angular momentum: 2

  ==> DFJKGrad: Density-Fitted SCF Gradients <==

    Gradient:                    1
    J tasked:                  Yes
    K tasked:                  Yes
    wK tasked:                  No
    OpenMP threads:              1
    Integrals threads:           1
    Memory [MiB]:              375
    Schwarz Cutoff:          1E-12
    Fitting Condition:       1E-10

   => Auxiliary Basis Set <=

  Basis Set: (CC-PVDZ AUX)
    Blend: CC-PVDZ-JKFIT
    Number of shells: 72
    Number of basis functions: 224
    Number of Cartesian functions: 260
    Spherical Harmonics?: true
    Max angular momentum: 3

  ==> DFT Potential <==

   => LibXC <=

    Version 6.2.2
    S. Lehtola, C. Steigemann, M. J.T. Oliveira, and M. A.L. Marques.,  SoftwareX 7, 1â€“5 (2018) (10.1016/j.softx.2017.11.002)

   => Composite Functional: B3LYP <=

    B3LYP Hyb-GGA Exchange-Correlation Functional

    P. J. Stephens, F. J. Devlin, C. F. Chabalowski, and M. J. Frisch.,  J. Phys. Chem. 98, 11623 (1994) (10.1021/j100096a001)

    Deriv               =              1
    GGA                 =           TRUE
    Meta                =          FALSE

    Exchange Hybrid     =           TRUE
    MP2 Hybrid          =          FALSE

   => Exchange Functionals <=

    0.0800   Slater exchange
    0.7200         Becke 88

   => Exact (HF) Exchange <=

    0.2000               HF

   => Correlation Functionals <=

    0.1900   Vosko, Wilk & Nusair (VWN5_RPA)
    0.8100   Lee, Yang & Parr

   => LibXC Density Thresholds  <==

    XC_HYB_GGA_XC_B3LYP:  1.00E-15

   => Molecular Quadrature <=

    Radial Scheme          =       TREUTLER
    Pruning Scheme         =           NONE
    Nuclear Scheme         =       TREUTLER

    Blocking Scheme        =         OCTREE
    BS radius alpha        =              1
    Pruning alpha          =              1
    Radial Points          =             75
    Spherical Points       =            302
    Total Points           =          41590
    Total Blocks           =            383
    Max Points             =            255
    Max Functions          =             36
    Weights Tolerance      =       1.00E-15

  -Total Gradient:
     Atom            X                  Y                   Z
    ------   -----------------  -----------------  -----------------
       1        0.000000000000     0.000000000000    -0.000104617030
       2       -0.000000000000    -0.000000000000     0.000111894417

*** tstop() called on Joses-MacBook-Pro-2.local at Thu Jul 17 15:39:54 2025
Module time:
	user time   =       2.49 seconds =       0.04 minutes
	system time =       1.03 seconds =       0.02 minutes
	total time  =          0 seconds =       0.00 minutes
Total time:
	user time   =     163.66 seconds =       2.73 minutes
	system time =      44.02 seconds =       0.73 minutes
	total time  =         20 seconds =       0.33 minutes

    			-----------------------------------------

    			 OPTKING 3.0: for geometry optimizations

    			     By R.A. King, Bethel University

    			        with contributions from

    			    A.V. Copan, J. Cayton, A. Heide

    			-----------------------------------------

	                            ===> Fragment 1 <==

	 Z (Atomic Numbers)          Masses                          Geom
	      14.000000            27.976927          0.00000000  0.00000000  1.97839252
	      15.000000            30.973762          0.00000000  0.00000000 -1.78697512

	 - Coordinate -           - BOHR/RAD -       - ANG/DEG -
	 R(1,2)           =         3.765368           1.992547

	        --- Internal Coordinate Step in ANG or DEG, aJ/ANG or AJ/DEG ---
	-------------------------------------------------------------------------------
	           Coordinate      Previous         Force          Change          New
	           ----------      --------        ------          ------        ------
	               R(1,2)       1.99255        0.00089        0.00023       1.99277
	-------------------------------------------------------------------------------

	                                 ==> Convergence Check <==

	Measures of convergence in internal coordinates in au.

	Criteria marked as inactive (o), active & met (*), and active & unmet ( ).

	----------------------------------------------------------------------------------------------
	   Step    Total Energy     Delta E     Max Force     RMS Force      Max Disp      RMS Disp
	----------------------------------------------------------------------------------------------
	  Convergence Criteria     1.00e-06 *    3.00e-04 *             o    1.20e-03 *             o
	----------------------------------------------------------------------------------------------
	    14    -630.40894047   -9.43e-07 *    1.08e-04 *    1.08e-04 o    4.27e-04 *    4.27e-04 o  ~
	----------------------------------------------------------------------------------------------

Next Geometry in Ang
	Fragment 1 (Ang)

	   Si   0.0000000000   0.0000000000   1.0470331245
	    P   0.0000000000   0.0000000000  -0.9457394007

    Final optimized geometry and variables:
    Molecular point group: c2v
    Full point group: C_inf_v

    Geometry (in Angstrom), charge = 1, multiplicity = 1:

    SI           0.000000000000     0.000000000000     1.046920235734
    P            0.000000000000     0.000000000000    -0.945626512022

    Psi4 stopped on: Thursday, 17 July 2025 03:39PM
    Psi4 wall time for execution: 0:00:20.27

*** Psi4 exiting successfully. Buy a developer a beer!
