                               Psi4 1.9.1 release

  ==> Input File <==

--------------------------------------------------------------------------
molecule {
1 1
P   0.00000        0.60000        0.00000
Ar   0.00000       -0.60000        0.00000
}

set {
basis              cc-pvdz
reference          uks
maxiter            500
geom_maxiter       500
DAMPING_PERCENTAGE 1
guess              SAP
}

optimize('b3lyp')
--------------------------------------------------------------------------

    Molecular point group: c2v
  Charge       = 1
  Multiplicity = 1
  Basis Set: CC-PVDZ
    Blend: CC-PVDZ
  Basis Set: (CC-PVDZ AUX)
    Blend: CC-PVDZ-JKFIT
  @DF-UKS Final Energy:  -867.08779280769886
    Total Energy =                       -867.0877928076987473
 Dipole X            :          0.0000000            0.0000000            0.0000000
 Dipole Y            :          0.0000000            0.0000000            0.0000000
 Dipole Z            :         -2.4767696            1.3397069           -1.1370628
 Magnitude           :                                                    1.1370628
    Molecular point group: c2v
  Basis Set: CC-PVDZ
    Blend: CC-PVDZ
  Basis Set: (CC-PVDZ AUX)
    Blend: CC-PVDZ-JKFIT
  Basis Set: CC-PVDZ
    Blend: CC-PVDZ
  Basis Set: (CC-PVDZ AUX)
    Blend: CC-PVDZ-JKFIT
  @DF-UKS Final Energy:  -867.13146823620275
    Total Energy =                       -867.1314682362027497
  Basis Set: CC-PVDZ
    Blend: CC-PVDZ
  Basis Set: (CC-PVDZ AUX)
    Blend: CC-PVDZ-JKFIT
  Basis Set: CC-PVDZ
    Blend: CC-PVDZ
  @DF-UKS Final Energy:  -867.21196036717720
    Total Energy =                       -867.2119603671771983
  @DF-UKS Final Energy:  -867.46977646560094
    Total Energy =                       -867.4697764656009440
  @DF-UKS Final Energy:  -867.97768074939495
    Total Energy =                       -867.9776807493949491
  @DF-UKS Final Energy:  -868.16115616207162
    Total Energy =                       -868.1611561620716202
  @DF-UKS Final Energy:  -868.28232417514494
    Total Energy =                       -868.2823241751449359
  @DF-UKS Final Energy:  -868.33959462333928
    Total Energy =                       -868.3395946233392806
  @DF-UKS Final Energy:  -868.37310779496136
    Total Energy =                       -868.3731077949612427
  @DF-UKS Final Energy:  -868.39241203636038
    Total Energy =                       -868.3924120363603834
  @DF-UKS Final Energy:  -868.40191297763499
    Total Energy =                       -868.4019129776349928
  @DF-UKS Final Energy:  -868.40611920709830
    Total Energy =                       -868.4061192070982997
  @DF-UKS Final Energy:  -868.40770368696144
    Total Energy =                       -868.4077036869614403
  @DF-UKS Final Energy:  -868.40808658419337
    Total Energy =                       -868.4080865841932564
  @DF-UKS Final Energy:  -868.40821005704618
    Total Energy =                       -868.4082100570461762
  @DF-UKS Final Energy:  -868.40823113813667
    Total Energy =                       -868.4082311381366708
  Basis Set: (CC-PVDZ AUX)
    Blend: CC-PVDZ-JKFIT
  Basis Set: CC-PVDZ
    Blend: CC-PVDZ
  Basis Set: (CC-PVDZ AUX)
    Blend: CC-PVDZ-JKFIT
  @DF-UKS Final Energy:  -868.40823534988010
    Total Energy =                       -868.4082353498801012
  Basis Set: CC-PVDZ
    Blend: CC-PVDZ
  Basis Set: (CC-PVDZ AUX)
    Blend: CC-PVDZ-JKFIT
  Charge       = 1
  Multiplicity = 1
  Basis Set: CC-PVDZ
    Blend: CC-PVDZ
  Basis Set: (CC-PVDZ AUX)
    Blend: CC-PVDZ-JKFIT

    Orbital Energies [Eh]
    ---------------------

    Alpha Occupied:

       1A1  -115.403879     2A1   -77.482186     3A1   -11.440034
       4A1    -8.993157     1B1    -8.988640     1B2    -8.987450
       5A1    -6.939039     2B1    -5.108297     6A1    -5.106402
       2B2    -5.084604     7A1    -1.266174     8A1    -0.871542
       9A1    -0.717416     3B1    -0.708749     3B2    -0.705137
       4B2    -0.487347

    Alpha Virtual:

       4B1    -0.452020    10A1    -0.405676    11A1     0.089808
      12A1     0.113663     5B1     0.130400     5B2     0.150078
       6B1     0.152315     6B2     0.173425     1A2     0.181814
      13A1     0.187936    14A1     0.228578     7B1     0.375018
       7B2     0.382049    15A1     0.390605    16A1     0.528055
       2A2     0.551732    17A1     0.551856     8B1     0.573678
       8B2     0.579285    18A1     0.933742

    Beta Occupied:

       1A1  -115.403879     2A1   -77.482186     3A1   -11.440034
       4A1    -8.993157     1B1    -8.988640     1B2    -8.987450
       5A1    -6.939039     2B1    -5.108297     6A1    -5.106402
       2B2    -5.084604     7A1    -1.266174     8A1    -0.871542
       9A1    -0.717416     3B1    -0.708749     3B2    -0.705137
       4B2    -0.487347

    Beta Virtual:

       4B1    -0.452020    10A1    -0.405676    11A1     0.089808
      12A1     0.113663     5B1     0.130400     5B2     0.150078
       6B1     0.152315     6B2     0.173425     1A2     0.181814
      13A1     0.187936    14A1     0.228578     7B1     0.375018
       7B2     0.382049    15A1     0.390605    16A1     0.528055
       2A2     0.551732    17A1     0.551856     8B1     0.573678
       8B2     0.579285    18A1     0.933742

    Final Occupation by Irrep:
             A1    A2    B1    B2
    DOCC [     9,    0,    3,    4 ]
    SOCC [     0,    0,    0,    0 ]
    NA   [     9,    0,    3,    4 ]
    NB   [     9,    0,    3,    4 ]

  @DF-UKS Final Energy:  -868.40823568908831

   => Energetics <=

    Nuclear Repulsion Energy =             59.6405588737998471
    One-Electron Energy =               -1308.7353645050536670
    Two-Electron Energy =                 423.9875393996028947
    DFT Exchange-Correlation Energy =     -43.3009694574373682
    Empirical Dispersion Energy =           0.0000000000000000
    VV10 Nonlocal Energy =                  0.0000000000000000
    Total Energy =                       -868.4082356890884284

  UHF NO Occupations:
  HONO-2 :    8 A1 2.0000000
  HONO-1 :    9 A1 2.0000000
  HONO-0 :    4 B2 2.0000000
  LUNO+0 :   10 A1 0.0000000
  LUNO+1 :   11 A1 0.0000000
  LUNO+2 :    5 B2 0.0000000
  LUNO+3 :   12 A1 0.0000000

Computation Completed

Properties will be evaluated at   0.000000,   0.000000,   0.000000 [a0]

Properties computed using the SCF density matrix

 Multipole Moments:

 ------------------------------------------------------------------------------------
     Multipole            Electronic (a.u.)      Nuclear  (a.u.)        Total (a.u.)
 ------------------------------------------------------------------------------------

 L = 1.  Multiply by 2.5417464519 to convert [e a0] to [Debye]
 Dipole X            :          0.0000000            0.0000000            0.0000000
 Dipole Y            :          0.0000000            0.0000000            0.0000000
 Dipole Z            :         -1.5370236            2.6745562            1.1375326
 Magnitude           :                                                    1.1375326

 ------------------------------------------------------------------------------------

*** tstop() called on Joses-MacBook-Pro-2.local at Thu Jul 17 15:48:28 2025
Module time:
	user time   =       6.74 seconds =       0.11 minutes
	system time =       1.77 seconds =       0.03 minutes
	total time  =          1 seconds =       0.02 minutes
Total time:
	user time   =     209.92 seconds =       3.50 minutes
	system time =      52.99 seconds =       0.88 minutes
	total time  =         25 seconds =       0.42 minutes

*** tstart() called on Joses-MacBook-Pro-2.local
*** at Thu Jul 17 15:48:28 2025

         ------------------------------------------------------------
                                   SCF GRAD
                          Rob Parrish, Justin Turney,
                       Andy Simmonett, and Alex Sokolov
         ------------------------------------------------------------

  ==> Geometry <==

    Molecular point group: c2v
    Full point group: C_inf_v

    Geometry (in Angstrom), charge = 1, multiplicity = 1:

       Center              X                  Y                   Z               Mass
    ------------   -----------------  -----------------  -----------------  -----------------
         P            0.000000000000     0.000000000000     1.349605960577    30.973761998420
         AR           0.000000000000     0.000000000000    -1.046043067180    39.962383123700

  Nuclear repulsion =   59.640558873799847

  ==> Basis Set <==

  Basis Set: CC-PVDZ
    Blend: CC-PVDZ
    Number of shells: 16
    Number of basis functions: 36
    Number of Cartesian functions: 38
    Spherical Harmonics?: true
    Max angular momentum: 2

  ==> DFJKGrad: Density-Fitted SCF Gradients <==

    Gradient:                    1
    J tasked:                  Yes
    K tasked:                  Yes
    wK tasked:                  No
    OpenMP threads:              1
    Integrals threads:           1
    Memory [MiB]:              375
    Schwarz Cutoff:          1E-12
    Fitting Condition:       1E-10

   => Auxiliary Basis Set <=

  Basis Set: (CC-PVDZ AUX)
    Blend: CC-PVDZ-JKFIT
    Number of shells: 72
    Number of basis functions: 224
    Number of Cartesian functions: 260
    Spherical Harmonics?: true
    Max angular momentum: 3

  ==> DFT Potential <==

   => LibXC <=

    Version 6.2.2
    S. Lehtola, C. Steigemann, M. J.T. Oliveira, and M. A.L. Marques.,  SoftwareX 7, 1â€“5 (2018) (10.1016/j.softx.2017.11.002)

   => Composite Functional: B3LYP <=

    B3LYP Hyb-GGA Exchange-Correlation Functional

    P. J. Stephens, F. J. Devlin, C. F. Chabalowski, and M. J. Frisch.,  J. Phys. Chem. 98, 11623 (1994) (10.1021/j100096a001)

    Deriv               =              1
    GGA                 =           TRUE
    Meta                =          FALSE

    Exchange Hybrid     =           TRUE
    MP2 Hybrid          =          FALSE

   => Exchange Functionals <=

    0.0800   Slater exchange
    0.7200         Becke 88

   => Exact (HF) Exchange <=

    0.2000               HF

   => Correlation Functionals <=

    0.1900   Vosko, Wilk & Nusair (VWN5_RPA)
    0.8100   Lee, Yang & Parr

   => LibXC Density Thresholds  <==

    XC_HYB_GGA_XC_B3LYP:  1.00E-15

   => Molecular Quadrature <=

    Radial Scheme          =       TREUTLER
    Pruning Scheme         =           NONE
    Nuclear Scheme         =       TREUTLER

    Blocking Scheme        =         OCTREE
    BS radius alpha        =              1
    Pruning alpha          =              1
    Radial Points          =             75
    Spherical Points       =            302
    Total Points           =          40870
    Total Blocks           =            368
    Max Points             =            256
    Max Functions          =             36
    Weights Tolerance      =       1.00E-15

  -Total Gradient:
     Atom            X                  Y                   Z
    ------   -----------------  -----------------  -----------------
       1       -0.000000000000     0.000000000000    -0.000028770801
       2        0.000000000000    -0.000000000000     0.000036793739

*** tstop() called on Joses-MacBook-Pro-2.local at Thu Jul 17 15:48:28 2025
Module time:
	user time   =       2.63 seconds =       0.04 minutes
	system time =       1.01 seconds =       0.02 minutes
	total time  =          0 seconds =       0.00 minutes
Total time:
	user time   =     212.56 seconds =       3.54 minutes
	system time =      54.00 seconds =       0.90 minutes
	total time  =         25 seconds =       0.42 minutes

    			-----------------------------------------

    			 OPTKING 3.0: for geometry optimizations

    			     By R.A. King, Bethel University

    			        with contributions from

    			    A.V. Copan, J. Cayton, A. Heide

    			-----------------------------------------

	                            ===> Fragment 1 <==

	 Z (Atomic Numbers)          Masses                          Geom
	      15.000000            30.973762          0.00000000  0.00000000  2.55038564
	      18.000000            39.962383          0.00000000  0.00000000 -1.97673491

	 - Coordinate -           - BOHR/RAD -       - ANG/DEG -
	 R(1,2)           =         4.527121           2.395649

	        --- Internal Coordinate Step in ANG or DEG, aJ/ANG or AJ/DEG ---
	-------------------------------------------------------------------------------
	           Coordinate      Previous         Force          Change          New
	           ----------      --------        ------          ------        ------
	               R(1,2)       2.39565        0.00027        0.00037       2.39602
	-------------------------------------------------------------------------------

	                                 ==> Convergence Check <==

	Measures of convergence in internal coordinates in au.

	Criteria marked as inactive (o), active & met (*), and active & unmet ( ).

	----------------------------------------------------------------------------------------------
	   Step    Total Energy     Delta E     Max Force     RMS Force      Max Disp      RMS Disp
	----------------------------------------------------------------------------------------------
	  Convergence Criteria     1.00e-06 *    3.00e-04 *             o    1.20e-03 *             o
	----------------------------------------------------------------------------------------------
	    18    -868.40823569   -3.39e-07 *    3.28e-05 *    3.28e-05 o    6.94e-04 *    6.94e-04 o  ~
	----------------------------------------------------------------------------------------------

Next Geometry in Ang
	Fragment 1 (Ang)

	    P   0.0000000000   0.0000000000   1.3497894778
	   Ar   0.0000000000   0.0000000000  -1.0462265844

    Final optimized geometry and variables:
    Molecular point group: c2v
    Full point group: C_inf_v

    Geometry (in Angstrom), charge = 1, multiplicity = 1:

    P            0.000000000000     0.000000000000     1.349605960577
    AR           0.000000000000     0.000000000000    -1.046043067180

    Psi4 stopped on: Thursday, 17 July 2025 03:48PM
    Psi4 wall time for execution: 0:00:25.82

*** Psi4 exiting successfully. Buy a developer a beer!
