                               Psi4 1.9.1 release

  ==> Input File <==

--------------------------------------------------------------------------
molecule {
1 1
B   0.00000        0.60000        0.00000
Ne   0.00000       -0.60000        0.00000
}

set {
basis              cc-pvdz
reference          uks
maxiter            500
geom_maxiter       500
DAMPING_PERCENTAGE 1
guess              SAP
}

optimize('b3lyp')
--------------------------------------------------------------------------

    Molecular point group: c2v
  Charge       = 1
  Multiplicity = 1
  Basis Set: CC-PVDZ
    Blend: CC-PVDZ
  Basis Set: (CC-PVDZ AUX)
    Blend: CC-PVDZ-JKFIT
  @DF-UKS Final Energy:  -153.11785027141767
    Total Energy =                       -153.1178502714176659
 Dipole X            :          0.0000000            0.0000000            0.0000000
 Dipole Y            :          0.0000000            0.0000000            0.0000000
 Dipole Z            :          0.5297397           -0.7410371           -0.2112974
 Magnitude           :                                                    0.2112974
    Molecular point group: c2v
  Basis Set: CC-PVDZ
    Blend: CC-PVDZ
  Basis Set: (CC-PVDZ AUX)
    Blend: CC-PVDZ-JKFIT
  Basis Set: CC-PVDZ
    Blend: CC-PVDZ
  Basis Set: (CC-PVDZ AUX)
    Blend: CC-PVDZ-JKFIT
  @DF-UKS Final Energy:  -153.18113211495606
    Total Energy =                       -153.1811321149560570
  Basis Set: CC-PVDZ
    Blend: CC-PVDZ
  Basis Set: (CC-PVDZ AUX)
    Blend: CC-PVDZ-JKFIT
  Basis Set: CC-PVDZ
    Blend: CC-PVDZ
  @DF-UKS Final Energy:  -153.21839504464049
    Total Energy =                       -153.2183950446404879
  @DF-UKS Final Energy:  -153.24143595229805
    Total Energy =                       -153.2414359522980760
  @DF-UKS Final Energy:  -153.25253822011092
    Total Energy =                       -153.2525382201109210
  @DF-UKS Final Energy:  -153.25688690156574
    Total Energy =                       -153.2568869015657356
  @DF-UKS Final Energy:  -153.25834125970445
    Total Energy =                       -153.2583412597044514
  @DF-UKS Final Energy:  -153.25866692432493
    Total Energy =                       -153.2586669243249275
  @DF-UKS Final Energy:  -153.25877658786956
    Total Energy =                       -153.2587765878695620
  @DF-UKS Final Energy:  -153.25879452637022
    Total Energy =                       -153.2587945263702238
  Basis Set: (CC-PVDZ AUX)
    Blend: CC-PVDZ-JKFIT
  Basis Set: CC-PVDZ
    Blend: CC-PVDZ
  Basis Set: (CC-PVDZ AUX)
    Blend: CC-PVDZ-JKFIT
  @DF-UKS Final Energy:  -153.25879775061202
    Total Energy =                       -153.2587977506120183
  Basis Set: CC-PVDZ
    Blend: CC-PVDZ
  Basis Set: (CC-PVDZ AUX)
    Blend: CC-PVDZ-JKFIT
  Charge       = 1
  Multiplicity = 1
  Basis Set: CC-PVDZ
    Blend: CC-PVDZ
  Basis Set: (CC-PVDZ AUX)
    Blend: CC-PVDZ-JKFIT

    Orbital Energies [Eh]
    ---------------------

    Alpha Occupied:

       1A1   -31.252351     2A1    -7.338718     3A1    -1.710088
       4A1    -0.840926     1B2    -0.813190     1B1    -0.813190
       5A1    -0.724452

    Alpha Virtual:

       2B1    -0.440857     2B2    -0.440857     6A1    -0.423512
       3B2     0.006952     3B1     0.006952     7A1     0.017523
       8A1     0.068118     4B2     0.357813     4B1     0.357813
       1A2     0.363765     9A1     0.363765    10A1     0.388391
       5B1     1.144407     5B2     1.144407    11A1     1.226552
      12A1     1.881568     6B2     4.447927     6B1     4.447927
      13A1     4.451458     2A2     4.451579    14A1     4.457280

    Beta Occupied:

       1A1   -31.252351     2A1    -7.338718     3A1    -1.710088
       4A1    -0.840926     1B2    -0.813190     1B1    -0.813190
       5A1    -0.724452

    Beta Virtual:

       2B1    -0.440857     2B2    -0.440857     6A1    -0.423512
       3B1     0.006952     3B2     0.006952     7A1     0.017523
       8A1     0.068118     4B2     0.357813     4B1     0.357813
       1A2     0.363765     9A1     0.363765    10A1     0.388391
       5B1     1.144407     5B2     1.144407    11A1     1.226552
      12A1     1.881568     6B2     4.447927     6B1     4.447927
      13A1     4.451458     2A2     4.451579    14A1     4.457280

    Final Occupation by Irrep:
             A1    A2    B1    B2
    DOCC [     5,    0,    1,    1 ]
    SOCC [     0,    0,    0,    0 ]
    NA   [     5,    0,    1,    1 ]
    NB   [     5,    0,    1,    1 ]

  @DF-UKS Final Energy:  -153.25879845117612

   => Energetics <=

    Nuclear Repulsion Energy =             11.9074319152088179
    One-Electron Energy =                -234.0227476068756118
    Two-Electron Energy =                  81.8461639710819640
    DFT Exchange-Correlation Energy =     -12.9896467305912680
    Empirical Dispersion Energy =           0.0000000000000000
    VV10 Nonlocal Energy =                  0.0000000000000000
    Total Energy =                       -153.2587984511760908

  UHF NO Occupations:
  HONO-2 :    1 B2 2.0000000
  HONO-1 :    1 B1 2.0000000
  HONO-0 :    5 A1 2.0000000
  LUNO+0 :    6 A1 0.0000000
  LUNO+1 :    7 A1 0.0000000
  LUNO+2 :    8 A1 0.0000000
  LUNO+3 :    2 B2 0.0000000

Computation Completed

Properties will be evaluated at   0.000000,   0.000000,   0.000000 [a0]

Properties computed using the SCF density matrix

 Multipole Moments:

 ------------------------------------------------------------------------------------
     Multipole            Electronic (a.u.)      Nuclear  (a.u.)        Total (a.u.)
 ------------------------------------------------------------------------------------

 L = 1.  Multiply by 2.5417464519 to convert [e a0] to [Debye]
 Dipole X            :          0.0000000            0.0000000            0.0000000
 Dipole Y            :          0.0000000            0.0000000            0.0000000
 Dipole Z            :          3.6519670           -1.3721821            2.2797849
 Magnitude           :                                                    2.2797849

 ------------------------------------------------------------------------------------

*** tstop() called on Joses-MacBook-Pro-2.local at Thu Jul 17 13:32:01 2025
Module time:
	user time   =       2.52 seconds =       0.04 minutes
	system time =       3.43 seconds =       0.06 minutes
	total time  =          0 seconds =       0.00 minutes
Total time:
	user time   =      39.67 seconds =       0.66 minutes
	system time =      60.21 seconds =       1.00 minutes
	total time  =          9 seconds =       0.15 minutes

*** tstart() called on Joses-MacBook-Pro-2.local
*** at Thu Jul 17 13:32:01 2025

         ------------------------------------------------------------
                                   SCF GRAD
                          Rob Parrish, Justin Turney,
                       Andy Simmonett, and Alex Sokolov
         ------------------------------------------------------------

  ==> Geometry <==

    Molecular point group: c2v
    Full point group: C_inf_v

    Geometry (in Angstrom), charge = 1, multiplicity = 1:

       Center              X                  Y                   Z               Mass
    ------------   -----------------  -----------------  -----------------  -----------------
         B            0.000000000000     0.000000000000     1.432955448285    11.009305360000
         NE           0.000000000000     0.000000000000    -0.789090474120    19.992440176200

  Nuclear repulsion =   11.907431915208818

  ==> Basis Set <==

  Basis Set: CC-PVDZ
    Blend: CC-PVDZ
    Number of shells: 12
    Number of basis functions: 28
    Number of Cartesian functions: 30
    Spherical Harmonics?: true
    Max angular momentum: 2

  ==> DFJKGrad: Density-Fitted SCF Gradients <==

    Gradient:                    1
    J tasked:                  Yes
    K tasked:                  Yes
    wK tasked:                  No
    OpenMP threads:              1
    Integrals threads:           1
    Memory [MiB]:              375
    Schwarz Cutoff:          1E-12
    Fitting Condition:       1E-10

   => Auxiliary Basis Set <=

  Basis Set: (CC-PVDZ AUX)
    Blend: CC-PVDZ-JKFIT
    Number of shells: 48
    Number of basis functions: 140
    Number of Cartesian functions: 162
    Spherical Harmonics?: true
    Max angular momentum: 3

  ==> DFT Potential <==

   => LibXC <=

    Version 6.2.2
    S. Lehtola, C. Steigemann, M. J.T. Oliveira, and M. A.L. Marques.,  SoftwareX 7, 1â€“5 (2018) (10.1016/j.softx.2017.11.002)

   => Composite Functional: B3LYP <=

    B3LYP Hyb-GGA Exchange-Correlation Functional

    P. J. Stephens, F. J. Devlin, C. F. Chabalowski, and M. J. Frisch.,  J. Phys. Chem. 98, 11623 (1994) (10.1021/j100096a001)

    Deriv               =              1
    GGA                 =           TRUE
    Meta                =          FALSE

    Exchange Hybrid     =           TRUE
    MP2 Hybrid          =          FALSE

   => Exchange Functionals <=

    0.0800   Slater exchange
    0.7200         Becke 88

   => Exact (HF) Exchange <=

    0.2000               HF

   => Correlation Functionals <=

    0.1900   Vosko, Wilk & Nusair (VWN5_RPA)
    0.8100   Lee, Yang & Parr

   => LibXC Density Thresholds  <==

    XC_HYB_GGA_XC_B3LYP:  1.00E-15

   => Molecular Quadrature <=

    Radial Scheme          =       TREUTLER
    Pruning Scheme         =           NONE
    Nuclear Scheme         =       TREUTLER

    Blocking Scheme        =         OCTREE
    BS radius alpha        =              1
    Pruning alpha          =              1
    Radial Points          =             75
    Spherical Points       =            302
    Total Points           =          43628
    Total Blocks           =            389
    Max Points             =            256
    Max Functions          =             28
    Weights Tolerance      =       1.00E-15

  -Total Gradient:
     Atom            X                  Y                   Z
    ------   -----------------  -----------------  -----------------
       1        0.000000000000    -0.000000000000    -0.000056186238
       2        0.000000000000     0.000000000000     0.000016375049

*** tstop() called on Joses-MacBook-Pro-2.local at Thu Jul 17 13:32:01 2025
Module time:
	user time   =       0.66 seconds =       0.01 minutes
	system time =       0.98 seconds =       0.02 minutes
	total time  =          0 seconds =       0.00 minutes
Total time:
	user time   =      40.33 seconds =       0.67 minutes
	system time =      61.19 seconds =       1.02 minutes
	total time  =          9 seconds =       0.15 minutes

    			-----------------------------------------

    			 OPTKING 3.0: for geometry optimizations

    			     By R.A. King, Bethel University

    			        with contributions from

    			    A.V. Copan, J. Cayton, A. Heide

    			-----------------------------------------

	                            ===> Fragment 1 <==

	 Z (Atomic Numbers)          Masses                          Geom
	       5.000000            11.009305          0.00000000  0.00000000  2.70789335
	      10.000000            19.992440          0.00000000  0.00000000 -1.49116488

	 - Coordinate -           - BOHR/RAD -       - ANG/DEG -
	 R(1,2)           =         4.199058           2.222046

	        --- Internal Coordinate Step in ANG or DEG, aJ/ANG or AJ/DEG ---
	-------------------------------------------------------------------------------
	           Coordinate      Previous         Force          Change          New
	           ----------      --------        ------          ------        ------
	               R(1,2)       2.22205        0.00030        0.00124       2.22329
	-------------------------------------------------------------------------------

	                                 ==> Convergence Check <==

	Measures of convergence in internal coordinates in au.

	Criteria marked as inactive (o), active & met (*), and active & unmet ( ).

	----------------------------------------------------------------------------------------------
	   Step    Total Energy     Delta E     Max Force     RMS Force      Max Disp      RMS Disp
	----------------------------------------------------------------------------------------------
	  Convergence Criteria     1.00e-06 *    3.00e-04 *             o    1.20e-03 *             o
	----------------------------------------------------------------------------------------------
	    12    -153.25879845   -7.01e-07 *    3.63e-05 *    3.63e-05 o    2.35e-03      2.35e-03 o  ~
	----------------------------------------------------------------------------------------------

Next Geometry in Ang
	Fragment 1 (Ang)

	    B   0.0000000000   0.0000000000   1.4335767356
	   Ne   0.0000000000   0.0000000000  -0.7897117615

    Final optimized geometry and variables:
    Molecular point group: c2v
    Full point group: C_inf_v

    Geometry (in Angstrom), charge = 1, multiplicity = 1:

    B            0.000000000000     0.000000000000     1.432955448285
    NE           0.000000000000     0.000000000000    -0.789090474120

    Psi4 stopped on: Thursday, 17 July 2025 01:32PM
    Psi4 wall time for execution: 0:00:10.46

*** Psi4 exiting successfully. Buy a developer a beer!
