                               Psi4 1.9.1 release

  ==> Input File <==

--------------------------------------------------------------------------
molecule {
1 1
Mg   0.00000        0.60000        0.00000
Al   0.00000       -0.60000        0.00000
}

set {
basis              cc-pvdz
reference          uks
maxiter            500
geom_maxiter       500
DAMPING_PERCENTAGE 1
guess              SAP
}

optimize('b3lyp')
--------------------------------------------------------------------------

    Molecular point group: c2v
  Charge       = 1
  Multiplicity = 1
  Basis Set: CC-PVDZ
    Blend: CC-PVDZ
  Basis Set: (CC-PVDZ AUX)
    Blend: CC-PVDZ-JKFIT + DEF2-UNIVERSAL-JKFIT
  @DF-UKS Final Energy:  -441.27943331338815
    Total Energy =                       -441.2794333133881537
 Dipole X            :          0.0000000            0.0000000            0.0000000
 Dipole Y            :          0.0000000            0.0000000            0.0000000
 Dipole Z            :          0.1317639            0.5327147            0.6644786
 Magnitude           :                                                    0.6644786
    Molecular point group: c2v
  Basis Set: CC-PVDZ
    Blend: CC-PVDZ
  Basis Set: (CC-PVDZ AUX)
    Blend: CC-PVDZ-JKFIT + DEF2-UNIVERSAL-JKFIT
  Basis Set: CC-PVDZ
    Blend: CC-PVDZ
  Basis Set: (CC-PVDZ AUX)
    Blend: CC-PVDZ-JKFIT + DEF2-UNIVERSAL-JKFIT
  @DF-UKS Final Energy:  -441.28841237336479
    Total Energy =                       -441.2884123733647925
  Basis Set: CC-PVDZ
    Blend: CC-PVDZ
  Basis Set: (CC-PVDZ AUX)
    Blend: CC-PVDZ-JKFIT + DEF2-UNIVERSAL-JKFIT
  Basis Set: CC-PVDZ
    Blend: CC-PVDZ
  @DF-UKS Final Energy:  -441.30581243600170
    Total Energy =                       -441.3058124360017018
  @DF-UKS Final Energy:  -441.36963719774946
    Total Energy =                       -441.3696371977494550
  @DF-UKS Final Energy:  -441.67454476903214
    Total Energy =                       -441.6745447690321384
  @DF-UKS Final Energy:  -441.87565852207456
    Total Energy =                       -441.8756585220746160
  @DF-UKS Final Energy:  -442.06299685878344
    Total Energy =                       -442.0629968587834355
  @DF-UKS Final Energy:  -442.21153334779405
    Total Energy =                       -442.2115333477939885
  @DF-UKS Final Energy:  -442.23208393446941
    Total Energy =                       -442.2320839344693582
  @DF-UKS Final Energy:  -442.26512887827022
    Total Energy =                       -442.2651288782702181
  @DF-UKS Final Energy:  -442.27799169220401
    Total Energy =                       -442.2779916922040115
  @DF-UKS Final Energy:  -442.28368251965372
    Total Energy =                       -442.2836825196537234
  @DF-UKS Final Energy:  -442.28558703450472
    Total Energy =                       -442.2855870345046583
  @DF-UKS Final Energy:  -442.28601416078186
    Total Energy =                       -442.2860141607818605
  @DF-UKS Final Energy:  -442.28605467925809
    Total Energy =                       -442.2860546792580863
  Basis Set: (CC-PVDZ AUX)
    Blend: CC-PVDZ-JKFIT + DEF2-UNIVERSAL-JKFIT
  Basis Set: CC-PVDZ
    Blend: CC-PVDZ
  Basis Set: (CC-PVDZ AUX)
    Blend: CC-PVDZ-JKFIT + DEF2-UNIVERSAL-JKFIT
  @DF-UKS Final Energy:  -442.28605858190178
    Total Energy =                       -442.2860585819017842
  Basis Set: CC-PVDZ
    Blend: CC-PVDZ
  Basis Set: (CC-PVDZ AUX)
    Blend: CC-PVDZ-JKFIT + DEF2-UNIVERSAL-JKFIT
  Charge       = 1
  Multiplicity = 1
  Basis Set: CC-PVDZ
    Blend: CC-PVDZ
  Basis Set: (CC-PVDZ AUX)
    Blend: CC-PVDZ-JKFIT + DEF2-UNIVERSAL-JKFIT

    Orbital Energies [Eh]
    ---------------------

    Alpha Occupied:

       1A1   -56.305825     2A1   -47.028241     3A1    -4.380176
       4A1    -3.305859     1B1    -2.933193     1B2    -2.933193
       5A1    -2.930205     2B2    -2.049544     2B1    -2.049544
       6A1    -2.048706     7A1    -0.521311     8A1    -0.378831

    Alpha Virtual:

       3B1    -0.263427     3B2    -0.263427     9A1    -0.259032
       4B2    -0.181088     4B1    -0.181088    10A1    -0.132035
      11A1    -0.060230    12A1    -0.009776     5B1     0.011724
       5B2     0.011724    13A1     0.029276     6B1     0.049826
       6B2     0.049826     7B1     0.061032     7B2     0.061032
       1A2     0.074751    14A1     0.074752    15A1     0.102943
      16A1     0.147368     2A2     0.147368    17A1     0.170898
       8B2     0.221288     8B1     0.221288    18A1     0.369665

    Beta Occupied:

       1A1   -56.305825     2A1   -47.028241     3A1    -4.380176
       4A1    -3.305859     1B1    -2.933193     1B2    -2.933193
       5A1    -2.930205     2B2    -2.049544     2B1    -2.049544
       6A1    -2.048706     7A1    -0.521311     8A1    -0.378831

    Beta Virtual:

       3B1    -0.263427     3B2    -0.263427     9A1    -0.259032
       4B2    -0.181088     4B1    -0.181088    10A1    -0.132035
      11A1    -0.060230    12A1    -0.009776     5B2     0.011724
       5B1     0.011724    13A1     0.029276     6B2     0.049826
       6B1     0.049826     7B1     0.061032     7B2     0.061032
       1A2     0.074751    14A1     0.074752    15A1     0.102943
      16A1     0.147368     2A2     0.147368    17A1     0.170898
       8B2     0.221288     8B1     0.221288    18A1     0.369665

    Final Occupation by Irrep:
             A1    A2    B1    B2
    DOCC [     8,    0,    2,    2 ]
    SOCC [     0,    0,    0,    0 ]
    NA   [     8,    0,    2,    2 ]
    NB   [     8,    0,    2,    2 ]

  @DF-UKS Final Energy:  -442.28605894185472

   => Energetics <=

    Nuclear Repulsion Energy =             25.9751213724057664
    One-Electron Energy =                -662.7421317484208885
    Two-Electron Energy =                 222.5685036818747449
    DFT Exchange-Correlation Energy =     -28.0875522477142923
    Empirical Dispersion Energy =           0.0000000000000000
    VV10 Nonlocal Energy =                  0.0000000000000000
    Total Energy =                       -442.2860589418547193

  UHF NO Occupations:
  HONO-2 :    1 B2 2.0000000
  HONO-1 :    2 B2 2.0000000
  HONO-0 :    2 B1 2.0000000
  LUNO+0 :    9 A1 0.0000000
  LUNO+1 :    3 B1 0.0000000
  LUNO+2 :   10 A1 0.0000000
  LUNO+3 :    3 B2 0.0000000

Computation Completed

Properties will be evaluated at   0.000000,   0.000000,   0.000000 [a0]

Properties computed using the SCF density matrix

 Multipole Moments:

 ------------------------------------------------------------------------------------
     Multipole            Electronic (a.u.)      Nuclear  (a.u.)        Total (a.u.)
 ------------------------------------------------------------------------------------

 L = 1.  Multiply by 2.5417464519 to convert [e a0] to [Debye]
 Dipole X            :          0.0000000            0.0000000            0.0000000
 Dipole Y            :          0.0000000            0.0000000            0.0000000
 Dipole Z            :         -1.2643658            1.4108525            0.1464867
 Magnitude           :                                                    0.1464867

 ------------------------------------------------------------------------------------

*** tstop() called on Joses-MacBook-Pro-2.local at Thu Jul 17 15:04:40 2025
Module time:
	user time   =       6.24 seconds =       0.10 minutes
	system time =       2.09 seconds =       0.03 minutes
	total time  =          1 seconds =       0.02 minutes
Total time:
	user time   =     186.42 seconds =       3.11 minutes
	system time =      58.56 seconds =       0.98 minutes
	total time  =         23 seconds =       0.38 minutes

*** tstart() called on Joses-MacBook-Pro-2.local
*** at Thu Jul 17 15:04:40 2025

         ------------------------------------------------------------
                                   SCF GRAD
                          Rob Parrish, Justin Turney,
                       Andy Simmonett, and Alex Sokolov
         ------------------------------------------------------------

  ==> Geometry <==

    Molecular point group: c2v
    Full point group: C_inf_v

    Geometry (in Angstrom), charge = 1, multiplicity = 1:

       Center              X                  Y                   Z               Mass
    ------------   -----------------  -----------------  -----------------  -----------------
         MG           0.000000000000     0.000000000000     1.682477874253    23.985041697000
         AL           0.000000000000     0.000000000000    -1.495626423355    26.981538530000

  Nuclear repulsion =   25.975121372405766

  ==> Basis Set <==

  Basis Set: CC-PVDZ
    Blend: CC-PVDZ
    Number of shells: 16
    Number of basis functions: 36
    Number of Cartesian functions: 38
    Spherical Harmonics?: true
    Max angular momentum: 2

  ==> DFJKGrad: Density-Fitted SCF Gradients <==

    Gradient:                    1
    J tasked:                  Yes
    K tasked:                  Yes
    wK tasked:                  No
    OpenMP threads:              1
    Integrals threads:           1
    Memory [MiB]:              375
    Schwarz Cutoff:          1E-12
    Fitting Condition:       1E-10

   => Auxiliary Basis Set <=

  Basis Set: (CC-PVDZ AUX)
    Blend: CC-PVDZ-JKFIT + DEF2-UNIVERSAL-JKFIT
    Number of shells: 70
    Number of basis functions: 224
    Number of Cartesian functions: 267
    Spherical Harmonics?: true
    Max angular momentum: 4

  ==> DFT Potential <==

   => LibXC <=

    Version 6.2.2
    S. Lehtola, C. Steigemann, M. J.T. Oliveira, and M. A.L. Marques.,  SoftwareX 7, 1â€“5 (2018) (10.1016/j.softx.2017.11.002)

   => Composite Functional: B3LYP <=

    B3LYP Hyb-GGA Exchange-Correlation Functional

    P. J. Stephens, F. J. Devlin, C. F. Chabalowski, and M. J. Frisch.,  J. Phys. Chem. 98, 11623 (1994) (10.1021/j100096a001)

    Deriv               =              1
    GGA                 =           TRUE
    Meta                =          FALSE

    Exchange Hybrid     =           TRUE
    MP2 Hybrid          =          FALSE

   => Exchange Functionals <=

    0.0800   Slater exchange
    0.7200         Becke 88

   => Exact (HF) Exchange <=

    0.2000               HF

   => Correlation Functionals <=

    0.1900   Vosko, Wilk & Nusair (VWN5_RPA)
    0.8100   Lee, Yang & Parr

   => LibXC Density Thresholds  <==

    XC_HYB_GGA_XC_B3LYP:  1.00E-15

   => Molecular Quadrature <=

    Radial Scheme          =       TREUTLER
    Pruning Scheme         =           NONE
    Nuclear Scheme         =       TREUTLER

    Blocking Scheme        =         OCTREE
    BS radius alpha        =              1
    Pruning alpha          =              1
    Radial Points          =             75
    Spherical Points       =            302
    Total Points           =          42967
    Total Blocks           =            427
    Max Points             =            255
    Max Functions          =             36
    Weights Tolerance      =       1.00E-15

  -Total Gradient:
     Atom            X                  Y                   Z
    ------   -----------------  -----------------  -----------------
       1        0.000000000000     0.000000000000    -0.000032639831
       2        0.000000000000     0.000000000000     0.000043642801

*** tstop() called on Joses-MacBook-Pro-2.local at Thu Jul 17 15:04:40 2025
Module time:
	user time   =       3.00 seconds =       0.05 minutes
	system time =       1.01 seconds =       0.02 minutes
	total time  =          0 seconds =       0.00 minutes
Total time:
	user time   =     189.42 seconds =       3.16 minutes
	system time =      59.58 seconds =       0.99 minutes
	total time  =         23 seconds =       0.38 minutes

    			-----------------------------------------

    			 OPTKING 3.0: for geometry optimizations

    			     By R.A. King, Bethel University

    			        with contributions from

    			    A.V. Copan, J. Cayton, A. Heide

    			-----------------------------------------

	                            ===> Fragment 1 <==

	 Z (Atomic Numbers)          Masses                          Geom
	      12.000000            23.985042          0.00000000  0.00000000  3.17942239
	      13.000000            26.981539          0.00000000  0.00000000 -2.82632433

	 - Coordinate -           - BOHR/RAD -       - ANG/DEG -
	 R(1,2)           =         6.005747           3.178104

	        --- Internal Coordinate Step in ANG or DEG, aJ/ANG or AJ/DEG ---
	-------------------------------------------------------------------------------
	           Coordinate      Previous         Force          Change          New
	           ----------      --------        ------          ------        ------
	               R(1,2)       3.17810        0.00031        0.00115       3.17925
	-------------------------------------------------------------------------------

	                                 ==> Convergence Check <==

	Measures of convergence in internal coordinates in au.

	Criteria marked as inactive (o), active & met (*), and active & unmet ( ).

	----------------------------------------------------------------------------------------------
	   Step    Total Energy     Delta E     Max Force     RMS Force      Max Disp      RMS Disp
	----------------------------------------------------------------------------------------------
	  Convergence Criteria     1.00e-06 *    3.00e-04 *             o    1.20e-03 *             o
	----------------------------------------------------------------------------------------------
	    17    -442.28605894   -3.60e-07 *    3.81e-05 *    3.81e-05 o    2.17e-03      2.17e-03 o  ~
	----------------------------------------------------------------------------------------------

Next Geometry in Ang
	Fragment 1 (Ang)

	   Mg   0.0000000000   0.0000000000   1.6830514278
	   Al   0.0000000000   0.0000000000  -1.4961999769

    Final optimized geometry and variables:
    Molecular point group: c2v
    Full point group: C_inf_v

    Geometry (in Angstrom), charge = 1, multiplicity = 1:

    MG           0.000000000000     0.000000000000     1.682477874253
    AL           0.000000000000     0.000000000000    -1.495626423355

    Psi4 stopped on: Thursday, 17 July 2025 03:04PM
    Psi4 wall time for execution: 0:00:24.05

*** Psi4 exiting successfully. Buy a developer a beer!
