                               Psi4 1.9.1 release

  ==> Input File <==

--------------------------------------------------------------------------
molecule {
1 1
Be   0.00000        0.60000        0.00000
Na   0.00000       -0.60000        0.00000
}

set {
basis              cc-pvdz
reference          uks
maxiter            500
geom_maxiter       500
DAMPING_PERCENTAGE 1
guess              SAP
}

optimize('b3lyp')
--------------------------------------------------------------------------

    Molecular point group: c2v
  Charge       = 1
  Multiplicity = 1
  Basis Set: CC-PVDZ
    Blend: CC-PVDZ
  Basis Set: (CC-PVDZ AUX)
    Blend: DEF2-UNIVERSAL-JKFIT
  @DF-UKS Final Energy:  -176.37675286231820
    Total Energy =                       -176.3767528623181704
 Dipole X            :          0.0000000            0.0000000            0.0000000
 Dipole Y            :          0.0000000            0.0000000            0.0000000
 Dipole Z            :         -0.1145954           -0.5084189           -0.6230143
 Magnitude           :                                                    0.6230143
    Molecular point group: c2v
  Basis Set: CC-PVDZ
    Blend: CC-PVDZ
  Basis Set: (CC-PVDZ AUX)
    Blend: DEF2-UNIVERSAL-JKFIT
  Basis Set: CC-PVDZ
    Blend: CC-PVDZ
  Basis Set: (CC-PVDZ AUX)
    Blend: DEF2-UNIVERSAL-JKFIT
  @DF-UKS Final Energy:  -176.43559811045765
    Total Energy =                       -176.4355981104576472
  Basis Set: CC-PVDZ
    Blend: CC-PVDZ
  Basis Set: (CC-PVDZ AUX)
    Blend: DEF2-UNIVERSAL-JKFIT
  Basis Set: CC-PVDZ
    Blend: CC-PVDZ
  @DF-UKS Final Energy:  -176.51163319417043
    Total Energy =                       -176.5116331941704289
  @DF-UKS Final Energy:  -176.63238543511235
    Total Energy =                       -176.6323854351123543
  @DF-UKS Final Energy:  -176.71223943745710
    Total Energy =                       -176.7122394374571286
  @DF-UKS Final Energy:  -176.74051602574337
    Total Energy =                       -176.7405160257433749
  @DF-UKS Final Energy:  -176.76442334574540
    Total Energy =                       -176.7644233457453709
  @DF-UKS Final Energy:  -176.77402569173663
    Total Energy =                       -176.7740256917366253
  @DF-UKS Final Energy:  -176.77821577196758
    Total Energy =                       -176.7782157719675524
  @DF-UKS Final Energy:  -176.77968458460958
    Total Energy =                       -176.7796845846095835
  @DF-UKS Final Energy:  -176.78003908334657
    Total Energy =                       -176.7800390833465656
  @DF-UKS Final Energy:  -176.78007820094541
    Total Energy =                       -176.7800782009453826
  Basis Set: (CC-PVDZ AUX)
    Blend: DEF2-UNIVERSAL-JKFIT
  Basis Set: CC-PVDZ
    Blend: CC-PVDZ
  Basis Set: (CC-PVDZ AUX)
    Blend: DEF2-UNIVERSAL-JKFIT
  @DF-UKS Final Energy:  -176.78008271519221
    Total Energy =                       -176.7800827151922078
  Basis Set: CC-PVDZ
    Blend: CC-PVDZ
  Basis Set: (CC-PVDZ AUX)
    Blend: DEF2-UNIVERSAL-JKFIT
  Charge       = 1
  Multiplicity = 1
  Basis Set: CC-PVDZ
    Blend: CC-PVDZ
  Basis Set: (CC-PVDZ AUX)
    Blend: DEF2-UNIVERSAL-JKFIT

    Orbital Energies [Eh]
    ---------------------

    Alpha Occupied:

       1A1   -38.725101     2A1    -4.282132     3A1    -2.464694
       1B1    -1.396120     1B2    -1.396120     4A1    -1.395468
       5A1    -0.418842

    Alpha Virtual:

       6A1    -0.257313     2B1    -0.223224     2B2    -0.223224
       7A1    -0.193183     3B1    -0.129312     3B2    -0.129312
       8A1    -0.099201     9A1    -0.056495     4B1    -0.042948
       4B2    -0.042948    10A1    -0.021024    11A1     0.016198
       1A2     0.016198    12A1     0.024605     5B1     0.028749
       5B2     0.028749     6B2     0.063630     6B1     0.063630
      13A1     0.148947    14A1     0.163791     2A2     0.313516
      15A1     0.313518     7B1     0.380426     7B2     0.380426
      16A1     0.515457

    Beta Occupied:

       1A1   -38.725101     2A1    -4.282132     3A1    -2.464694
       1B1    -1.396120     1B2    -1.396120     4A1    -1.395468
       5A1    -0.418842

    Beta Virtual:

       6A1    -0.257313     2B1    -0.223224     2B2    -0.223224
       7A1    -0.193183     3B1    -0.129312     3B2    -0.129312
       8A1    -0.099201     9A1    -0.056495     4B1    -0.042948
       4B2    -0.042948    10A1    -0.021024    11A1     0.016198
       1A2     0.016198    12A1     0.024605     5B1     0.028749
       5B2     0.028749     6B2     0.063630     6B1     0.063630
      13A1     0.148947    14A1     0.163791     2A2     0.313516
      15A1     0.313518     7B1     0.380426     7B2     0.380426
      16A1     0.515457

    Final Occupation by Irrep:
             A1    A2    B1    B2
    DOCC [     5,    0,    1,    1 ]
    SOCC [     0,    0,    0,    0 ]
    NA   [     5,    0,    1,    1 ]
    NB   [     5,    0,    1,    1 ]

  @DF-UKS Final Energy:  -176.78008329709880

   => Energetics <=

    Nuclear Repulsion Energy =              7.8861070631625942
    One-Electron Energy =                -259.3173669606783278
    Two-Electron Energy =                  88.4130797283027619
    DFT Exchange-Correlation Energy =     -13.7619031278858426
    Empirical Dispersion Energy =           0.0000000000000000
    VV10 Nonlocal Energy =                  0.0000000000000000
    Total Energy =                       -176.7800832970987983

  UHF NO Occupations:
  HONO-2 :    3 A1 2.0000000
  HONO-1 :    4 A1 2.0000000
  HONO-0 :    5 A1 2.0000000
  LUNO+0 :    6 A1 0.0000000
  LUNO+1 :    7 A1 0.0000000
  LUNO+2 :    2 B2 0.0000000
  LUNO+3 :    8 A1 0.0000000

Computation Completed

Properties will be evaluated at   0.000000,   0.000000,   0.000000 [a0]

Properties computed using the SCF density matrix

 Multipole Moments:

 ------------------------------------------------------------------------------------
     Multipole            Electronic (a.u.)      Nuclear  (a.u.)        Total (a.u.)
 ------------------------------------------------------------------------------------

 L = 1.  Multiply by 2.5417464519 to convert [e a0] to [Debye]
 Dipole X            :          0.0000000            0.0000000            0.0000000
 Dipole Y            :          0.0000000            0.0000000            0.0000000
 Dipole Z            :          0.9996870           -1.2509259           -0.2512389
 Magnitude           :                                                    0.2512389

 ------------------------------------------------------------------------------------

*** tstop() called on Joses-MacBook-Pro-2.local at Thu Jul 17 13:20:43 2025
Module time:
	user time   =       2.15 seconds =       0.04 minutes
	system time =       3.34 seconds =       0.06 minutes
	total time  =          0 seconds =       0.00 minutes
Total time:
	user time   =      42.49 seconds =       0.71 minutes
	system time =      90.09 seconds =       1.50 minutes
	total time  =         13 seconds =       0.22 minutes

*** tstart() called on Joses-MacBook-Pro-2.local
*** at Thu Jul 17 13:20:43 2025

         ------------------------------------------------------------
                                   SCF GRAD
                          Rob Parrish, Justin Turney,
                       Andy Simmonett, and Alex Sokolov
         ------------------------------------------------------------

  ==> Geometry <==

    Molecular point group: c2v
    Full point group: C_inf_v

    Geometry (in Angstrom), charge = 1, multiplicity = 1:

       Center              X                  Y                   Z               Mass
    ------------   -----------------  -----------------  -----------------  -----------------
         BE           0.000000000000     0.000000000000     2.121042052570     9.012183065000
         NA           0.000000000000     0.000000000000    -0.831466337563    22.989769282000

  Nuclear repulsion =    7.886107063162594

  ==> Basis Set <==

  Basis Set: CC-PVDZ
    Blend: CC-PVDZ
    Number of shells: 14
    Number of basis functions: 32
    Number of Cartesian functions: 34
    Spherical Harmonics?: true
    Max angular momentum: 2

  ==> DFJKGrad: Density-Fitted SCF Gradients <==

    Gradient:                    1
    J tasked:                  Yes
    K tasked:                  Yes
    wK tasked:                  No
    OpenMP threads:              1
    Integrals threads:           1
    Memory [MiB]:              375
    Schwarz Cutoff:          1E-12
    Fitting Condition:       1E-10

   => Auxiliary Basis Set <=

  Basis Set: (CC-PVDZ AUX)
    Blend: DEF2-UNIVERSAL-JKFIT
    Number of shells: 51
    Number of basis functions: 163
    Number of Cartesian functions: 197
    Spherical Harmonics?: true
    Max angular momentum: 4

  ==> DFT Potential <==

   => LibXC <=

    Version 6.2.2
    S. Lehtola, C. Steigemann, M. J.T. Oliveira, and M. A.L. Marques.,  SoftwareX 7, 1â€“5 (2018) (10.1016/j.softx.2017.11.002)

   => Composite Functional: B3LYP <=

    B3LYP Hyb-GGA Exchange-Correlation Functional

    P. J. Stephens, F. J. Devlin, C. F. Chabalowski, and M. J. Frisch.,  J. Phys. Chem. 98, 11623 (1994) (10.1021/j100096a001)

    Deriv               =              1
    GGA                 =           TRUE
    Meta                =          FALSE

    Exchange Hybrid     =           TRUE
    MP2 Hybrid          =          FALSE

   => Exchange Functionals <=

    0.0800   Slater exchange
    0.7200         Becke 88

   => Exact (HF) Exchange <=

    0.2000               HF

   => Correlation Functionals <=

    0.1900   Vosko, Wilk & Nusair (VWN5_RPA)
    0.8100   Lee, Yang & Parr

   => LibXC Density Thresholds  <==

    XC_HYB_GGA_XC_B3LYP:  1.00E-15

   => Molecular Quadrature <=

    Radial Scheme          =       TREUTLER
    Pruning Scheme         =           NONE
    Nuclear Scheme         =       TREUTLER

    Blocking Scheme        =         OCTREE
    BS radius alpha        =              1
    Pruning alpha          =              1
    Radial Points          =             75
    Spherical Points       =            302
    Total Points           =          43858
    Total Blocks           =            449
    Max Points             =            256
    Max Functions          =             32
    Weights Tolerance      =       1.00E-15

  -Total Gradient:
     Atom            X                  Y                   Z
    ------   -----------------  -----------------  -----------------
       1        0.000000000000    -0.000000000000    -0.000025519565
       2       -0.000000000000     0.000000000000     0.000018196137

*** tstop() called on Joses-MacBook-Pro-2.local at Thu Jul 17 13:20:44 2025
Module time:
	user time   =       0.75 seconds =       0.01 minutes
	system time =       2.12 seconds =       0.04 minutes
	total time  =          1 seconds =       0.02 minutes
Total time:
	user time   =      43.24 seconds =       0.72 minutes
	system time =      92.21 seconds =       1.54 minutes
	total time  =         14 seconds =       0.23 minutes

    			-----------------------------------------

    			 OPTKING 3.0: for geometry optimizations

    			     By R.A. King, Bethel University

    			        with contributions from

    			    A.V. Copan, J. Cayton, A. Heide

    			-----------------------------------------

	                            ===> Fragment 1 <==

	 Z (Atomic Numbers)          Masses                          Geom
	       4.000000             9.012183          0.00000000  0.00000000  4.00818858
	      11.000000            22.989769          0.00000000  0.00000000 -1.57124366

	 - Coordinate -           - BOHR/RAD -       - ANG/DEG -
	 R(1,2)           =         5.579432           2.952508

	        --- Internal Coordinate Step in ANG or DEG, aJ/ANG or AJ/DEG ---
	-------------------------------------------------------------------------------
	           Coordinate      Previous         Force          Change          New
	           ----------      --------        ------          ------        ------
	               R(1,2)       2.95251        0.00018        0.00094       2.95345
	-------------------------------------------------------------------------------

	                                 ==> Convergence Check <==

	Measures of convergence in internal coordinates in au.

	Criteria marked as inactive (o), active & met (*), and active & unmet ( ).

	----------------------------------------------------------------------------------------------
	   Step    Total Energy     Delta E     Max Force     RMS Force      Max Disp      RMS Disp
	----------------------------------------------------------------------------------------------
	  Convergence Criteria     1.00e-06 *    3.00e-04 *             o    1.20e-03 *             o
	----------------------------------------------------------------------------------------------
	    14    -176.78008330   -5.82e-07 *    2.19e-05 *    2.19e-05 o    1.78e-03      1.78e-03 o  ~
	----------------------------------------------------------------------------------------------

Next Geometry in Ang
	Fragment 1 (Ang)

	   Be   0.0000000000   0.0000000000   2.1215136332
	   Na   0.0000000000   0.0000000000  -0.8319379182

    Final optimized geometry and variables:
    Molecular point group: c2v
    Full point group: C_inf_v

    Geometry (in Angstrom), charge = 1, multiplicity = 1:

    BE           0.000000000000     0.000000000000     2.121042052570
    NA           0.000000000000     0.000000000000    -0.831466337563

    Psi4 stopped on: Thursday, 17 July 2025 01:20PM
    Psi4 wall time for execution: 0:00:14.25

*** Psi4 exiting successfully. Buy a developer a beer!
