                               Psi4 1.9.1 release

  ==> Input File <==

--------------------------------------------------------------------------
molecule {
1 1
Al   0.00000        0.60000        0.00000
S   0.00000       -0.60000        0.00000
}

set {
basis              cc-pvdz
reference          uks
maxiter            500
geom_maxiter       500
DAMPING_PERCENTAGE 1
guess              SAP
}

optimize('b3lyp')
--------------------------------------------------------------------------

    Molecular point group: c2v
  Charge       = 1
  Multiplicity = 1
  Basis Set: CC-PVDZ
    Blend: CC-PVDZ
  Basis Set: (CC-PVDZ AUX)
    Blend: CC-PVDZ-JKFIT
  @DF-UKS Final Energy:  -639.24978851612173
    Total Energy =                       -639.2497885161218392
 Dipole X            :          0.0000000            0.0000000            0.0000000
 Dipole Y            :          0.0000000            0.0000000            0.0000000
 Dipole Z            :          2.0490334           -0.6180494            1.4309840
 Magnitude           :                                                    1.4309840
    Molecular point group: c2v
  Basis Set: CC-PVDZ
    Blend: CC-PVDZ
  Basis Set: (CC-PVDZ AUX)
    Blend: CC-PVDZ-JKFIT
  Basis Set: CC-PVDZ
    Blend: CC-PVDZ
  Basis Set: (CC-PVDZ AUX)
    Blend: CC-PVDZ-JKFIT
  @DF-UKS Final Energy:  -639.27314321303083
    Total Energy =                       -639.2731432130308349
  Basis Set: CC-PVDZ
    Blend: CC-PVDZ
  Basis Set: (CC-PVDZ AUX)
    Blend: CC-PVDZ-JKFIT
  Basis Set: CC-PVDZ
    Blend: CC-PVDZ
  @DF-UKS Final Energy:  -639.31776159690560
    Total Energy =                       -639.3177615969055978
  @DF-UKS Final Energy:  -639.47464866009011
    Total Energy =                       -639.4746486600902244
  @DF-UKS Final Energy:  -640.01149888799671
    Total Energy =                       -640.0114988879965949
  @DF-UKS Final Energy:  -640.17676869827176
    Total Energy =                       -640.1767686982717578
  @DF-UKS Final Energy:  -640.25759562050507
    Total Energy =                       -640.2575956205050716
  @DF-UKS Final Energy:  -640.28647956486384
    Total Energy =                       -640.2864795648638392
  @DF-UKS Final Energy:  -640.29372993880622
    Total Energy =                       -640.2937299388061092
  @DF-UKS Final Energy:  -640.29646045853360
    Total Energy =                       -640.2964604585336019
  @DF-UKS Final Energy:  -640.29698282509833
    Total Energy =                       -640.2969828250983255
  @DF-UKS Final Energy:  -640.29709509707880
    Total Energy =                       -640.2970950970786816
  Basis Set: (CC-PVDZ AUX)
    Blend: CC-PVDZ-JKFIT
  Basis Set: CC-PVDZ
    Blend: CC-PVDZ
  Basis Set: (CC-PVDZ AUX)
    Blend: CC-PVDZ-JKFIT
  @DF-UKS Final Energy:  -640.29712513485777
    Total Energy =                       -640.2971251348578789
  Basis Set: CC-PVDZ
    Blend: CC-PVDZ
  Basis Set: (CC-PVDZ AUX)
    Blend: CC-PVDZ-JKFIT
  Charge       = 1
  Multiplicity = 1
  Basis Set: CC-PVDZ
    Blend: CC-PVDZ
  Basis Set: (CC-PVDZ AUX)
    Blend: CC-PVDZ-JKFIT

    Orbital Energies [Eh]
    ---------------------

    Alpha Occupied:

       1A1   -89.124624     2A1   -56.428109     3A1    -8.184529
       4A1    -6.152802     1B1    -6.140031     1B2    -6.140031
       5A1    -4.500675     6A1    -3.054684     2B1    -3.052009
       2B2    -3.052009     7A1    -0.919117     8A1    -0.608658
       3B1    -0.494241     3B2    -0.494241

    Alpha Virtual:

       9A1    -0.446812     4B1    -0.290238     4B2    -0.290238
      10A1    -0.177731    11A1    -0.059447     5B2    -0.013936
       5B1    -0.013936    12A1    -0.002776     1A2     0.009350
      13A1     0.009350     6B2     0.034509     6B1     0.034509
      14A1     0.105821     7B1     0.329399     7B2     0.329399
      15A1     0.408856     2A2     0.410222    16A1     0.410225
      17A1     0.464989     8B2     0.543111     8B1     0.543111
      18A1     0.870996

    Beta Occupied:

       1A1   -89.124624     2A1   -56.428109     3A1    -8.184529
       4A1    -6.152802     1B2    -6.140031     1B1    -6.140031
       5A1    -4.500675     6A1    -3.054684     2B1    -3.052009
       2B2    -3.052009     7A1    -0.919117     8A1    -0.608658
       3B1    -0.494241     3B2    -0.494241

    Beta Virtual:

       9A1    -0.446812     4B1    -0.290238     4B2    -0.290238
      10A1    -0.177731    11A1    -0.059447     5B2    -0.013936
       5B1    -0.013936    12A1    -0.002776     1A2     0.009350
      13A1     0.009350     6B2     0.034509     6B1     0.034509
      14A1     0.105821     7B1     0.329399     7B2     0.329399
      15A1     0.408856     2A2     0.410222    16A1     0.410225
      17A1     0.464989     8B2     0.543111     8B1     0.543111
      18A1     0.870996

    Final Occupation by Irrep:
             A1    A2    B1    B2
    DOCC [     8,    0,    3,    3 ]
    SOCC [     0,    0,    0,    0 ]
    NA   [     8,    0,    3,    3 ]
    NB   [     8,    0,    3,    3 ]

  @DF-UKS Final Energy:  -640.29712833668532

   => Energetics <=

    Nuclear Repulsion Energy =             53.8903580774544295
    One-Electron Energy =                -986.4163231534867009
    Two-Electron Energy =                 327.7105831982058248
    DFT Exchange-Correlation Energy =     -35.4817464588589289
    Empirical Dispersion Energy =           0.0000000000000000
    VV10 Nonlocal Energy =                  0.0000000000000000
    Total Energy =                       -640.2971283366853186

  UHF NO Occupations:
  HONO-2 :    8 A1 2.0000000
  HONO-1 :    2 B2 2.0000000
  HONO-0 :    3 B2 2.0000000
  LUNO+0 :    9 A1 0.0000000
  LUNO+1 :    4 B2 0.0000000
  LUNO+2 :    4 B1 0.0000000
  LUNO+3 :   10 A1 0.0000000

Computation Completed

Properties will be evaluated at   0.000000,   0.000000,   0.000000 [a0]

Properties computed using the SCF density matrix

 Multipole Moments:

 ------------------------------------------------------------------------------------
     Multipole            Electronic (a.u.)      Nuclear  (a.u.)        Total (a.u.)
 ------------------------------------------------------------------------------------

 L = 1.  Multiply by 2.5417464519 to convert [e a0] to [Debye]
 Dipole X            :          0.0000000            0.0000000            0.0000000
 Dipole Y            :          0.0000000            0.0000000            0.0000000
 Dipole Z            :          3.6738250           -1.0519506            2.6218744
 Magnitude           :                                                    2.6218744

 ------------------------------------------------------------------------------------

*** tstop() called on Joses-MacBook-Pro-2.local at Thu Jul 17 15:19:42 2025
Module time:
	user time   =       8.19 seconds =       0.14 minutes
	system time =       1.51 seconds =       0.03 minutes
	total time  =          1 seconds =       0.02 minutes
Total time:
	user time   =     161.54 seconds =       2.69 minutes
	system time =      40.57 seconds =       0.68 minutes
	total time  =         19 seconds =       0.32 minutes

*** tstart() called on Joses-MacBook-Pro-2.local
*** at Thu Jul 17 15:19:42 2025

         ------------------------------------------------------------
                                   SCF GRAD
                          Rob Parrish, Justin Turney,
                       Andy Simmonett, and Alex Sokolov
         ------------------------------------------------------------

  ==> Geometry <==

    Molecular point group: c2v
    Full point group: C_inf_v

    Geometry (in Angstrom), charge = 1, multiplicity = 1:

       Center              X                  Y                   Z               Mass
    ------------   -----------------  -----------------  -----------------  -----------------
         AL           0.000000000000     0.000000000000     1.107678605766    26.981538530000
         S            0.000000000000     0.000000000000    -0.934780634552    31.972071174400

  Nuclear repulsion =   53.890358077454430

  ==> Basis Set <==

  Basis Set: CC-PVDZ
    Blend: CC-PVDZ
    Number of shells: 16
    Number of basis functions: 36
    Number of Cartesian functions: 38
    Spherical Harmonics?: true
    Max angular momentum: 2

  ==> DFJKGrad: Density-Fitted SCF Gradients <==

    Gradient:                    1
    J tasked:                  Yes
    K tasked:                  Yes
    wK tasked:                  No
    OpenMP threads:              1
    Integrals threads:           1
    Memory [MiB]:              375
    Schwarz Cutoff:          1E-12
    Fitting Condition:       1E-10

   => Auxiliary Basis Set <=

  Basis Set: (CC-PVDZ AUX)
    Blend: CC-PVDZ-JKFIT
    Number of shells: 72
    Number of basis functions: 224
    Number of Cartesian functions: 260
    Spherical Harmonics?: true
    Max angular momentum: 3

  ==> DFT Potential <==

   => LibXC <=

    Version 6.2.2
    S. Lehtola, C. Steigemann, M. J.T. Oliveira, and M. A.L. Marques.,  SoftwareX 7, 1â€“5 (2018) (10.1016/j.softx.2017.11.002)

   => Composite Functional: B3LYP <=

    B3LYP Hyb-GGA Exchange-Correlation Functional

    P. J. Stephens, F. J. Devlin, C. F. Chabalowski, and M. J. Frisch.,  J. Phys. Chem. 98, 11623 (1994) (10.1021/j100096a001)

    Deriv               =              1
    GGA                 =           TRUE
    Meta                =          FALSE

    Exchange Hybrid     =           TRUE
    MP2 Hybrid          =          FALSE

   => Exchange Functionals <=

    0.0800   Slater exchange
    0.7200         Becke 88

   => Exact (HF) Exchange <=

    0.2000               HF

   => Correlation Functionals <=

    0.1900   Vosko, Wilk & Nusair (VWN5_RPA)
    0.8100   Lee, Yang & Parr

   => LibXC Density Thresholds  <==

    XC_HYB_GGA_XC_B3LYP:  1.00E-15

   => Molecular Quadrature <=

    Radial Scheme          =       TREUTLER
    Pruning Scheme         =           NONE
    Nuclear Scheme         =       TREUTLER

    Blocking Scheme        =         OCTREE
    BS radius alpha        =              1
    Pruning alpha          =              1
    Radial Points          =             75
    Spherical Points       =            302
    Total Points           =          42645
    Total Blocks           =            401
    Max Points             =            256
    Max Functions          =             36
    Weights Tolerance      =       1.00E-15

  -Total Gradient:
     Atom            X                  Y                   Z
    ------   -----------------  -----------------  -----------------
       1        0.000000000000    -0.000000000000    -0.000221777433
       2        0.000000000000    -0.000000000000     0.000244493180

*** tstop() called on Joses-MacBook-Pro-2.local at Thu Jul 17 15:19:43 2025
Module time:
	user time   =       2.69 seconds =       0.04 minutes
	system time =       0.82 seconds =       0.01 minutes
	total time  =          1 seconds =       0.02 minutes
Total time:
	user time   =     164.24 seconds =       2.74 minutes
	system time =      41.39 seconds =       0.69 minutes
	total time  =         20 seconds =       0.33 minutes

    			-----------------------------------------

    			 OPTKING 3.0: for geometry optimizations

    			     By R.A. King, Bethel University

    			        with contributions from

    			    A.V. Copan, J. Cayton, A. Heide

    			-----------------------------------------

	                            ===> Fragment 1 <==

	 Z (Atomic Numbers)          Masses                          Geom
	      13.000000            26.981539          0.00000000  0.00000000  2.09320920
	      16.000000            31.972071          0.00000000  0.00000000 -1.76647939

	 - Coordinate -           - BOHR/RAD -       - ANG/DEG -
	 R(1,2)           =         3.859689           2.042459

	        --- Internal Coordinate Step in ANG or DEG, aJ/ANG or AJ/DEG ---
	-------------------------------------------------------------------------------
	           Coordinate      Previous         Force          Change          New
	           ----------      --------        ------          ------        ------
	               R(1,2)       2.04246        0.00192        0.00058       2.04304
	-------------------------------------------------------------------------------

	                                 ==> Convergence Check <==

	Measures of convergence in internal coordinates in au.

	Criteria marked as inactive (o), active & met (*), and active & unmet ( ).

	----------------------------------------------------------------------------------------------
	   Step    Total Energy     Delta E     Max Force     RMS Force      Max Disp      RMS Disp
	----------------------------------------------------------------------------------------------
	  Convergence Criteria     1.00e-06 *    3.00e-04 *             o    1.20e-03 *             o
	----------------------------------------------------------------------------------------------
	    14    -640.29712834   -3.20e-06      2.33e-04 *    2.33e-04 o    1.11e-03 *    1.11e-03 o  ~
	----------------------------------------------------------------------------------------------

Next Geometry in Ang
	Fragment 1 (Ang)

	   Al   0.0000000000   0.0000000000   1.1079710516
	    S   0.0000000000   0.0000000000  -0.9350730803

    Final optimized geometry and variables:
    Molecular point group: c2v
    Full point group: C_inf_v

    Geometry (in Angstrom), charge = 1, multiplicity = 1:

    AL           0.000000000000     0.000000000000     1.107678605766
    S            0.000000000000     0.000000000000    -0.934780634552

    Psi4 stopped on: Thursday, 17 July 2025 03:19PM
    Psi4 wall time for execution: 0:00:20.02

*** Psi4 exiting successfully. Buy a developer a beer!
