                               Psi4 1.9.1 release

  ==> Input File <==

--------------------------------------------------------------------------
molecule {
1 1
Li   0.00000        0.60000        0.00000
Ne   0.00000       -0.60000        0.00000
}

set {
basis              cc-pvdz
reference          uks
maxiter            500
geom_maxiter       500
DAMPING_PERCENTAGE 1
guess              SAP
}

optimize('b3lyp')
--------------------------------------------------------------------------

    Molecular point group: c2v
  Charge       = 1
  Multiplicity = 1
  Basis Set: CC-PVDZ
    Blend: CC-PVDZ
  Basis Set: (CC-PVDZ AUX)
    Blend: CC-PVDZ-JKFIT + DEF2-UNIVERSAL-JKFIT
  @DF-UKS Final Energy:  -136.07402438832594
    Total Energy =                       -136.0740243883259382
 Dipole X            :          0.0000000            0.0000000            0.0000000
 Dipole Y            :          0.0000000            0.0000000            0.0000000
 Dipole Z            :          2.4380403           -0.8549566            1.5830836
 Magnitude           :                                                    1.5830836
    Molecular point group: c2v
  Basis Set: CC-PVDZ
    Blend: CC-PVDZ
  Basis Set: (CC-PVDZ AUX)
    Blend: CC-PVDZ-JKFIT + DEF2-UNIVERSAL-JKFIT
  Basis Set: CC-PVDZ
    Blend: CC-PVDZ
  Basis Set: (CC-PVDZ AUX)
    Blend: CC-PVDZ-JKFIT + DEF2-UNIVERSAL-JKFIT
  @DF-UKS Final Energy:  -136.16230801023954
    Total Energy =                       -136.1623080102395420
  Basis Set: CC-PVDZ
    Blend: CC-PVDZ
  Basis Set: (CC-PVDZ AUX)
    Blend: CC-PVDZ-JKFIT + DEF2-UNIVERSAL-JKFIT
  Basis Set: CC-PVDZ
    Blend: CC-PVDZ
  @DF-UKS Final Energy:  -136.18550471189161
    Total Energy =                       -136.1855047118916104
  @DF-UKS Final Energy:  -136.19985755839605
    Total Energy =                       -136.1998575583960474
  @DF-UKS Final Energy:  -136.20494460183730
    Total Energy =                       -136.2049446018372976
  @DF-UKS Final Energy:  -136.20792868530830
    Total Energy =                       -136.2079286853083033
  @DF-UKS Final Energy:  -136.20957168970494
    Total Energy =                       -136.2095716897049442
  @DF-UKS Final Energy:  -136.21011316561732
    Total Energy =                       -136.2101131656173152
  @DF-UKS Final Energy:  -136.21037433081568
    Total Energy =                       -136.2103743308156822
  @DF-UKS Final Energy:  -136.21045850279634
    Total Energy =                       -136.2104585027963424
  @DF-UKS Final Energy:  -136.21049345876986
    Total Energy =                       -136.2104934587698608
  @DF-UKS Final Energy:  -136.21050350450739
    Total Energy =                       -136.2105035045073862
  Basis Set: (CC-PVDZ AUX)
    Blend: CC-PVDZ-JKFIT + DEF2-UNIVERSAL-JKFIT
  Basis Set: CC-PVDZ
    Blend: CC-PVDZ
  Basis Set: (CC-PVDZ AUX)
    Blend: CC-PVDZ-JKFIT + DEF2-UNIVERSAL-JKFIT
  @DF-UKS Final Energy:  -136.21050522205954
    Total Energy =                       -136.2105052220595383
  Basis Set: CC-PVDZ
    Blend: CC-PVDZ
  Basis Set: (CC-PVDZ AUX)
    Blend: CC-PVDZ-JKFIT + DEF2-UNIVERSAL-JKFIT
  Charge       = 1
  Multiplicity = 1
  Basis Set: CC-PVDZ
    Blend: CC-PVDZ
  Basis Set: (CC-PVDZ AUX)
    Blend: CC-PVDZ-JKFIT + DEF2-UNIVERSAL-JKFIT

    Orbital Energies [Eh]
    ---------------------

    Alpha Occupied:

       1A1   -31.258807     2A1    -2.340130     3A1    -1.717931
       4A1    -0.833315     1B2    -0.821488     1B1    -0.821488

    Alpha Virtual:

       5A1    -0.248737     2B1    -0.182710     2B2    -0.182710
       6A1    -0.164364     3B1    -0.062938     3B2    -0.062938
       7A1    -0.060115     8A1    -0.044180     4B1     0.060534
       4B2     0.060534     9A1     0.063503     1A2     0.063508
      10A1     0.116392    11A1     1.196655     5B2     1.214454
       5B1     1.214454    12A1     2.067493    13A1     4.437037
       6B2     4.443312     6B1     4.443312    14A1     4.443847
       2A2     4.444388

    Beta Occupied:

       1A1   -31.258807     2A1    -2.340130     3A1    -1.717931
       4A1    -0.833315     1B2    -0.821488     1B1    -0.821488

    Beta Virtual:

       5A1    -0.248737     2B1    -0.182710     2B2    -0.182710
       6A1    -0.164364     3B1    -0.062938     3B2    -0.062938
       7A1    -0.060115     8A1    -0.044180     4B1     0.060534
       4B2     0.060534     9A1     0.063503     1A2     0.063508
      10A1     0.116392    11A1     1.196655     5B2     1.214454
       5B1     1.214454    12A1     2.067493    13A1     4.437037
       6B2     4.443312     6B1     4.443312    14A1     4.443847
       2A2     4.444388

    Final Occupation by Irrep:
             A1    A2    B1    B2
    DOCC [     4,    0,    1,    1 ]
    SOCC [     0,    0,    0,    0 ]
    NA   [     4,    0,    1,    1 ]
    NB   [     4,    0,    1,    1 ]

  @DF-UKS Final Energy:  -136.21050548349152

   => Energetics <=

    Nuclear Repulsion Energy =              7.8821986972091338
    One-Electron Energy =                -204.3883073784852513
    Two-Electron Energy =                  71.7514119926141234
    DFT Exchange-Correlation Energy =     -11.4558087948295277
    Empirical Dispersion Energy =           0.0000000000000000
    VV10 Nonlocal Energy =                  0.0000000000000000
    Total Energy =                       -136.2105054834915165

  UHF NO Occupations:
  HONO-2 :    4 A1 2.0000000
  HONO-1 :    1 B2 2.0000000
  HONO-0 :    1 B1 2.0000000
  LUNO+0 :    5 A1 0.0000000
  LUNO+1 :    6 A1 0.0000000
  LUNO+2 :    7 A1 0.0000000
  LUNO+3 :    2 B2 0.0000000

Computation Completed

Properties will be evaluated at   0.000000,   0.000000,   0.000000 [a0]

Properties computed using the SCF density matrix

 Multipole Moments:

 ------------------------------------------------------------------------------------
     Multipole            Electronic (a.u.)      Nuclear  (a.u.)        Total (a.u.)
 ------------------------------------------------------------------------------------

 L = 1.  Multiply by 2.5417464519 to convert [e a0] to [Debye]
 Dipole X            :          0.0000000            0.0000000            0.0000000
 Dipole Y            :          0.0000000            0.0000000            0.0000000
 Dipole Z            :          4.0858566           -1.4349536            2.6509031
 Magnitude           :                                                    2.6509031

 ------------------------------------------------------------------------------------

*** tstop() called on Joses-MacBook-Pro-2.local at Thu Jul 17 12:50:38 2025
Module time:
	user time   =       3.82 seconds =       0.06 minutes
	system time =       2.55 seconds =       0.04 minutes
	total time  =          0 seconds =       0.00 minutes
Total time:
	user time   =      47.05 seconds =       0.78 minutes
	system time =      60.30 seconds =       1.01 minutes
	total time  =         10 seconds =       0.17 minutes

*** tstart() called on Joses-MacBook-Pro-2.local
*** at Thu Jul 17 12:50:38 2025

         ------------------------------------------------------------
                                   SCF GRAD
                          Rob Parrish, Justin Turney,
                       Andy Simmonett, and Alex Sokolov
         ------------------------------------------------------------

  ==> Geometry <==

    Molecular point group: c2v
    Full point group: C_inf_v

    Geometry (in Angstrom), charge = 1, multiplicity = 1:

       Center              X                  Y                   Z               Mass
    ------------   -----------------  -----------------  -----------------  -----------------
         LI           0.000000000000     0.000000000000     1.490875080943     7.016003436600
         NE           0.000000000000     0.000000000000    -0.523196998428    19.992440176200

  Nuclear repulsion =    7.882198697209134

  ==> Basis Set <==

  Basis Set: CC-PVDZ
    Blend: CC-PVDZ
    Number of shells: 12
    Number of basis functions: 28
    Number of Cartesian functions: 30
    Spherical Harmonics?: true
    Max angular momentum: 2

  ==> DFJKGrad: Density-Fitted SCF Gradients <==

    Gradient:                    1
    J tasked:                  Yes
    K tasked:                  Yes
    wK tasked:                  No
    OpenMP threads:              1
    Integrals threads:           1
    Memory [MiB]:              375
    Schwarz Cutoff:          1E-12
    Fitting Condition:       1E-10

   => Auxiliary Basis Set <=

  Basis Set: (CC-PVDZ AUX)
    Blend: CC-PVDZ-JKFIT + DEF2-UNIVERSAL-JKFIT
    Number of shells: 41
    Number of basis functions: 121
    Number of Cartesian functions: 141
    Spherical Harmonics?: true
    Max angular momentum: 3

  ==> DFT Potential <==

   => LibXC <=

    Version 6.2.2
    S. Lehtola, C. Steigemann, M. J.T. Oliveira, and M. A.L. Marques.,  SoftwareX 7, 1â€“5 (2018) (10.1016/j.softx.2017.11.002)

   => Composite Functional: B3LYP <=

    B3LYP Hyb-GGA Exchange-Correlation Functional

    P. J. Stephens, F. J. Devlin, C. F. Chabalowski, and M. J. Frisch.,  J. Phys. Chem. 98, 11623 (1994) (10.1021/j100096a001)

    Deriv               =              1
    GGA                 =           TRUE
    Meta                =          FALSE

    Exchange Hybrid     =           TRUE
    MP2 Hybrid          =          FALSE

   => Exchange Functionals <=

    0.0800   Slater exchange
    0.7200         Becke 88

   => Exact (HF) Exchange <=

    0.2000               HF

   => Correlation Functionals <=

    0.1900   Vosko, Wilk & Nusair (VWN5_RPA)
    0.8100   Lee, Yang & Parr

   => LibXC Density Thresholds  <==

    XC_HYB_GGA_XC_B3LYP:  1.00E-15

   => Molecular Quadrature <=

    Radial Scheme          =       TREUTLER
    Pruning Scheme         =           NONE
    Nuclear Scheme         =       TREUTLER

    Blocking Scheme        =         OCTREE
    BS radius alpha        =              1
    Pruning alpha          =              1
    Radial Points          =             75
    Spherical Points       =            302
    Total Points           =          44303
    Total Blocks           =            423
    Max Points             =            254
    Max Functions          =             28
    Weights Tolerance      =       1.00E-15

  -Total Gradient:
     Atom            X                  Y                   Z
    ------   -----------------  -----------------  -----------------
       1        0.000000000000    -0.000000000000    -0.000128553285
       2        0.000000000000     0.000000000000    -0.000114853668

*** tstop() called on Joses-MacBook-Pro-2.local at Thu Jul 17 12:50:38 2025
Module time:
	user time   =       1.00 seconds =       0.02 minutes
	system time =       1.23 seconds =       0.02 minutes
	total time  =          0 seconds =       0.00 minutes
Total time:
	user time   =      48.05 seconds =       0.80 minutes
	system time =      61.54 seconds =       1.03 minutes
	total time  =         10 seconds =       0.17 minutes

    			-----------------------------------------

    			 OPTKING 3.0: for geometry optimizations

    			     By R.A. King, Bethel University

    			        with contributions from

    			    A.V. Copan, J. Cayton, A. Heide

    			-----------------------------------------

	                            ===> Fragment 1 <==

	 Z (Atomic Numbers)          Masses                          Geom
	       3.000000             7.016003          0.00000000  0.00000000  2.81734559
	      10.000000            19.992440          0.00000000  0.00000000 -0.98869904

	 - Coordinate -           - BOHR/RAD -       - ANG/DEG -
	 R(1,2)           =         3.806045           2.014072

	        --- Internal Coordinate Step in ANG or DEG, aJ/ANG or AJ/DEG ---
	-------------------------------------------------------------------------------
	           Coordinate      Previous         Force          Change          New
	           ----------      --------        ------          ------        ------
	               R(1,2)       2.01407        0.00006        0.00019       2.01427
	-------------------------------------------------------------------------------

	                                 ==> Convergence Check <==

	Measures of convergence in internal coordinates in au.

	Criteria marked as inactive (o), active & met (*), and active & unmet ( ).

	----------------------------------------------------------------------------------------------
	   Step    Total Energy     Delta E     Max Force     RMS Force      Max Disp      RMS Disp
	----------------------------------------------------------------------------------------------
	  Convergence Criteria     1.00e-06 *    3.00e-04 *             o    1.20e-03 *             o
	----------------------------------------------------------------------------------------------
	    14    -136.21050548   -2.61e-07 *    6.85e-06 *    6.85e-06 o    3.65e-04 *    3.65e-04 o  ~
	----------------------------------------------------------------------------------------------

Next Geometry in Ang
	Fragment 1 (Ang)

	   Li   0.0000000000   0.0000000000   1.4909716394
	   Ne   0.0000000000   0.0000000000  -0.5232935569

    Final optimized geometry and variables:
    Molecular point group: c2v
    Full point group: C_inf_v

    Geometry (in Angstrom), charge = 1, multiplicity = 1:

    LI           0.000000000000     0.000000000000     1.490875080943
    NE           0.000000000000     0.000000000000    -0.523196998428

    Psi4 stopped on: Thursday, 17 July 2025 12:50PM
    Psi4 wall time for execution: 0:00:11.14

*** Psi4 exiting successfully. Buy a developer a beer!
