                               Psi4 1.9.1 release

  ==> Input File <==

--------------------------------------------------------------------------
molecule {
1 1
B   0.00000        0.60000        0.00000
Ar   0.00000       -0.60000        0.00000
}

set {
basis              cc-pvdz
reference          uks
maxiter            500
geom_maxiter       500
DAMPING_PERCENTAGE 1
guess              SAP
}

optimize('b3lyp')
--------------------------------------------------------------------------

    Molecular point group: c2v
  Charge       = 1
  Multiplicity = 1
  Basis Set: CC-PVDZ
    Blend: CC-PVDZ
  Basis Set: (CC-PVDZ AUX)
    Blend: CC-PVDZ-JKFIT
  @DF-UKS Final Energy:  -551.46222138969586
    Total Energy =                       -551.4622213896958556
 Dipole X            :          0.0000000            0.0000000            0.0000000
 Dipole Y            :          0.0000000            0.0000000            0.0000000
 Dipole Z            :         -1.4287439            0.0731583           -1.3555856
 Magnitude           :                                                    1.3555856
    Molecular point group: c2v
  Basis Set: CC-PVDZ
    Blend: CC-PVDZ
  Basis Set: (CC-PVDZ AUX)
    Blend: CC-PVDZ-JKFIT
  Basis Set: CC-PVDZ
    Blend: CC-PVDZ
  Basis Set: (CC-PVDZ AUX)
    Blend: CC-PVDZ-JKFIT
  @DF-UKS Final Energy:  -551.65828434951618
    Total Energy =                       -551.6582843495161796
  Basis Set: CC-PVDZ
    Blend: CC-PVDZ
  Basis Set: (CC-PVDZ AUX)
    Blend: CC-PVDZ-JKFIT
  Basis Set: CC-PVDZ
    Blend: CC-PVDZ
  @DF-UKS Final Energy:  -551.76895601160527
    Total Energy =                       -551.7689560116052689
  @DF-UKS Final Energy:  -551.82996743618116
    Total Energy =                       -551.8299674361812777
  @DF-UKS Final Energy:  -551.86469713106089
    Total Energy =                       -551.8646971310607796
  @DF-UKS Final Energy:  -551.88405607532945
    Total Energy =                       -551.8840560753295676
  @DF-UKS Final Energy:  -551.89366372291727
    Total Energy =                       -551.8936637229173812
  @DF-UKS Final Energy:  -551.89745903063090
    Total Energy =                       -551.8974590306307846
  @DF-UKS Final Energy:  -551.89852728306937
    Total Energy =                       -551.8985272830693702
  @DF-UKS Final Energy:  -551.89868577404036
    Total Energy =                       -551.8986857740403593
  @DF-UKS Final Energy:  -551.89871583052229
    Total Energy =                       -551.8987158305222920
  Basis Set: (CC-PVDZ AUX)
    Blend: CC-PVDZ-JKFIT
  Basis Set: CC-PVDZ
    Blend: CC-PVDZ
  Basis Set: (CC-PVDZ AUX)
    Blend: CC-PVDZ-JKFIT
  @DF-UKS Final Energy:  -551.89871784404670
    Total Energy =                       -551.8987178440468142
  Basis Set: CC-PVDZ
    Blend: CC-PVDZ
  Basis Set: (CC-PVDZ AUX)
    Blend: CC-PVDZ-JKFIT
  Charge       = 1
  Multiplicity = 1
  Basis Set: CC-PVDZ
    Blend: CC-PVDZ
  Basis Set: (CC-PVDZ AUX)
    Blend: CC-PVDZ-JKFIT

    Orbital Energies [Eh]
    ---------------------

    Alpha Occupied:

       1A1  -115.378181     2A1   -11.414374     3A1    -8.966306
       1B1    -8.962993     1B2    -8.962993     4A1    -7.285189
       5A1    -1.239633     6A1    -0.765961     2B2    -0.685195
       2B1    -0.685195     7A1    -0.649283

    Alpha Virtual:

       3B2    -0.409073     3B1    -0.409073     8A1    -0.375847
       4B1     0.026300     4B2     0.026300     9A1     0.029325
      10A1     0.091725     5B2     0.302446     5B1     0.302446
      11A1     0.331147     1A2     0.389569    12A1     0.389570
       6B2     0.425099     6B1     0.425099    13A1     0.431037
      14A1     0.572587    15A1     0.573165     2A2     0.573166
       7B2     0.634683     7B1     0.634683    16A1     1.015644

    Beta Occupied:

       1A1  -115.378181     2A1   -11.414374     3A1    -8.966306
       1B1    -8.962993     1B2    -8.962993     4A1    -7.285189
       5A1    -1.239633     6A1    -0.765961     2B2    -0.685195
       2B1    -0.685195     7A1    -0.649283

    Beta Virtual:

       3B2    -0.409073     3B1    -0.409073     8A1    -0.375847
       4B1     0.026300     4B2     0.026300     9A1     0.029325
      10A1     0.091725     5B2     0.302446     5B1     0.302446
      11A1     0.331147     1A2     0.389569    12A1     0.389570
       6B2     0.425099     6B1     0.425099    13A1     0.431037
      14A1     0.572587    15A1     0.573165     2A2     0.573166
       7B2     0.634683     7B1     0.634683    16A1     1.015644

    Final Occupation by Irrep:
             A1    A2    B1    B2
    DOCC [     7,    0,    2,    2 ]
    SOCC [     0,    0,    0,    0 ]
    NA   [     7,    0,    2,    2 ]
    NB   [     7,    0,    2,    2 ]

  @DF-UKS Final Energy:  -551.89871797001695

   => Energetics <=

    Nuclear Repulsion Energy =             20.1179525227894835
    One-Electron Energy =                -794.2751335660614131
    Two-Electron Energy =                 250.0420629524479921
    DFT Exchange-Correlation Energy =     -27.7835998791930585
    Empirical Dispersion Energy =           0.0000000000000000
    VV10 Nonlocal Energy =                  0.0000000000000000
    Total Energy =                       -551.8987179700170600

  UHF NO Occupations:
  HONO-2 :    5 A1 2.0000000
  HONO-1 :    6 A1 2.0000000
  HONO-0 :    7 A1 2.0000000
  LUNO+0 :    8 A1 0.0000000
  LUNO+1 :    9 A1 0.0000000
  LUNO+2 :    3 B1 0.0000000
  LUNO+3 :   10 A1 0.0000000

Computation Completed

Properties will be evaluated at   0.000000,   0.000000,   0.000000 [a0]

Properties computed using the SCF density matrix

 Multipole Moments:

 ------------------------------------------------------------------------------------
     Multipole            Electronic (a.u.)      Nuclear  (a.u.)        Total (a.u.)
 ------------------------------------------------------------------------------------

 L = 1.  Multiply by 2.5417464519 to convert [e a0] to [Debye]
 Dipole X            :          0.0000000            0.0000000            0.0000000
 Dipole Y            :          0.0000000            0.0000000            0.0000000
 Dipole Z            :          2.1079444            0.1443252            2.2522696
 Magnitude           :                                                    2.2522696

 ------------------------------------------------------------------------------------

*** tstop() called on Joses-MacBook-Pro-2.local at Thu Jul 17 13:39:23 2025
Module time:
	user time   =       3.29 seconds =       0.05 minutes
	system time =       3.42 seconds =       0.06 minutes
	total time  =          1 seconds =       0.02 minutes
Total time:
	user time   =      53.26 seconds =       0.89 minutes
	system time =      74.46 seconds =       1.24 minutes
	total time  =         13 seconds =       0.22 minutes

*** tstart() called on Joses-MacBook-Pro-2.local
*** at Thu Jul 17 13:39:23 2025

         ------------------------------------------------------------
                                   SCF GRAD
                          Rob Parrish, Justin Turney,
                       Andy Simmonett, and Alex Sokolov
         ------------------------------------------------------------

  ==> Geometry <==

    Molecular point group: c2v
    Full point group: C_inf_v

    Geometry (in Angstrom), charge = 1, multiplicity = 1:

       Center              X                  Y                   Z               Mass
    ------------   -----------------  -----------------  -----------------  -----------------
         B            0.000000000000     0.000000000000     1.856018164216    11.009305360000
         AR           0.000000000000     0.000000000000    -0.511317622383    39.962383123700

  Nuclear repulsion =   20.117952522789484

  ==> Basis Set <==

  Basis Set: CC-PVDZ
    Blend: CC-PVDZ
    Number of shells: 14
    Number of basis functions: 32
    Number of Cartesian functions: 34
    Spherical Harmonics?: true
    Max angular momentum: 2

  ==> DFJKGrad: Density-Fitted SCF Gradients <==

    Gradient:                    1
    J tasked:                  Yes
    K tasked:                  Yes
    wK tasked:                  No
    OpenMP threads:              1
    Integrals threads:           1
    Memory [MiB]:              375
    Schwarz Cutoff:          1E-12
    Fitting Condition:       1E-10

   => Auxiliary Basis Set <=

  Basis Set: (CC-PVDZ AUX)
    Blend: CC-PVDZ-JKFIT
    Number of shells: 60
    Number of basis functions: 182
    Number of Cartesian functions: 211
    Spherical Harmonics?: true
    Max angular momentum: 3

  ==> DFT Potential <==

   => LibXC <=

    Version 6.2.2
    S. Lehtola, C. Steigemann, M. J.T. Oliveira, and M. A.L. Marques.,  SoftwareX 7, 1â€“5 (2018) (10.1016/j.softx.2017.11.002)

   => Composite Functional: B3LYP <=

    B3LYP Hyb-GGA Exchange-Correlation Functional

    P. J. Stephens, F. J. Devlin, C. F. Chabalowski, and M. J. Frisch.,  J. Phys. Chem. 98, 11623 (1994) (10.1021/j100096a001)

    Deriv               =              1
    GGA                 =           TRUE
    Meta                =          FALSE

    Exchange Hybrid     =           TRUE
    MP2 Hybrid          =          FALSE

   => Exchange Functionals <=

    0.0800   Slater exchange
    0.7200         Becke 88

   => Exact (HF) Exchange <=

    0.2000               HF

   => Correlation Functionals <=

    0.1900   Vosko, Wilk & Nusair (VWN5_RPA)
    0.8100   Lee, Yang & Parr

   => LibXC Density Thresholds  <==

    XC_HYB_GGA_XC_B3LYP:  1.00E-15

   => Molecular Quadrature <=

    Radial Scheme          =       TREUTLER
    Pruning Scheme         =           NONE
    Nuclear Scheme         =       TREUTLER

    Blocking Scheme        =         OCTREE
    BS radius alpha        =              1
    Pruning alpha          =              1
    Radial Points          =             75
    Spherical Points       =            302
    Total Points           =          42040
    Total Blocks           =            384
    Max Points             =            256
    Max Functions          =             32
    Weights Tolerance      =       1.00E-15

  -Total Gradient:
     Atom            X                  Y                   Z
    ------   -----------------  -----------------  -----------------
       1       -0.000000000000     0.000000000000    -0.000020705596
       2       -0.000000000000    -0.000000000000     0.000026244835

*** tstop() called on Joses-MacBook-Pro-2.local at Thu Jul 17 13:39:23 2025
Module time:
	user time   =       1.15 seconds =       0.02 minutes
	system time =       1.23 seconds =       0.02 minutes
	total time  =          0 seconds =       0.00 minutes
Total time:
	user time   =      54.41 seconds =       0.91 minutes
	system time =      75.69 seconds =       1.26 minutes
	total time  =         13 seconds =       0.22 minutes

    			-----------------------------------------

    			 OPTKING 3.0: for geometry optimizations

    			     By R.A. King, Bethel University

    			        with contributions from

    			    A.V. Copan, J. Cayton, A. Heide

    			-----------------------------------------

	                            ===> Fragment 1 <==

	 Z (Atomic Numbers)          Masses                          Geom
	       5.000000            11.009305          0.00000000  0.00000000  3.50736601
	      18.000000            39.962383          0.00000000  0.00000000 -0.96625027

	 - Coordinate -           - BOHR/RAD -       - ANG/DEG -
	 R(1,2)           =         4.473616           2.367336

	        --- Internal Coordinate Step in ANG or DEG, aJ/ANG or AJ/DEG ---
	-------------------------------------------------------------------------------
	           Coordinate      Previous         Force          Change          New
	           ----------      --------        ------          ------        ------
	               R(1,2)       2.36734        0.00019        0.00050       2.36783
	-------------------------------------------------------------------------------

	                                 ==> Convergence Check <==

	Measures of convergence in internal coordinates in au.

	Criteria marked as inactive (o), active & met (*), and active & unmet ( ).

	----------------------------------------------------------------------------------------------
	   Step    Total Energy     Delta E     Max Force     RMS Force      Max Disp      RMS Disp
	----------------------------------------------------------------------------------------------
	  Convergence Criteria     1.00e-06 *    3.00e-04 *             o    1.20e-03 *             o
	----------------------------------------------------------------------------------------------
	    13    -551.89871797   -1.26e-07 *    2.35e-05 *    2.35e-05 o    9.36e-04 *    9.36e-04 o  ~
	----------------------------------------------------------------------------------------------

Next Geometry in Ang
	Fragment 1 (Ang)

	    B   0.0000000000   0.0000000000   1.8562658181
	   Ar   0.0000000000   0.0000000000  -0.5115652763

    Final optimized geometry and variables:
    Molecular point group: c2v
    Full point group: C_inf_v

    Geometry (in Angstrom), charge = 1, multiplicity = 1:

    B            0.000000000000     0.000000000000     1.856018164216
    AR           0.000000000000     0.000000000000    -0.511317622383

    Psi4 stopped on: Thursday, 17 July 2025 01:39PM
    Psi4 wall time for execution: 0:00:13.61

*** Psi4 exiting successfully. Buy a developer a beer!
