                               Psi4 1.9.1 release

  ==> Input File <==

--------------------------------------------------------------------------
molecule {
1 1
B   0.00000        0.60000        0.00000
Si   0.00000       -0.60000        0.00000
}

set {
basis              cc-pvdz
reference          uks
maxiter            500
geom_maxiter       500
DAMPING_PERCENTAGE 1
guess              SAP
}

optimize('b3lyp')
--------------------------------------------------------------------------

    Molecular point group: c2v
  Charge       = 1
  Multiplicity = 1
  Basis Set: CC-PVDZ
    Blend: CC-PVDZ
  Basis Set: (CC-PVDZ AUX)
    Blend: CC-PVDZ-JKFIT
  @DF-UKS Final Energy:  -313.28001512780202
    Total Energy =                       -313.2800151278020735
 Dipole X            :          0.0000000            0.0000000            0.0000000
 Dipole Y            :          0.0000000            0.0000000            0.0000000
 Dipole Z            :          0.2383405           -0.8286114           -0.5902708
 Magnitude           :                                                    0.5902708
    Molecular point group: c2v
  Basis Set: CC-PVDZ
    Blend: CC-PVDZ
  Basis Set: (CC-PVDZ AUX)
    Blend: CC-PVDZ-JKFIT
  Basis Set: CC-PVDZ
    Blend: CC-PVDZ
  Basis Set: (CC-PVDZ AUX)
    Blend: CC-PVDZ-JKFIT
  @DF-UKS Final Energy:  -313.47815345859601
    Total Energy =                       -313.4781534585960117
  Basis Set: CC-PVDZ
    Blend: CC-PVDZ
  Basis Set: (CC-PVDZ AUX)
    Blend: CC-PVDZ-JKFIT
  Basis Set: CC-PVDZ
    Blend: CC-PVDZ
  @DF-UKS Final Energy:  -313.68087821087244
    Total Energy =                       -313.6808782108724358
  @DF-UKS Final Energy:  -313.75701525779607
    Total Energy =                       -313.7570152577960698
  @DF-UKS Final Energy:  -313.78875060757991
    Total Energy =                       -313.7887506075799138
  @DF-UKS Final Energy:  -313.79937512898260
    Total Energy =                       -313.7993751289826037
  @DF-UKS Final Energy:  -313.80163088761026
    Total Energy =                       -313.8016308876102585
  @DF-UKS Final Energy:  -313.80232694416662
    Total Energy =                       -313.8023269441666798
  @DF-UKS Final Energy:  -313.80242563029492
    Total Energy =                       -313.8024256302949198
  @DF-UKS Final Energy:  -313.80244097555942
    Total Energy =                       -313.8024409755594206
  Basis Set: (CC-PVDZ AUX)
    Blend: CC-PVDZ-JKFIT
  Basis Set: CC-PVDZ
    Blend: CC-PVDZ
  Basis Set: (CC-PVDZ AUX)
    Blend: CC-PVDZ-JKFIT
  @DF-UKS Final Energy:  -313.80244377386845
    Total Energy =                       -313.8024437738683901
  Basis Set: CC-PVDZ
    Blend: CC-PVDZ
  Basis Set: (CC-PVDZ AUX)
    Blend: CC-PVDZ-JKFIT
  Charge       = 1
  Multiplicity = 1
  Basis Set: CC-PVDZ
    Blend: CC-PVDZ
  Basis Set: (CC-PVDZ AUX)
    Blend: CC-PVDZ-JKFIT

    Orbital Energies [Eh]
    ---------------------

    Alpha Occupied:

       1A1   -66.484104     2A1    -7.152834     3A1    -5.619194
       1B1    -3.981764     4A1    -3.977789     1B2    -3.971693
       5A1    -0.787746     6A1    -0.592958     2B2    -0.460337

    Alpha Virtual:

       7A1    -0.420674     2B1    -0.415531     3B1    -0.295973
       3B2    -0.295959     8A1    -0.150900     9A1     0.009939
      10A1     0.054950     4B1     0.056772     4B2     0.063829
      11A1     0.091357     5B1     0.096822     1A2     0.100280
       5B2     0.102673    12A1     0.103007     6B1     0.145995
       6B2     0.156554    13A1     0.331056    14A1     0.438734
       2A2     0.464365    15A1     0.468264     7B1     0.631107
       7B2     0.642645    16A1     0.871344

    Beta Occupied:

       1A1   -66.484104     2A1    -7.152834     3A1    -5.619194
       1B1    -3.981764     4A1    -3.977789     1B2    -3.971693
       5A1    -0.787746     6A1    -0.592958     2B2    -0.460337

    Beta Virtual:

       7A1    -0.420674     2B1    -0.415531     3B1    -0.295973
       3B2    -0.295959     8A1    -0.150900     9A1     0.009939
      10A1     0.054950     4B1     0.056772     4B2     0.063829
      11A1     0.091357     5B1     0.096822     1A2     0.100280
       5B2     0.102673    12A1     0.103007     6B1     0.145995
       6B2     0.156554    13A1     0.331056    14A1     0.438734
       2A2     0.464365    15A1     0.468264     7B1     0.631107
       7B2     0.642645    16A1     0.871344

    Final Occupation by Irrep:
             A1    A2    B1    B2
    DOCC [     6,    0,    1,    2 ]
    SOCC [     0,    0,    0,    0 ]
    NA   [     6,    0,    1,    2 ]
    NB   [     6,    0,    1,    2 ]

  @DF-UKS Final Energy:  -313.80244393361403

   => Energetics <=

    Nuclear Repulsion Energy =             18.7120853103373364
    One-Electron Energy =                -464.8680179396617405
    Two-Electron Energy =                 152.0961612345255105
    DFT Exchange-Correlation Energy =     -19.7426725388151816
    Empirical Dispersion Energy =           0.0000000000000000
    VV10 Nonlocal Energy =                  0.0000000000000000
    Total Energy =                       -313.8024439336140290

  UHF NO Occupations:
  HONO-2 :    1 B1 2.0000000
  HONO-1 :    6 A1 2.0000000
  HONO-0 :    2 B2 2.0000000
  LUNO+0 :    7 A1 0.0000000
  LUNO+1 :    3 B2 0.0000000
  LUNO+2 :    8 A1 0.0000000
  LUNO+3 :    4 B2 0.0000000

Computation Completed

Properties will be evaluated at   0.000000,   0.000000,   0.000000 [a0]

Properties computed using the SCF density matrix

 Multipole Moments:

 ------------------------------------------------------------------------------------
     Multipole            Electronic (a.u.)      Nuclear  (a.u.)        Total (a.u.)
 ------------------------------------------------------------------------------------

 L = 1.  Multiply by 2.5417464519 to convert [e a0] to [Debye]
 Dipole X            :          0.0000000            0.0000000            0.0000000
 Dipole Y            :          0.0000000            0.0000000            0.0000000
 Dipole Z            :          1.6681381           -1.3669311            0.3012070
 Magnitude           :                                                    0.3012070

 ------------------------------------------------------------------------------------

*** tstop() called on Joses-MacBook-Pro-2.local at Thu Jul 17 13:36:04 2025
Module time:
	user time   =       2.48 seconds =       0.04 minutes
	system time =       3.87 seconds =       0.06 minutes
	total time  =          1 seconds =       0.02 minutes
Total time:
	user time   =      51.38 seconds =       0.86 minutes
	system time =      71.93 seconds =       1.20 minutes
	total time  =         13 seconds =       0.22 minutes

*** tstart() called on Joses-MacBook-Pro-2.local
*** at Thu Jul 17 13:36:04 2025

         ------------------------------------------------------------
                                   SCF GRAD
                          Rob Parrish, Justin Turney,
                       Andy Simmonett, and Alex Sokolov
         ------------------------------------------------------------

  ==> Geometry <==

    Molecular point group: c2v
    Full point group: C_inf_v

    Geometry (in Angstrom), charge = 1, multiplicity = 1:

       Center              X                  Y                   Z               Mass
    ------------   -----------------  -----------------  -----------------  -----------------
         B            0.000000000000     0.000000000000     1.420580093742    11.009305360000
         SI           0.000000000000     0.000000000000    -0.559017804224    27.976926534650

  Nuclear repulsion =   18.712085310337336

  ==> Basis Set <==

  Basis Set: CC-PVDZ
    Blend: CC-PVDZ
    Number of shells: 14
    Number of basis functions: 32
    Number of Cartesian functions: 34
    Spherical Harmonics?: true
    Max angular momentum: 2

  ==> DFJKGrad: Density-Fitted SCF Gradients <==

    Gradient:                    1
    J tasked:                  Yes
    K tasked:                  Yes
    wK tasked:                  No
    OpenMP threads:              1
    Integrals threads:           1
    Memory [MiB]:              375
    Schwarz Cutoff:          1E-12
    Fitting Condition:       1E-10

   => Auxiliary Basis Set <=

  Basis Set: (CC-PVDZ AUX)
    Blend: CC-PVDZ-JKFIT
    Number of shells: 60
    Number of basis functions: 182
    Number of Cartesian functions: 211
    Spherical Harmonics?: true
    Max angular momentum: 3

  ==> DFT Potential <==

   => LibXC <=

    Version 6.2.2
    S. Lehtola, C. Steigemann, M. J.T. Oliveira, and M. A.L. Marques.,  SoftwareX 7, 1â€“5 (2018) (10.1016/j.softx.2017.11.002)

   => Composite Functional: B3LYP <=

    B3LYP Hyb-GGA Exchange-Correlation Functional

    P. J. Stephens, F. J. Devlin, C. F. Chabalowski, and M. J. Frisch.,  J. Phys. Chem. 98, 11623 (1994) (10.1021/j100096a001)

    Deriv               =              1
    GGA                 =           TRUE
    Meta                =          FALSE

    Exchange Hybrid     =           TRUE
    MP2 Hybrid          =          FALSE

   => Exchange Functionals <=

    0.0800   Slater exchange
    0.7200         Becke 88

   => Exact (HF) Exchange <=

    0.2000               HF

   => Correlation Functionals <=

    0.1900   Vosko, Wilk & Nusair (VWN5_RPA)
    0.8100   Lee, Yang & Parr

   => LibXC Density Thresholds  <==

    XC_HYB_GGA_XC_B3LYP:  1.00E-15

   => Molecular Quadrature <=

    Radial Scheme          =       TREUTLER
    Pruning Scheme         =           NONE
    Nuclear Scheme         =       TREUTLER

    Blocking Scheme        =         OCTREE
    BS radius alpha        =              1
    Pruning alpha          =              1
    Radial Points          =             75
    Spherical Points       =            302
    Total Points           =          42131
    Total Blocks           =            387
    Max Points             =            256
    Max Functions          =             32
    Weights Tolerance      =       1.00E-15

  -Total Gradient:
     Atom            X                  Y                   Z
    ------   -----------------  -----------------  -----------------
       1        0.000000000000     0.000000000000    -0.000032159162
       2        0.000000000000     0.000000000000     0.000023307839

*** tstop() called on Joses-MacBook-Pro-2.local at Thu Jul 17 13:36:04 2025
Module time:
	user time   =       0.54 seconds =       0.01 minutes
	system time =       1.99 seconds =       0.03 minutes
	total time  =          0 seconds =       0.00 minutes
Total time:
	user time   =      51.92 seconds =       0.87 minutes
	system time =      73.92 seconds =       1.23 minutes
	total time  =         13 seconds =       0.22 minutes

    			-----------------------------------------

    			 OPTKING 3.0: for geometry optimizations

    			     By R.A. King, Bethel University

    			        with contributions from

    			    A.V. Copan, J. Cayton, A. Heide

    			-----------------------------------------

	                            ===> Fragment 1 <==

	 Z (Atomic Numbers)          Masses                          Geom
	       5.000000            11.009305          0.00000000  0.00000000  2.68450732
	      14.000000            27.976927          0.00000000  0.00000000 -1.05639055

	 - Coordinate -           - BOHR/RAD -       - ANG/DEG -
	 R(1,2)           =         3.740898           1.979598

	        --- Internal Coordinate Step in ANG or DEG, aJ/ANG or AJ/DEG ---
	-------------------------------------------------------------------------------
	           Coordinate      Previous         Force          Change          New
	           ----------      --------        ------          ------        ------
	               R(1,2)       1.97960        0.00023        0.00011       1.97971
	-------------------------------------------------------------------------------

	                                 ==> Convergence Check <==

	Measures of convergence in internal coordinates in au.

	Criteria marked as inactive (o), active & met (*), and active & unmet ( ).

	----------------------------------------------------------------------------------------------
	   Step    Total Energy     Delta E     Max Force     RMS Force      Max Disp      RMS Disp
	----------------------------------------------------------------------------------------------
	  Convergence Criteria     1.00e-06 *    3.00e-04 *             o    1.20e-03 *             o
	----------------------------------------------------------------------------------------------
	    12    -313.80244393   -1.60e-07 *    2.77e-05 *    2.77e-05 o    2.09e-04 *    2.09e-04 o  ~
	----------------------------------------------------------------------------------------------

Next Geometry in Ang
	Fragment 1 (Ang)

	    B   0.0000000000   0.0000000000   1.4206355018
	   Si   0.0000000000   0.0000000000  -0.5590732123

    Final optimized geometry and variables:
    Molecular point group: c2v
    Full point group: C_inf_v

    Geometry (in Angstrom), charge = 1, multiplicity = 1:

    B            0.000000000000     0.000000000000     1.420580093742
    SI           0.000000000000     0.000000000000    -0.559017804224

    Psi4 stopped on: Thursday, 17 July 2025 01:36PM
    Psi4 wall time for execution: 0:00:13.72

*** Psi4 exiting successfully. Buy a developer a beer!
