                               Psi4 1.9.1 release

  ==> Input File <==

--------------------------------------------------------------------------
molecule {
1 1
O   0.00000        0.60000        0.00000
Al   0.00000       -0.60000        0.00000
}

set {
basis              cc-pvdz
reference          uks
maxiter            500
geom_maxiter       500
DAMPING_PERCENTAGE 1
guess              SAP
}

optimize('b3lyp')
--------------------------------------------------------------------------

    Molecular point group: c2v
  Charge       = 1
  Multiplicity = 1
  Basis Set: CC-PVDZ
    Blend: CC-PVDZ
  Basis Set: (CC-PVDZ AUX)
    Blend: CC-PVDZ-JKFIT
  @DF-UKS Final Energy:  -316.95517848531472
    Total Energy =                       -316.9551784853147183
 Dipole X            :          0.0000000            0.0000000            0.0000000
 Dipole Y            :          0.0000000            0.0000000            0.0000000
 Dipole Z            :         -2.8784110            0.4178188           -2.4605922
 Magnitude           :                                                    2.4605922
    Molecular point group: c2v
  Basis Set: CC-PVDZ
    Blend: CC-PVDZ
  Basis Set: (CC-PVDZ AUX)
    Blend: CC-PVDZ-JKFIT
  Basis Set: CC-PVDZ
    Blend: CC-PVDZ
  Basis Set: (CC-PVDZ AUX)
    Blend: CC-PVDZ-JKFIT
  @DF-UKS Final Energy:  -317.13381248854631
    Total Energy =                       -317.1338124885463117
  Basis Set: CC-PVDZ
    Blend: CC-PVDZ
  Basis Set: (CC-PVDZ AUX)
    Blend: CC-PVDZ-JKFIT
  Basis Set: CC-PVDZ
    Blend: CC-PVDZ
  @DF-UKS Final Energy:  -317.20914677327448
    Total Energy =                       -317.2091467732744832
  @DF-UKS Final Energy:  -317.23234149941510
    Total Energy =                       -317.2323414994150426
  @DF-UKS Final Energy:  -317.24352238541184
    Total Energy =                       -317.2435223854118931
  @DF-UKS Final Energy:  -317.24648164888237
    Total Energy =                       -317.2464816488823658
  @DF-UKS Final Energy:  -317.24758358929353
    Total Energy =                       -317.2475835892934697
  @DF-UKS Final Energy:  -317.24777616324224
    Total Energy =                       -317.2477761632422926
  @DF-UKS Final Energy:  -317.24781637458369
    Total Energy =                       -317.2478163745836923
  Basis Set: (CC-PVDZ AUX)
    Blend: CC-PVDZ-JKFIT
  Basis Set: CC-PVDZ
    Blend: CC-PVDZ
  Basis Set: (CC-PVDZ AUX)
    Blend: CC-PVDZ-JKFIT
  @DF-UKS Final Energy:  -317.24782083020875
    Total Energy =                       -317.2478208302088092
  Basis Set: CC-PVDZ
    Blend: CC-PVDZ
  Basis Set: (CC-PVDZ AUX)
    Blend: CC-PVDZ-JKFIT
  Charge       = 1
  Multiplicity = 1
  Basis Set: CC-PVDZ
    Blend: CC-PVDZ
  Basis Set: (CC-PVDZ AUX)
    Blend: CC-PVDZ-JKFIT

    Orbital Energies [Eh]
    ---------------------

    Alpha Occupied:

       1A1   -56.463706     2A1   -19.422085     3A1    -4.534765
       4A1    -3.088029     1B2    -3.086479     1B1    -3.086479
       5A1    -1.169276     6A1    -0.633388     2B2    -0.561952
       2B1    -0.561952

    Alpha Virtual:

       7A1    -0.483316     3B2    -0.301806     3B1    -0.301806
       8A1    -0.200140     9A1    -0.067656     4B1    -0.009075
       4B2    -0.009075    10A1     0.002607     1A2     0.002607
      11A1     0.040128     5B2     0.072704     5B1     0.072704
      12A1     0.289335    13A1     0.814889     6B2     0.821497
       6B1     0.821497    14A1     1.573277    15A1     2.371476
       2A2     2.371514     7B1     2.404340     7B2     2.404340
      16A1     2.560435

    Beta Occupied:

       1A1   -56.463706     2A1   -19.422085     3A1    -4.534765
       4A1    -3.088029     1B2    -3.086479     1B1    -3.086479
       5A1    -1.169276     6A1    -0.633388     2B2    -0.561952
       2B1    -0.561952

    Beta Virtual:

       7A1    -0.483316     3B2    -0.301806     3B1    -0.301806
       8A1    -0.200140     9A1    -0.067656     4B1    -0.009075
       4B2    -0.009075    10A1     0.002607     1A2     0.002607
      11A1     0.040128     5B2     0.072704     5B1     0.072704
      12A1     0.289335    13A1     0.814889     6B2     0.821497
       6B1     0.821497    14A1     1.573277    15A1     2.371476
       2A2     2.371514     7B1     2.404340     7B2     2.404340
      16A1     2.560435

    Final Occupation by Irrep:
             A1    A2    B1    B2
    DOCC [     6,    0,    2,    2 ]
    SOCC [     0,    0,    0,    0 ]
    NA   [     6,    0,    2,    2 ]
    NB   [     6,    0,    2,    2 ]

  @DF-UKS Final Energy:  -317.24782098839677

   => Energetics <=

    Nuclear Repulsion Energy =             33.4443825173918441
    One-Electron Energy =                -500.6491236946678782
    Two-Electron Energy =                 171.6588329622757669
    DFT Exchange-Correlation Energy =     -21.7019127733964936
    Empirical Dispersion Energy =           0.0000000000000000
    VV10 Nonlocal Energy =                  0.0000000000000000
    Total Energy =                       -317.2478209883967679

  UHF NO Occupations:
  HONO-2 :    4 A1 2.0000000
  HONO-1 :    5 A1 2.0000000
  HONO-0 :    6 A1 2.0000000
  LUNO+0 :    7 A1 0.0000000
  LUNO+1 :    8 A1 0.0000000
  LUNO+2 :    3 B1 0.0000000
  LUNO+3 :    9 A1 0.0000000

Computation Completed

Properties will be evaluated at   0.000000,   0.000000,   0.000000 [a0]

Properties computed using the SCF density matrix

 Multipole Moments:

 ------------------------------------------------------------------------------------
     Multipole            Electronic (a.u.)      Nuclear  (a.u.)        Total (a.u.)
 ------------------------------------------------------------------------------------

 L = 1.  Multiply by 2.5417464519 to convert [e a0] to [Debye]
 Dipole X            :          0.0000000            0.0000000            0.0000000
 Dipole Y            :          0.0000000            0.0000000            0.0000000
 Dipole Z            :         -3.3165549            0.5729517           -2.7436032
 Magnitude           :                                                    2.7436032

 ------------------------------------------------------------------------------------

*** tstop() called on Joses-MacBook-Pro-2.local at Thu Jul 17 14:08:21 2025
Module time:
	user time   =       1.88 seconds =       0.03 minutes
	system time =       5.67 seconds =       0.09 minutes
	total time  =          1 seconds =       0.02 minutes
Total time:
	user time   =      41.30 seconds =       0.69 minutes
	system time =      89.67 seconds =       1.49 minutes
	total time  =         14 seconds =       0.23 minutes

*** tstart() called on Joses-MacBook-Pro-2.local
*** at Thu Jul 17 14:08:21 2025

         ------------------------------------------------------------
                                   SCF GRAD
                          Rob Parrish, Justin Turney,
                       Andy Simmonett, and Alex Sokolov
         ------------------------------------------------------------

  ==> Geometry <==

    Molecular point group: c2v
    Full point group: C_inf_v

    Geometry (in Angstrom), charge = 1, multiplicity = 1:

       Center              X                  Y                   Z               Mass
    ------------   -----------------  -----------------  -----------------  -----------------
         O            0.000000000000     0.000000000000     1.033112056910    15.994914619570
         AL           0.000000000000     0.000000000000    -0.612438728220    26.981538530000

  Nuclear repulsion =   33.444382517391844

  ==> Basis Set <==

  Basis Set: CC-PVDZ
    Blend: CC-PVDZ
    Number of shells: 14
    Number of basis functions: 32
    Number of Cartesian functions: 34
    Spherical Harmonics?: true
    Max angular momentum: 2

  ==> DFJKGrad: Density-Fitted SCF Gradients <==

    Gradient:                    1
    J tasked:                  Yes
    K tasked:                  Yes
    wK tasked:                  No
    OpenMP threads:              1
    Integrals threads:           1
    Memory [MiB]:              375
    Schwarz Cutoff:          1E-12
    Fitting Condition:       1E-10

   => Auxiliary Basis Set <=

  Basis Set: (CC-PVDZ AUX)
    Blend: CC-PVDZ-JKFIT
    Number of shells: 60
    Number of basis functions: 182
    Number of Cartesian functions: 211
    Spherical Harmonics?: true
    Max angular momentum: 3

  ==> DFT Potential <==

   => LibXC <=

    Version 6.2.2
    S. Lehtola, C. Steigemann, M. J.T. Oliveira, and M. A.L. Marques.,  SoftwareX 7, 1â€“5 (2018) (10.1016/j.softx.2017.11.002)

   => Composite Functional: B3LYP <=

    B3LYP Hyb-GGA Exchange-Correlation Functional

    P. J. Stephens, F. J. Devlin, C. F. Chabalowski, and M. J. Frisch.,  J. Phys. Chem. 98, 11623 (1994) (10.1021/j100096a001)

    Deriv               =              1
    GGA                 =           TRUE
    Meta                =          FALSE

    Exchange Hybrid     =           TRUE
    MP2 Hybrid          =          FALSE

   => Exchange Functionals <=

    0.0800   Slater exchange
    0.7200         Becke 88

   => Exact (HF) Exchange <=

    0.2000               HF

   => Correlation Functionals <=

    0.1900   Vosko, Wilk & Nusair (VWN5_RPA)
    0.8100   Lee, Yang & Parr

   => LibXC Density Thresholds  <==

    XC_HYB_GGA_XC_B3LYP:  1.00E-15

   => Molecular Quadrature <=

    Radial Scheme          =       TREUTLER
    Pruning Scheme         =           NONE
    Nuclear Scheme         =       TREUTLER

    Blocking Scheme        =         OCTREE
    BS radius alpha        =              1
    Pruning alpha          =              1
    Radial Points          =             75
    Spherical Points       =            302
    Total Points           =          43425
    Total Blocks           =            404
    Max Points             =            256
    Max Functions          =             32
    Weights Tolerance      =       1.00E-15

  -Total Gradient:
     Atom            X                  Y                   Z
    ------   -----------------  -----------------  -----------------
       1        0.000000000000    -0.000000000000    -0.000069725981
       2       -0.000000000000     0.000000000000     0.000015936825

*** tstop() called on Joses-MacBook-Pro-2.local at Thu Jul 17 14:08:21 2025
Module time:
	user time   =       0.94 seconds =       0.02 minutes
	system time =       1.96 seconds =       0.03 minutes
	total time  =          0 seconds =       0.00 minutes
Total time:
	user time   =      42.24 seconds =       0.70 minutes
	system time =      91.63 seconds =       1.53 minutes
	total time  =         14 seconds =       0.23 minutes

    			-----------------------------------------

    			 OPTKING 3.0: for geometry optimizations

    			     By R.A. King, Bethel University

    			        with contributions from

    			    A.V. Copan, J. Cayton, A. Heide

    			-----------------------------------------

	                            ===> Fragment 1 <==

	 Z (Atomic Numbers)          Masses                          Geom
	       8.000000            15.994915          0.00000000  0.00000000  1.95229884
	      13.000000            26.981539          0.00000000  0.00000000 -1.15734146

	 - Coordinate -           - BOHR/RAD -       - ANG/DEG -
	 R(1,2)           =         3.109640           1.645551

	        --- Internal Coordinate Step in ANG or DEG, aJ/ANG or AJ/DEG ---
	-------------------------------------------------------------------------------
	           Coordinate      Previous         Force          Change          New
	           ----------      --------        ------          ------        ------
	               R(1,2)       1.64555        0.00035        0.00006       1.64562
	-------------------------------------------------------------------------------

	                                 ==> Convergence Check <==

	Measures of convergence in internal coordinates in au.

	Criteria marked as inactive (o), active & met (*), and active & unmet ( ).

	----------------------------------------------------------------------------------------------
	   Step    Total Energy     Delta E     Max Force     RMS Force      Max Disp      RMS Disp
	----------------------------------------------------------------------------------------------
	  Convergence Criteria     1.00e-06 *    3.00e-04 *             o    1.20e-03 *             o
	----------------------------------------------------------------------------------------------
	    11    -317.24782099   -1.58e-07 *    4.28e-05 *    4.28e-05 o    1.22e-04 *    1.22e-04 o  ~
	----------------------------------------------------------------------------------------------

Next Geometry in Ang
	Fragment 1 (Ang)

	    O   0.0000000000   0.0000000000   1.0331443747
	   Al   0.0000000000   0.0000000000  -0.6124710460

    Final optimized geometry and variables:
    Molecular point group: c2v
    Full point group: C_inf_v

    Geometry (in Angstrom), charge = 1, multiplicity = 1:

    O            0.000000000000     0.000000000000     1.033112056910
    AL           0.000000000000     0.000000000000    -0.612438728220

    Psi4 stopped on: Thursday, 17 July 2025 02:08PM
    Psi4 wall time for execution: 0:00:14.89

*** Psi4 exiting successfully. Buy a developer a beer!
