                               Psi4 1.9.1 release

  ==> Input File <==

--------------------------------------------------------------------------
molecule {
1 1
Mg   0.00000        0.60000        0.00000
Cl   0.00000       -0.60000        0.00000
}

set {
basis              cc-pvdz
reference          uks
maxiter            500
geom_maxiter       500
DAMPING_PERCENTAGE 1
guess              SAP
}

optimize('b3lyp')
--------------------------------------------------------------------------

    Molecular point group: c2v
  Charge       = 1
  Multiplicity = 1
  Basis Set: CC-PVDZ
    Blend: CC-PVDZ
  Basis Set: (CC-PVDZ AUX)
    Blend: CC-PVDZ-JKFIT + DEF2-UNIVERSAL-JKFIT
  @DF-UKS Final Energy:  -658.95148310480226
    Total Energy =                       -658.9514831048021506
 Dipole X            :          0.0000000            0.0000000            0.0000000
 Dipole Y            :          0.0000000            0.0000000            0.0000000
 Dipole Z            :          1.5586921            0.4569863            2.0156784
 Magnitude           :                                                    2.0156784
    Molecular point group: c2v
  Basis Set: CC-PVDZ
    Blend: CC-PVDZ
  Basis Set: (CC-PVDZ AUX)
    Blend: CC-PVDZ-JKFIT + DEF2-UNIVERSAL-JKFIT
  Basis Set: CC-PVDZ
    Blend: CC-PVDZ
  Basis Set: (CC-PVDZ AUX)
    Blend: CC-PVDZ-JKFIT + DEF2-UNIVERSAL-JKFIT
  @DF-UKS Final Energy:  -658.97523491354821
    Total Energy =                       -658.9752349135482064
  Basis Set: CC-PVDZ
    Blend: CC-PVDZ
  Basis Set: (CC-PVDZ AUX)
    Blend: CC-PVDZ-JKFIT + DEF2-UNIVERSAL-JKFIT
  Basis Set: CC-PVDZ
    Blend: CC-PVDZ
  @DF-UKS Final Energy:  -659.02069729269283
    Total Energy =                       -659.0206972926929438
  @DF-UKS Final Energy:  -659.18133497293013
    Total Energy =                       -659.1813349729301308
  @DF-UKS Final Energy:  -659.75000482943301
    Total Energy =                       -659.7500048294330099
  @DF-UKS Final Energy:  -659.93334149234545
    Total Energy =                       -659.9333414923454484
  @DF-UKS Final Energy:  -660.01960821838782
    Total Energy =                       -660.0196082183878161
  @DF-UKS Final Energy:  -660.05601027792125
    Total Energy =                       -660.0560102779212457
  @DF-UKS Final Energy:  -660.06836301538794
    Total Energy =                       -660.0683630153879449
  @DF-UKS Final Energy:  -660.07075877351940
    Total Energy =                       -660.0707587735192874
  @DF-UKS Final Energy:  -660.07138216934811
    Total Energy =                       -660.0713821693481123
  @DF-UKS Final Energy:  -660.07144987638458
    Total Energy =                       -660.0714498763845768
  Basis Set: (CC-PVDZ AUX)
    Blend: CC-PVDZ-JKFIT + DEF2-UNIVERSAL-JKFIT
  Basis Set: CC-PVDZ
    Blend: CC-PVDZ
  Basis Set: (CC-PVDZ AUX)
    Blend: CC-PVDZ-JKFIT + DEF2-UNIVERSAL-JKFIT
  @DF-UKS Final Energy:  -660.07145765544078
    Total Energy =                       -660.0714576554407813
  Basis Set: CC-PVDZ
    Blend: CC-PVDZ
  Basis Set: (CC-PVDZ AUX)
    Blend: CC-PVDZ-JKFIT + DEF2-UNIVERSAL-JKFIT
  Charge       = 1
  Multiplicity = 1
  Basis Set: CC-PVDZ
    Blend: CC-PVDZ
  Basis Set: (CC-PVDZ AUX)
    Blend: CC-PVDZ-JKFIT + DEF2-UNIVERSAL-JKFIT

    Orbital Energies [Eh]
    ---------------------

    Alpha Occupied:

       1A1  -101.709783     2A1   -47.192303     3A1    -9.628215
       4A1    -7.388065     1B2    -7.382286     1B1    -7.382286
       5A1    -3.465624     2B2    -2.209400     2B1    -2.209400
       6A1    -2.208041     7A1    -0.977264     8A1    -0.553199
       3B1    -0.499927     3B2    -0.499927

    Alpha Virtual:

       9A1    -0.370855     4B1    -0.231211     4B2    -0.231211
      10A1    -0.162931    11A1    -0.084016     5B2    -0.035731
       5B1    -0.035731    12A1    -0.003344    13A1     0.060802
       1A2     0.060803     6B1     0.069909     6B2     0.069909
      14A1     0.178237     7B2     0.427569     7B1     0.427569
      15A1     0.474304    16A1     0.574441     2A2     0.574449
      17A1     0.592185     8B1     0.674085     8B2     0.674085
      18A1     1.072991

    Beta Occupied:

       1A1  -101.709783     2A1   -47.192303     3A1    -9.628215
       4A1    -7.388065     1B2    -7.382286     1B1    -7.382286
       5A1    -3.465624     2B2    -2.209400     2B1    -2.209400
       6A1    -2.208041     7A1    -0.977264     8A1    -0.553199
       3B1    -0.499927     3B2    -0.499927

    Beta Virtual:

       9A1    -0.370855     4B1    -0.231211     4B2    -0.231211
      10A1    -0.162931    11A1    -0.084016     5B2    -0.035731
       5B1    -0.035731    12A1    -0.003344    13A1     0.060802
       1A2     0.060803     6B1     0.069909     6B2     0.069909
      14A1     0.178237     7B2     0.427569     7B1     0.427569
      15A1     0.474304    16A1     0.574441     2A2     0.574449
      17A1     0.592185     8B1     0.674085     8B2     0.674085
      18A1     1.072991

    Final Occupation by Irrep:
             A1    A2    B1    B2
    DOCC [     8,    0,    3,    3 ]
    SOCC [     0,    0,    0,    0 ]
    NA   [     8,    0,    3,    3 ]
    NB   [     8,    0,    3,    3 ]

  @DF-UKS Final Energy:  -660.07145864020447

   => Energetics <=

    Nuclear Repulsion Energy =             50.4194029155878596
    One-Electron Energy =               -1008.8098045372707929
    Two-Electron Energy =                 334.2287286813246396
    DFT Exchange-Correlation Energy =     -35.9097856998462177
    Empirical Dispersion Energy =           0.0000000000000000
    VV10 Nonlocal Energy =                  0.0000000000000000
    Total Energy =                       -660.0714586402045825

  UHF NO Occupations:
  HONO-2 :    6 A1 2.0000000
  HONO-1 :    7 A1 2.0000000
  HONO-0 :    8 A1 2.0000000
  LUNO+0 :    9 A1 0.0000000
  LUNO+1 :   10 A1 0.0000000
  LUNO+2 :   11 A1 0.0000000
  LUNO+3 :   12 A1 0.0000000

Computation Completed

Properties will be evaluated at   0.000000,   0.000000,   0.000000 [a0]

Properties computed using the SCF density matrix

 Multipole Moments:

 ------------------------------------------------------------------------------------
     Multipole            Electronic (a.u.)      Nuclear  (a.u.)        Total (a.u.)
 ------------------------------------------------------------------------------------

 L = 1.  Multiply by 2.5417464519 to convert [e a0] to [Debye]
 Dipole X            :          0.0000000            0.0000000            0.0000000
 Dipole Y            :          0.0000000            0.0000000            0.0000000
 Dipole Z            :          3.1629246            0.8153715            3.9782961
 Magnitude           :                                                    3.9782961

 ------------------------------------------------------------------------------------

*** tstop() called on Joses-MacBook-Pro-2.local at Thu Jul 17 15:10:21 2025
Module time:
	user time   =       6.64 seconds =       0.11 minutes
	system time =       2.00 seconds =       0.03 minutes
	total time  =          1 seconds =       0.02 minutes
Total time:
	user time   =     162.11 seconds =       2.70 minutes
	system time =      48.36 seconds =       0.81 minutes
	total time  =         20 seconds =       0.33 minutes

*** tstart() called on Joses-MacBook-Pro-2.local
*** at Thu Jul 17 15:10:21 2025

         ------------------------------------------------------------
                                   SCF GRAD
                          Rob Parrish, Justin Turney,
                       Andy Simmonett, and Alex Sokolov
         ------------------------------------------------------------

  ==> Geometry <==

    Molecular point group: c2v
    Full point group: C_inf_v

    Geometry (in Angstrom), charge = 1, multiplicity = 1:

       Center              X                  Y                   Z               Mass
    ------------   -----------------  -----------------  -----------------  -----------------
         MG           0.000000000000     0.000000000000     1.269996389627    23.985041697000
         CL           0.000000000000     0.000000000000    -0.871087096773    34.968852682000

  Nuclear repulsion =   50.419402915587860

  ==> Basis Set <==

  Basis Set: CC-PVDZ
    Blend: CC-PVDZ
    Number of shells: 16
    Number of basis functions: 36
    Number of Cartesian functions: 38
    Spherical Harmonics?: true
    Max angular momentum: 2

  ==> DFJKGrad: Density-Fitted SCF Gradients <==

    Gradient:                    1
    J tasked:                  Yes
    K tasked:                  Yes
    wK tasked:                  No
    OpenMP threads:              1
    Integrals threads:           1
    Memory [MiB]:              375
    Schwarz Cutoff:          1E-12
    Fitting Condition:       1E-10

   => Auxiliary Basis Set <=

  Basis Set: (CC-PVDZ AUX)
    Blend: CC-PVDZ-JKFIT + DEF2-UNIVERSAL-JKFIT
    Number of shells: 70
    Number of basis functions: 224
    Number of Cartesian functions: 267
    Spherical Harmonics?: true
    Max angular momentum: 4

  ==> DFT Potential <==

   => LibXC <=

    Version 6.2.2
    S. Lehtola, C. Steigemann, M. J.T. Oliveira, and M. A.L. Marques.,  SoftwareX 7, 1â€“5 (2018) (10.1016/j.softx.2017.11.002)

   => Composite Functional: B3LYP <=

    B3LYP Hyb-GGA Exchange-Correlation Functional

    P. J. Stephens, F. J. Devlin, C. F. Chabalowski, and M. J. Frisch.,  J. Phys. Chem. 98, 11623 (1994) (10.1021/j100096a001)

    Deriv               =              1
    GGA                 =           TRUE
    Meta                =          FALSE

    Exchange Hybrid     =           TRUE
    MP2 Hybrid          =          FALSE

   => Exchange Functionals <=

    0.0800   Slater exchange
    0.7200         Becke 88

   => Exact (HF) Exchange <=

    0.2000               HF

   => Correlation Functionals <=

    0.1900   Vosko, Wilk & Nusair (VWN5_RPA)
    0.8100   Lee, Yang & Parr

   => LibXC Density Thresholds  <==

    XC_HYB_GGA_XC_B3LYP:  1.00E-15

   => Molecular Quadrature <=

    Radial Scheme          =       TREUTLER
    Pruning Scheme         =           NONE
    Nuclear Scheme         =       TREUTLER

    Blocking Scheme        =         OCTREE
    BS radius alpha        =              1
    Pruning alpha          =              1
    Radial Points          =             75
    Spherical Points       =            302
    Total Points           =          43000
    Total Blocks           =            420
    Max Points             =            252
    Max Functions          =             36
    Weights Tolerance      =       1.00E-15

  -Total Gradient:
     Atom            X                  Y                   Z
    ------   -----------------  -----------------  -----------------
       1        0.000000000000    -0.000000000000    -0.000084753068
       2        0.000000000000     0.000000000000     0.000124941392

*** tstop() called on Joses-MacBook-Pro-2.local at Thu Jul 17 15:10:21 2025
Module time:
	user time   =       4.96 seconds =       0.08 minutes
	system time =       1.23 seconds =       0.02 minutes
	total time  =          0 seconds =       0.00 minutes
Total time:
	user time   =     167.11 seconds =       2.79 minutes
	system time =      49.59 seconds =       0.83 minutes
	total time  =         20 seconds =       0.33 minutes

    			-----------------------------------------

    			 OPTKING 3.0: for geometry optimizations

    			     By R.A. King, Bethel University

    			        with contributions from

    			    A.V. Copan, J. Cayton, A. Heide

    			-----------------------------------------

	                            ===> Fragment 1 <==

	 Z (Atomic Numbers)          Masses                          Geom
	      12.000000            23.985042          0.00000000  0.00000000  2.39994536
	      17.000000            34.968853          0.00000000  0.00000000 -1.64611604

	 - Coordinate -           - BOHR/RAD -       - ANG/DEG -
	 R(1,2)           =         4.046061           2.141083

	        --- Internal Coordinate Step in ANG or DEG, aJ/ANG or AJ/DEG ---
	-------------------------------------------------------------------------------
	           Coordinate      Previous         Force          Change          New
	           ----------      --------        ------          ------        ------
	               R(1,2)       2.14108        0.00086        0.00032       2.14141
	-------------------------------------------------------------------------------

	                                 ==> Convergence Check <==

	Measures of convergence in internal coordinates in au.

	Criteria marked as inactive (o), active & met (*), and active & unmet ( ).

	----------------------------------------------------------------------------------------------
	   Step    Total Energy     Delta E     Max Force     RMS Force      Max Disp      RMS Disp
	----------------------------------------------------------------------------------------------
	  Convergence Criteria     1.00e-06 *    3.00e-04 *             o    1.20e-03 *             o
	----------------------------------------------------------------------------------------------
	    14    -660.07145864   -9.85e-07 *    1.05e-04 *    1.05e-04 o    6.14e-04 *    6.14e-04 o  ~
	----------------------------------------------------------------------------------------------

Next Geometry in Ang
	Fragment 1 (Ang)

	   Mg   0.0000000000   0.0000000000   1.2701587268
	   Cl   0.0000000000   0.0000000000  -0.8712494340

    Final optimized geometry and variables:
    Molecular point group: c2v
    Full point group: C_inf_v

    Geometry (in Angstrom), charge = 1, multiplicity = 1:

    MG           0.000000000000     0.000000000000     1.269996389627
    CL           0.000000000000     0.000000000000    -0.871087096773

    Psi4 stopped on: Thursday, 17 July 2025 03:10PM
    Psi4 wall time for execution: 0:00:21.38

*** Psi4 exiting successfully. Buy a developer a beer!
