                               Psi4 1.9.1 release

  ==> Input File <==

--------------------------------------------------------------------------
molecule {
1 1
N   0.00000        0.60000        0.00000
Mg   0.00000       -0.60000        0.00000
}

set {
basis              cc-pvdz
reference          uks
maxiter            500
geom_maxiter       500
DAMPING_PERCENTAGE 1
guess              SAP
}

optimize('b3lyp')
--------------------------------------------------------------------------

    Molecular point group: c2v
  Charge       = 1
  Multiplicity = 1
  Basis Set: CC-PVDZ
    Blend: CC-PVDZ
  Basis Set: (CC-PVDZ AUX)
    Blend: CC-PVDZ-JKFIT + DEF2-UNIVERSAL-JKFIT
  @DF-UKS Final Energy:  -253.95196566102180
    Total Energy =                       -253.9519656610218021
 Dipole X            :          0.0000000            0.0000000            0.0000000
 Dipole Y            :          0.0000000            0.0000000            0.0000000
 Dipole Z            :         -2.1917794           -0.0084525           -2.2002319
 Magnitude           :                                                    2.2002319
    Molecular point group: c2v
  Basis Set: CC-PVDZ
    Blend: CC-PVDZ
  Basis Set: (CC-PVDZ AUX)
    Blend: CC-PVDZ-JKFIT + DEF2-UNIVERSAL-JKFIT
  Basis Set: CC-PVDZ
    Blend: CC-PVDZ
  Basis Set: (CC-PVDZ AUX)
    Blend: CC-PVDZ-JKFIT + DEF2-UNIVERSAL-JKFIT
  @DF-UKS Final Energy:  -254.09556387502192
    Total Energy =                       -254.0955638750219236
  Basis Set: CC-PVDZ
    Blend: CC-PVDZ
  Basis Set: (CC-PVDZ AUX)
    Blend: CC-PVDZ-JKFIT + DEF2-UNIVERSAL-JKFIT
  Basis Set: CC-PVDZ
    Blend: CC-PVDZ
  @DF-UKS Final Energy:  -254.19641477524340
    Total Energy =                       -254.1964147752433973
  @DF-UKS Final Energy:  -254.23898529179388
    Total Energy =                       -254.2389852917938811
  @DF-UKS Final Energy:  -254.25579196115146
    Total Energy =                       -254.2557919611514592
  @DF-UKS Final Energy:  -254.26241720154334
    Total Energy =                       -254.2624172015433430
  @DF-UKS Final Energy:  -254.26401423305211
    Total Energy =                       -254.2640142330521087
  @DF-UKS Final Energy:  -254.26452105313587
    Total Energy =                       -254.2645210531358657
  @DF-UKS Final Energy:  -254.26459863363226
    Total Energy =                       -254.2645986336322608
  Basis Set: (CC-PVDZ AUX)
    Blend: CC-PVDZ-JKFIT + DEF2-UNIVERSAL-JKFIT
  Basis Set: CC-PVDZ
    Blend: CC-PVDZ
  Basis Set: (CC-PVDZ AUX)
    Blend: CC-PVDZ-JKFIT + DEF2-UNIVERSAL-JKFIT
  @DF-UKS Final Energy:  -254.26461224466613
    Total Energy =                       -254.2646122446661252
  Basis Set: CC-PVDZ
    Blend: CC-PVDZ
  Basis Set: (CC-PVDZ AUX)
    Blend: CC-PVDZ-JKFIT + DEF2-UNIVERSAL-JKFIT
  Charge       = 1
  Multiplicity = 1
  Basis Set: CC-PVDZ
    Blend: CC-PVDZ
  Basis Set: (CC-PVDZ AUX)
    Blend: CC-PVDZ-JKFIT + DEF2-UNIVERSAL-JKFIT

    Orbital Energies [Eh]
    ---------------------

    Alpha Occupied:

       1A1   -47.234398     2A1   -14.581721     3A1    -3.503696
       4A1    -2.250736     1B1    -2.246527     1B2    -2.246527
       5A1    -0.914002     2B2    -0.454411     2B1    -0.454411

    Alpha Virtual:

       6A1    -0.438896     7A1    -0.351283     3B2    -0.222233
       3B1    -0.222233     8A1    -0.147825     9A1    -0.085371
       4B2    -0.035703     4B1    -0.035703    10A1     0.020656
       1A2     0.058337    11A1     0.058338     5B2     0.128212
       5B1     0.128212    12A1     0.349606     6B2     0.626069
       6B1     0.626069    13A1     0.650003    14A1     1.204384
      15A1     1.603609     2A2     1.603625     7B2     1.662661
       7B1     1.662661    16A1     1.798181

    Beta Occupied:

       1A1   -47.234398     2A1   -14.581721     3A1    -3.503696
       4A1    -2.250736     1B1    -2.246527     1B2    -2.246527
       5A1    -0.914002     2B2    -0.454411     2B1    -0.454411

    Beta Virtual:

       6A1    -0.438896     7A1    -0.351283     3B2    -0.222233
       3B1    -0.222233     8A1    -0.147825     9A1    -0.085371
       4B2    -0.035703     4B1    -0.035703    10A1     0.020656
       1A2     0.058337    11A1     0.058338     5B2     0.128212
       5B1     0.128212    12A1     0.349606     6B2     0.626069
       6B1     0.626069    13A1     0.650003    14A1     1.204384
      15A1     1.603609     2A2     1.603625     7B2     1.662661
       7B1     1.662661    16A1     1.798181

    Final Occupation by Irrep:
             A1    A2    B1    B2
    DOCC [     5,    0,    2,    2 ]
    SOCC [     0,    0,    0,    0 ]
    NA   [     5,    0,    2,    2 ]
    NB   [     5,    0,    2,    2 ]

  @DF-UKS Final Energy:  -254.26461323074807

   => Energetics <=

    Nuclear Repulsion Energy =             25.1291994196731743
    One-Electron Energy =                -397.6780361923440523
    Two-Electron Energy =                 136.9128006449620329
    DFT Exchange-Correlation Energy =     -18.6285771030392198
    Empirical Dispersion Energy =           0.0000000000000000
    VV10 Nonlocal Energy =                  0.0000000000000000
    Total Energy =                       -254.2646132307480684

  UHF NO Occupations:
  HONO-2 :    4 A1 2.0000000
  HONO-1 :    2 B1 2.0000000
  HONO-0 :    5 A1 2.0000000
  LUNO+0 :    6 A1 0.0000000
  LUNO+1 :    3 B2 0.0000000
  LUNO+2 :    7 A1 0.0000000
  LUNO+3 :    4 B2 0.0000000

Computation Completed

Properties will be evaluated at   0.000000,   0.000000,   0.000000 [a0]

Properties computed using the SCF density matrix

 Multipole Moments:

 ------------------------------------------------------------------------------------
     Multipole            Electronic (a.u.)      Nuclear  (a.u.)        Total (a.u.)
 ------------------------------------------------------------------------------------

 L = 1.  Multiply by 2.5417464519 to convert [e a0] to [Debye]
 Dipole X            :          0.0000000            0.0000000            0.0000000
 Dipole Y            :          0.0000000            0.0000000            0.0000000
 Dipole Z            :         -2.8249353           -0.0124596           -2.8373949
 Magnitude           :                                                    2.8373949

 ------------------------------------------------------------------------------------

*** tstop() called on Joses-MacBook-Pro-2.local at Thu Jul 17 13:54:02 2025
Module time:
	user time   =       1.97 seconds =       0.03 minutes
	system time =       5.06 seconds =       0.08 minutes
	total time  =          1 seconds =       0.02 minutes
Total time:
	user time   =      34.56 seconds =       0.58 minutes
	system time =      85.80 seconds =       1.43 minutes
	total time  =         13 seconds =       0.22 minutes

*** tstart() called on Joses-MacBook-Pro-2.local
*** at Thu Jul 17 13:54:02 2025

         ------------------------------------------------------------
                                   SCF GRAD
                          Rob Parrish, Justin Turney,
                       Andy Simmonett, and Alex Sokolov
         ------------------------------------------------------------

  ==> Geometry <==

    Molecular point group: c2v
    Full point group: C_inf_v

    Geometry (in Angstrom), charge = 1, multiplicity = 1:

       Center              X                  Y                   Z               Mass
    ------------   -----------------  -----------------  -----------------  -----------------
         N            0.000000000000     0.000000000000     1.116849082449    14.003074004430
         MG           0.000000000000     0.000000000000    -0.652044743173    23.985041697000

  Nuclear repulsion =   25.129199419673174

  ==> Basis Set <==

  Basis Set: CC-PVDZ
    Blend: CC-PVDZ
    Number of shells: 14
    Number of basis functions: 32
    Number of Cartesian functions: 34
    Spherical Harmonics?: true
    Max angular momentum: 2

  ==> DFJKGrad: Density-Fitted SCF Gradients <==

    Gradient:                    1
    J tasked:                  Yes
    K tasked:                  Yes
    wK tasked:                  No
    OpenMP threads:              1
    Integrals threads:           1
    Memory [MiB]:              375
    Schwarz Cutoff:          1E-12
    Fitting Condition:       1E-10

   => Auxiliary Basis Set <=

  Basis Set: (CC-PVDZ AUX)
    Blend: CC-PVDZ-JKFIT + DEF2-UNIVERSAL-JKFIT
    Number of shells: 58
    Number of basis functions: 182
    Number of Cartesian functions: 218
    Spherical Harmonics?: true
    Max angular momentum: 4

  ==> DFT Potential <==

   => LibXC <=

    Version 6.2.2
    S. Lehtola, C. Steigemann, M. J.T. Oliveira, and M. A.L. Marques.,  SoftwareX 7, 1â€“5 (2018) (10.1016/j.softx.2017.11.002)

   => Composite Functional: B3LYP <=

    B3LYP Hyb-GGA Exchange-Correlation Functional

    P. J. Stephens, F. J. Devlin, C. F. Chabalowski, and M. J. Frisch.,  J. Phys. Chem. 98, 11623 (1994) (10.1021/j100096a001)

    Deriv               =              1
    GGA                 =           TRUE
    Meta                =          FALSE

    Exchange Hybrid     =           TRUE
    MP2 Hybrid          =          FALSE

   => Exchange Functionals <=

    0.0800   Slater exchange
    0.7200         Becke 88

   => Exact (HF) Exchange <=

    0.2000               HF

   => Correlation Functionals <=

    0.1900   Vosko, Wilk & Nusair (VWN5_RPA)
    0.8100   Lee, Yang & Parr

   => LibXC Density Thresholds  <==

    XC_HYB_GGA_XC_B3LYP:  1.00E-15

   => Molecular Quadrature <=

    Radial Scheme          =       TREUTLER
    Pruning Scheme         =           NONE
    Nuclear Scheme         =       TREUTLER

    Blocking Scheme        =         OCTREE
    BS radius alpha        =              1
    Pruning alpha          =              1
    Radial Points          =             75
    Spherical Points       =            302
    Total Points           =          43411
    Total Blocks           =            412
    Max Points             =            254
    Max Functions          =             32
    Weights Tolerance      =       1.00E-15

  -Total Gradient:
     Atom            X                  Y                   Z
    ------   -----------------  -----------------  -----------------
       1        0.000000000000    -0.000000000000    -0.000078610222
       2       -0.000000000000    -0.000000000000     0.000118687107

*** tstop() called on Joses-MacBook-Pro-2.local at Thu Jul 17 13:54:02 2025
Module time:
	user time   =       0.83 seconds =       0.01 minutes
	system time =       2.37 seconds =       0.04 minutes
	total time  =          0 seconds =       0.00 minutes
Total time:
	user time   =      35.39 seconds =       0.59 minutes
	system time =      88.18 seconds =       1.47 minutes
	total time  =         13 seconds =       0.22 minutes

    			-----------------------------------------

    			 OPTKING 3.0: for geometry optimizations

    			     By R.A. King, Bethel University

    			        with contributions from

    			    A.V. Copan, J. Cayton, A. Heide

    			-----------------------------------------

	                            ===> Fragment 1 <==

	 Z (Atomic Numbers)          Masses                          Geom
	       7.000000            14.003074          0.00000000  0.00000000  2.11053889
	      12.000000            23.985042          0.00000000  0.00000000 -1.23218599

	 - Coordinate -           - BOHR/RAD -       - ANG/DEG -
	 R(1,2)           =         3.342725           1.768894

	        --- Internal Coordinate Step in ANG or DEG, aJ/ANG or AJ/DEG ---
	-------------------------------------------------------------------------------
	           Coordinate      Previous         Force          Change          New
	           ----------      --------        ------          ------        ------
	               R(1,2)       1.76889        0.00081        0.00023       1.76913
	-------------------------------------------------------------------------------

	                                 ==> Convergence Check <==

	Measures of convergence in internal coordinates in au.

	Criteria marked as inactive (o), active & met (*), and active & unmet ( ).

	----------------------------------------------------------------------------------------------
	   Step    Total Energy     Delta E     Max Force     RMS Force      Max Disp      RMS Disp
	----------------------------------------------------------------------------------------------
	  Convergence Criteria     1.00e-06 *    3.00e-04 *             o    1.20e-03 *             o
	----------------------------------------------------------------------------------------------
	    11    -254.26461323   -9.86e-07 *    9.86e-05 *    9.86e-05 o    4.44e-04 *    4.44e-04 o  ~
	----------------------------------------------------------------------------------------------

Next Geometry in Ang
	Fragment 1 (Ang)

	    N   0.0000000000   0.0000000000   1.1169664341
	   Mg   0.0000000000   0.0000000000  -0.6521620949

    Final optimized geometry and variables:
    Molecular point group: c2v
    Full point group: C_inf_v

    Geometry (in Angstrom), charge = 1, multiplicity = 1:

    N            0.000000000000     0.000000000000     1.116849082449
    MG           0.000000000000     0.000000000000    -0.652044743173

    Psi4 stopped on: Thursday, 17 July 2025 01:54PM
    Psi4 wall time for execution: 0:00:13.81

*** Psi4 exiting successfully. Buy a developer a beer!
