                               Psi4 1.9.1 release

  ==> Input File <==

--------------------------------------------------------------------------
molecule {
1 1
N   0.00000        0.60000        0.00000
Si   0.00000       -0.60000        0.00000
}

set {
basis              cc-pvdz
reference          uks
maxiter            500
geom_maxiter       500
DAMPING_PERCENTAGE 1
guess              SAP
}

optimize('b3lyp')
--------------------------------------------------------------------------

    Molecular point group: c2v
  Charge       = 1
  Multiplicity = 1
  Basis Set: CC-PVDZ
    Blend: CC-PVDZ
  Basis Set: (CC-PVDZ AUX)
    Blend: CC-PVDZ-JKFIT
  @DF-UKS Final Energy:  -343.45567253924582
    Total Energy =                       -343.4556725392458247
 Dipole X            :          0.0000000            0.0000000            0.0000000
 Dipole Y            :          0.0000000            0.0000000            0.0000000
 Dipole Z            :         -1.2846711           -0.0110494           -1.2957205
 Magnitude           :                                                    1.2957205
    Molecular point group: c2v
  Basis Set: CC-PVDZ
    Blend: CC-PVDZ
  Basis Set: (CC-PVDZ AUX)
    Blend: CC-PVDZ-JKFIT
  Basis Set: CC-PVDZ
    Blend: CC-PVDZ
  Basis Set: (CC-PVDZ AUX)
    Blend: CC-PVDZ-JKFIT
  @DF-UKS Final Energy:  -343.61153708610789
    Total Energy =                       -343.6115370861078873
  Basis Set: CC-PVDZ
    Blend: CC-PVDZ
  Basis Set: (CC-PVDZ AUX)
    Blend: CC-PVDZ-JKFIT
  Basis Set: CC-PVDZ
    Blend: CC-PVDZ
  @DF-UKS Final Energy:  -343.67913625921727
    Total Energy =                       -343.6791362592172732
  @DF-UKS Final Energy:  -343.69707276612672
    Total Energy =                       -343.6970727661267233
  @DF-UKS Final Energy:  -343.70445194285759
    Total Energy =                       -343.7044519428575313
  @DF-UKS Final Energy:  -343.70615905444384
    Total Energy =                       -343.7061590544437877
  @DF-UKS Final Energy:  -343.70660698173918
    Total Energy =                       -343.7066069817391849
  @DF-UKS Final Energy:  -343.70675994147416
    Total Energy =                       -343.7067599414741608
  Basis Set: (CC-PVDZ AUX)
    Blend: CC-PVDZ-JKFIT
  Basis Set: CC-PVDZ
    Blend: CC-PVDZ
  Basis Set: (CC-PVDZ AUX)
    Blend: CC-PVDZ-JKFIT
  @DF-UKS Final Energy:  -343.70678272902586
    Total Energy =                       -343.7067827290258606
  Basis Set: CC-PVDZ
    Blend: CC-PVDZ
  Basis Set: (CC-PVDZ AUX)
    Blend: CC-PVDZ-JKFIT
  Charge       = 1
  Multiplicity = 1
  Basis Set: CC-PVDZ
    Blend: CC-PVDZ
  Basis Set: (CC-PVDZ AUX)
    Blend: CC-PVDZ-JKFIT

    Orbital Energies [Eh]
    ---------------------

    Alpha Occupied:

       1A1   -66.560537     2A1   -14.701660     3A1    -5.694196
       4A1    -4.055677     1B2    -4.050599     1B1    -4.050599
       5A1    -1.090414     6A1    -0.713492     2B1    -0.586211
       2B2    -0.586211

    Alpha Virtual:

       7A1    -0.532403     3B1    -0.344814     3B2    -0.344814
       8A1    -0.195775     9A1    -0.007992     4B1     0.051187
       4B2     0.051187     1A2     0.067349    10A1     0.067350
      11A1     0.096074     5B2     0.151668     5B1     0.151668
      12A1     0.348773     6B2     0.534737     6B1     0.534737
      13A1     0.632826    14A1     0.965649     2A2     1.498079
      15A1     1.498084     7B1     1.642702     7B2     1.642702
      16A1     2.052503

    Beta Occupied:

       1A1   -66.560537     2A1   -14.701660     3A1    -5.694196
       4A1    -4.055677     1B2    -4.050599     1B1    -4.050599
       5A1    -1.090414     6A1    -0.713492     2B1    -0.586211
       2B2    -0.586211

    Beta Virtual:

       7A1    -0.532403     3B1    -0.344814     3B2    -0.344814
       8A1    -0.195775     9A1    -0.007992     4B1     0.051187
       4B2     0.051187     1A2     0.067349    10A1     0.067350
      11A1     0.096074     5B2     0.151668     5B1     0.151668
      12A1     0.348773     6B2     0.534737     6B1     0.534737
      13A1     0.632826    14A1     0.965649     2A2     1.498079
      15A1     1.498084     7B1     1.642702     7B2     1.642702
      16A1     2.052503

    Final Occupation by Irrep:
             A1    A2    B1    B2
    DOCC [     6,    0,    2,    2 ]
    SOCC [     0,    0,    0,    0 ]
    NA   [     6,    0,    2,    2 ]
    NB   [     6,    0,    2,    2 ]

  @DF-UKS Final Energy:  -343.70678428418171

   => Energetics <=

    Nuclear Repulsion Energy =             32.6452368749102533
    One-Electron Energy =                -532.7601430117949803
    Two-Electron Energy =                 178.4705516613777831
    DFT Exchange-Correlation Energy =     -22.0624298086747750
    Empirical Dispersion Energy =           0.0000000000000000
    VV10 Nonlocal Energy =                  0.0000000000000000
    Total Energy =                       -343.7067842841817082

  UHF NO Occupations:
  HONO-2 :    6 A1 2.0000000
  HONO-1 :    2 B2 2.0000000
  HONO-0 :    2 B1 2.0000000
  LUNO+0 :    7 A1 0.0000000
  LUNO+1 :    3 B1 0.0000000
  LUNO+2 :    4 B1 0.0000000
  LUNO+3 :    3 B2 0.0000000

Computation Completed

Properties will be evaluated at   0.000000,   0.000000,   0.000000 [a0]

Properties computed using the SCF density matrix

 Multipole Moments:

 ------------------------------------------------------------------------------------
     Multipole            Electronic (a.u.)      Nuclear  (a.u.)        Total (a.u.)
 ------------------------------------------------------------------------------------

 L = 1.  Multiply by 2.5417464519 to convert [e a0] to [Debye]
 Dipole X            :          0.0000000            0.0000000            0.0000000
 Dipole Y            :          0.0000000            0.0000000            0.0000000
 Dipole Z            :         -1.4897651           -0.0146273           -1.5043924
 Magnitude           :                                                    1.5043924

 ------------------------------------------------------------------------------------

*** tstop() called on Joses-MacBook-Pro-2.local at Thu Jul 17 13:55:32 2025
Module time:
	user time   =       2.48 seconds =       0.04 minutes
	system time =       5.15 seconds =       0.09 minutes
	total time  =          0 seconds =       0.00 minutes
Total time:
	user time   =      33.53 seconds =       0.56 minutes
	system time =      80.03 seconds =       1.33 minutes
	total time  =         12 seconds =       0.20 minutes

*** tstart() called on Joses-MacBook-Pro-2.local
*** at Thu Jul 17 13:55:32 2025

         ------------------------------------------------------------
                                   SCF GRAD
                          Rob Parrish, Justin Turney,
                       Andy Simmonett, and Alex Sokolov
         ------------------------------------------------------------

  ==> Geometry <==

    Molecular point group: c2v
    Full point group: C_inf_v

    Geometry (in Angstrom), charge = 1, multiplicity = 1:

       Center              X                  Y                   Z               Mass
    ------------   -----------------  -----------------  -----------------  -----------------
         N            0.000000000000     0.000000000000     1.058680580538    14.003074004430
         SI           0.000000000000     0.000000000000    -0.529893178151    27.976926534650

  Nuclear repulsion =   32.645236874910253

  ==> Basis Set <==

  Basis Set: CC-PVDZ
    Blend: CC-PVDZ
    Number of shells: 14
    Number of basis functions: 32
    Number of Cartesian functions: 34
    Spherical Harmonics?: true
    Max angular momentum: 2

  ==> DFJKGrad: Density-Fitted SCF Gradients <==

    Gradient:                    1
    J tasked:                  Yes
    K tasked:                  Yes
    wK tasked:                  No
    OpenMP threads:              1
    Integrals threads:           1
    Memory [MiB]:              375
    Schwarz Cutoff:          1E-12
    Fitting Condition:       1E-10

   => Auxiliary Basis Set <=

  Basis Set: (CC-PVDZ AUX)
    Blend: CC-PVDZ-JKFIT
    Number of shells: 60
    Number of basis functions: 182
    Number of Cartesian functions: 211
    Spherical Harmonics?: true
    Max angular momentum: 3

  ==> DFT Potential <==

   => LibXC <=

    Version 6.2.2
    S. Lehtola, C. Steigemann, M. J.T. Oliveira, and M. A.L. Marques.,  SoftwareX 7, 1â€“5 (2018) (10.1016/j.softx.2017.11.002)

   => Composite Functional: B3LYP <=

    B3LYP Hyb-GGA Exchange-Correlation Functional

    P. J. Stephens, F. J. Devlin, C. F. Chabalowski, and M. J. Frisch.,  J. Phys. Chem. 98, 11623 (1994) (10.1021/j100096a001)

    Deriv               =              1
    GGA                 =           TRUE
    Meta                =          FALSE

    Exchange Hybrid     =           TRUE
    MP2 Hybrid          =          FALSE

   => Exchange Functionals <=

    0.0800   Slater exchange
    0.7200         Becke 88

   => Exact (HF) Exchange <=

    0.2000               HF

   => Correlation Functionals <=

    0.1900   Vosko, Wilk & Nusair (VWN5_RPA)
    0.8100   Lee, Yang & Parr

   => LibXC Density Thresholds  <==

    XC_HYB_GGA_XC_B3LYP:  1.00E-15

   => Molecular Quadrature <=

    Radial Scheme          =       TREUTLER
    Pruning Scheme         =           NONE
    Nuclear Scheme         =       TREUTLER

    Blocking Scheme        =         OCTREE
    BS radius alpha        =              1
    Pruning alpha          =              1
    Radial Points          =             75
    Spherical Points       =            302
    Total Points           =          42630
    Total Blocks           =            394
    Max Points             =            256
    Max Functions          =             32
    Weights Tolerance      =       1.00E-15

  -Total Gradient:
     Atom            X                  Y                   Z
    ------   -----------------  -----------------  -----------------
       1        0.000000000000    -0.000000000000    -0.000169608281
       2        0.000000000000     0.000000000000     0.000160964581

*** tstop() called on Joses-MacBook-Pro-2.local at Thu Jul 17 13:55:33 2025
Module time:
	user time   =       0.83 seconds =       0.01 minutes
	system time =       2.19 seconds =       0.04 minutes
	total time  =          1 seconds =       0.02 minutes
Total time:
	user time   =      34.36 seconds =       0.57 minutes
	system time =      82.23 seconds =       1.37 minutes
	total time  =         13 seconds =       0.22 minutes

    			-----------------------------------------

    			 OPTKING 3.0: for geometry optimizations

    			     By R.A. King, Bethel University

    			        with contributions from

    			    A.V. Copan, J. Cayton, A. Heide

    			-----------------------------------------

	                            ===> Fragment 1 <==

	 Z (Atomic Numbers)          Masses                          Geom
	       7.000000            14.003074          0.00000000  0.00000000  2.00061635
	      14.000000            27.976927          0.00000000  0.00000000 -1.00135298

	 - Coordinate -           - BOHR/RAD -       - ANG/DEG -
	 R(1,2)           =         3.001969           1.588574

	        --- Internal Coordinate Step in ANG or DEG, aJ/ANG or AJ/DEG ---
	-------------------------------------------------------------------------------
	           Coordinate      Previous         Force          Change          New
	           ----------      --------        ------          ------        ------
	               R(1,2)       1.58857        0.00136        0.00019       1.58877
	-------------------------------------------------------------------------------

	                                 ==> Convergence Check <==

	Measures of convergence in internal coordinates in au.

	Criteria marked as inactive (o), active & met (*), and active & unmet ( ).

	----------------------------------------------------------------------------------------------
	   Step    Total Energy     Delta E     Max Force     RMS Force      Max Disp      RMS Disp
	----------------------------------------------------------------------------------------------
	  Convergence Criteria     1.00e-06 *    3.00e-04 *             o    1.20e-03 *             o
	----------------------------------------------------------------------------------------------
	    10    -343.70678428   -1.56e-06      1.65e-04 *    1.65e-04 o    3.64e-04 *    3.64e-04 o  ~
	----------------------------------------------------------------------------------------------

Next Geometry in Ang
	Fragment 1 (Ang)

	    N   0.0000000000   0.0000000000   1.0587768448
	   Si   0.0000000000   0.0000000000  -0.5299894424

    Final optimized geometry and variables:
    Molecular point group: c2v
    Full point group: C_inf_v

    Geometry (in Angstrom), charge = 1, multiplicity = 1:

    N            0.000000000000     0.000000000000     1.058680580538
    SI           0.000000000000     0.000000000000    -0.529893178151

    Psi4 stopped on: Thursday, 17 July 2025 01:55PM
    Psi4 wall time for execution: 0:00:12.89

*** Psi4 exiting successfully. Buy a developer a beer!
