                               Psi4 1.9.1 release

  ==> Input File <==

--------------------------------------------------------------------------
molecule {
1 1
Ne   0.00000        0.60000        0.00000
Al   0.00000       -0.60000        0.00000
}

set {
basis              cc-pvdz
reference          uks
maxiter            500
geom_maxiter       500
DAMPING_PERCENTAGE 1
guess              SAP
}

optimize('b3lyp')
--------------------------------------------------------------------------

    Molecular point group: c2v
  Charge       = 1
  Multiplicity = 1
  Basis Set: CC-PVDZ
    Blend: CC-PVDZ
  Basis Set: (CC-PVDZ AUX)
    Blend: CC-PVDZ-JKFIT
  @DF-UKS Final Energy:  -370.60984168477944
    Total Energy =                       -370.6098416847794397
 Dipole X            :          0.0000000            0.0000000            0.0000000
 Dipole Y            :          0.0000000            0.0000000            0.0000000
 Dipole Z            :         -0.2851264            0.4785826            0.1934563
 Magnitude           :                                                    0.1934563
    Molecular point group: c2v
  Basis Set: CC-PVDZ
    Blend: CC-PVDZ
  Basis Set: (CC-PVDZ AUX)
    Blend: CC-PVDZ-JKFIT
  Basis Set: CC-PVDZ
    Blend: CC-PVDZ
  Basis Set: (CC-PVDZ AUX)
    Blend: CC-PVDZ-JKFIT
  @DF-UKS Final Energy:  -370.81763136045299
    Total Energy =                       -370.8176313604529923
  Basis Set: CC-PVDZ
    Blend: CC-PVDZ
  Basis Set: (CC-PVDZ AUX)
    Blend: CC-PVDZ-JKFIT
  Basis Set: CC-PVDZ
    Blend: CC-PVDZ
  @DF-UKS Final Energy:  -370.92981055667957
    Total Energy =                       -370.9298105566795698
  @DF-UKS Final Energy:  -370.99577684436474
    Total Energy =                       -370.9957768443647410
  @DF-UKS Final Energy:  -371.03476776422241
    Total Energy =                       -371.0347677642224085
  @DF-UKS Final Energy:  -371.05631702268306
    Total Energy =                       -371.0563170226830039
  @DF-UKS Final Energy:  -371.06775775179256
    Total Energy =                       -371.0677577517925556
  @DF-UKS Final Energy:  -371.07338037353162
    Total Energy =                       -371.0733803735316201
  @DF-UKS Final Energy:  -371.07587218217708
    Total Energy =                       -371.0758721821770223
  @DF-UKS Final Energy:  -371.07680459803385
    Total Energy =                       -371.0768045980337888
  @DF-UKS Final Energy:  -371.07706192968266
    Total Energy =                       -371.0770619296826567
  @DF-UKS Final Energy:  -371.07709759272535
    Total Energy =                       -371.0770975927253517
  Basis Set: (CC-PVDZ AUX)
    Blend: CC-PVDZ-JKFIT
  Basis Set: CC-PVDZ
    Blend: CC-PVDZ
  Basis Set: (CC-PVDZ AUX)
    Blend: CC-PVDZ-JKFIT
  @DF-UKS Final Energy:  -371.07710244110177
    Total Energy =                       -371.0771024411017152
  Basis Set: CC-PVDZ
    Blend: CC-PVDZ
  Basis Set: (CC-PVDZ AUX)
    Blend: CC-PVDZ-JKFIT
  Charge       = 1
  Multiplicity = 1
  Basis Set: CC-PVDZ
    Blend: CC-PVDZ
  Basis Set: (CC-PVDZ AUX)
    Blend: CC-PVDZ-JKFIT

    Orbital Energies [Eh]
    ---------------------

    Alpha Occupied:

       1A1   -56.390528     2A1   -31.188333     3A1    -4.460985
       4A1    -3.013102     1B1    -3.013032     1B2    -3.013032
       5A1    -1.649449     6A1    -0.765646     2B1    -0.754942
       2B2    -0.754942     7A1    -0.564385

    Alpha Virtual:

       3B2    -0.305234     3B1    -0.305234     8A1    -0.293193
       9A1    -0.040039    10A1     0.008169     4B1     0.011756
       4B2     0.011756     1A2     0.027598    11A1     0.027598
       5B1     0.027801     5B2     0.027801    12A1     0.056051
       6B2     1.174262     6B1     1.174262    13A1     1.235944
      14A1     1.802804     7B2     4.507629     7B1     4.507629
       2A2     4.510106    15A1     4.510295    16A1     4.510408

    Beta Occupied:

       1A1   -56.390528     2A1   -31.188333     3A1    -4.460985
       4A1    -3.013102     1B1    -3.013032     1B2    -3.013032
       5A1    -1.649449     6A1    -0.765646     2B1    -0.754942
       2B2    -0.754942     7A1    -0.564385

    Beta Virtual:

       3B2    -0.305234     3B1    -0.305234     8A1    -0.293193
       9A1    -0.040039    10A1     0.008169     4B1     0.011756
       4B2     0.011756     1A2     0.027598    11A1     0.027598
       5B1     0.027801     5B2     0.027801    12A1     0.056051
       6B2     1.174262     6B1     1.174262    13A1     1.235944
      14A1     1.802804     7B2     4.507629     7B1     4.507629
       2A2     4.510106    15A1     4.510295    16A1     4.510408

    Final Occupation by Irrep:
             A1    A2    B1    B2
    DOCC [     7,    0,    2,    2 ]
    SOCC [     0,    0,    0,    0 ]
    NA   [     7,    0,    2,    2 ]
    NB   [     7,    0,    2,    2 ]

  @DF-UKS Final Energy:  -371.07710294062878

   => Energetics <=

    Nuclear Repulsion Energy =             25.6789054367321086
    One-Electron Energy =                -564.5870863490213196
    Two-Electron Energy =                 192.7265701676082585
    DFT Exchange-Correlation Energy =     -24.8954921959477886
    Empirical Dispersion Energy =           0.0000000000000000
    VV10 Nonlocal Energy =                  0.0000000000000000
    Total Energy =                       -371.0771029406287767

  UHF NO Occupations:
  HONO-2 :    2 B1 2.0000000
  HONO-1 :    2 B2 2.0000000
  HONO-0 :    7 A1 2.0000000
  LUNO+0 :    8 A1 0.0000000
  LUNO+1 :    9 A1 0.0000000
  LUNO+2 :   10 A1 0.0000000
  LUNO+3 :   11 A1 0.0000000

Computation Completed

Properties will be evaluated at   0.000000,   0.000000,   0.000000 [a0]

Properties computed using the SCF density matrix

 Multipole Moments:

 ------------------------------------------------------------------------------------
     Multipole            Electronic (a.u.)      Nuclear  (a.u.)        Total (a.u.)
 ------------------------------------------------------------------------------------

 L = 1.  Multiply by 2.5417464519 to convert [e a0] to [Debye]
 Dipole X            :          0.0000000            0.0000000            0.0000000
 Dipole Y            :          0.0000000            0.0000000            0.0000000
 Dipole Z            :         -2.9514533            1.0684240           -1.8830293
 Magnitude           :                                                    1.8830293

 ------------------------------------------------------------------------------------

*** tstop() called on Joses-MacBook-Pro-2.local at Thu Jul 17 14:39:14 2025
Module time:
	user time   =       3.80 seconds =       0.06 minutes
	system time =       2.34 seconds =       0.04 minutes
	total time  =          1 seconds =       0.02 minutes
Total time:
	user time   =      67.42 seconds =       1.12 minutes
	system time =      69.34 seconds =       1.16 minutes
	total time  =         14 seconds =       0.23 minutes

*** tstart() called on Joses-MacBook-Pro-2.local
*** at Thu Jul 17 14:39:14 2025

         ------------------------------------------------------------
                                   SCF GRAD
                          Rob Parrish, Justin Turney,
                       Andy Simmonett, and Alex Sokolov
         ------------------------------------------------------------

  ==> Geometry <==

    Molecular point group: c2v
    Full point group: C_inf_v

    Geometry (in Angstrom), charge = 1, multiplicity = 1:

       Center              X                  Y                   Z               Mass
    ------------   -----------------  -----------------  -----------------  -----------------
         NE           0.000000000000     0.000000000000     1.538782861808    19.992440176200
         AL           0.000000000000     0.000000000000    -1.140187920517    26.981538530000

  Nuclear repulsion =   25.678905436732109

  ==> Basis Set <==

  Basis Set: CC-PVDZ
    Blend: CC-PVDZ
    Number of shells: 14
    Number of basis functions: 32
    Number of Cartesian functions: 34
    Spherical Harmonics?: true
    Max angular momentum: 2

  ==> DFJKGrad: Density-Fitted SCF Gradients <==

    Gradient:                    1
    J tasked:                  Yes
    K tasked:                  Yes
    wK tasked:                  No
    OpenMP threads:              1
    Integrals threads:           1
    Memory [MiB]:              375
    Schwarz Cutoff:          1E-12
    Fitting Condition:       1E-10

   => Auxiliary Basis Set <=

  Basis Set: (CC-PVDZ AUX)
    Blend: CC-PVDZ-JKFIT
    Number of shells: 60
    Number of basis functions: 182
    Number of Cartesian functions: 211
    Spherical Harmonics?: true
    Max angular momentum: 3

  ==> DFT Potential <==

   => LibXC <=

    Version 6.2.2
    S. Lehtola, C. Steigemann, M. J.T. Oliveira, and M. A.L. Marques.,  SoftwareX 7, 1â€“5 (2018) (10.1016/j.softx.2017.11.002)

   => Composite Functional: B3LYP <=

    B3LYP Hyb-GGA Exchange-Correlation Functional

    P. J. Stephens, F. J. Devlin, C. F. Chabalowski, and M. J. Frisch.,  J. Phys. Chem. 98, 11623 (1994) (10.1021/j100096a001)

    Deriv               =              1
    GGA                 =           TRUE
    Meta                =          FALSE

    Exchange Hybrid     =           TRUE
    MP2 Hybrid          =          FALSE

   => Exchange Functionals <=

    0.0800   Slater exchange
    0.7200         Becke 88

   => Exact (HF) Exchange <=

    0.2000               HF

   => Correlation Functionals <=

    0.1900   Vosko, Wilk & Nusair (VWN5_RPA)
    0.8100   Lee, Yang & Parr

   => LibXC Density Thresholds  <==

    XC_HYB_GGA_XC_B3LYP:  1.00E-15

   => Molecular Quadrature <=

    Radial Scheme          =       TREUTLER
    Pruning Scheme         =           NONE
    Nuclear Scheme         =       TREUTLER

    Blocking Scheme        =         OCTREE
    BS radius alpha        =              1
    Pruning alpha          =              1
    Radial Points          =             75
    Spherical Points       =            302
    Total Points           =          43528
    Total Blocks           =            400
    Max Points             =            255
    Max Functions          =             32
    Weights Tolerance      =       1.00E-15

  -Total Gradient:
     Atom            X                  Y                   Z
    ------   -----------------  -----------------  -----------------
       1        0.000000000000     0.000000000000    -0.000067049060
       2       -0.000000000000     0.000000000000     0.000048770319

*** tstop() called on Joses-MacBook-Pro-2.local at Thu Jul 17 14:39:14 2025
Module time:
	user time   =       1.04 seconds =       0.02 minutes
	system time =       1.35 seconds =       0.02 minutes
	total time  =          0 seconds =       0.00 minutes
Total time:
	user time   =      68.46 seconds =       1.14 minutes
	system time =      70.69 seconds =       1.18 minutes
	total time  =         14 seconds =       0.23 minutes

    			-----------------------------------------

    			 OPTKING 3.0: for geometry optimizations

    			     By R.A. King, Bethel University

    			        with contributions from

    			    A.V. Copan, J. Cayton, A. Heide

    			-----------------------------------------

	                            ===> Fragment 1 <==

	 Z (Atomic Numbers)          Masses                          Geom
	      10.000000            19.992440          0.00000000  0.00000000  2.90787818
	      13.000000            26.981539          0.00000000  0.00000000 -2.15464290

	 - Coordinate -           - BOHR/RAD -       - ANG/DEG -
	 R(1,2)           =         5.062521           2.678971

	        --- Internal Coordinate Step in ANG or DEG, aJ/ANG or AJ/DEG ---
	-------------------------------------------------------------------------------
	           Coordinate      Previous         Force          Change          New
	           ----------      --------        ------          ------        ------
	               R(1,2)       2.67897        0.00048        0.00337       2.68234
	-------------------------------------------------------------------------------

	                                 ==> Convergence Check <==

	Measures of convergence in internal coordinates in au.

	Criteria marked as inactive (o), active & met (*), and active & unmet ( ).

	----------------------------------------------------------------------------------------------
	   Step    Total Energy     Delta E     Max Force     RMS Force      Max Disp      RMS Disp
	----------------------------------------------------------------------------------------------
	  Convergence Criteria     1.00e-06 *    3.00e-04 *             o    1.20e-03 *             o
	----------------------------------------------------------------------------------------------
	    14    -371.07710294   -5.00e-07 *    5.79e-05 *    5.79e-05 o    6.37e-03      6.37e-03 o  ~
	----------------------------------------------------------------------------------------------

Next Geometry in Ang
	Fragment 1 (Ang)

	   Ne   0.0000000000   0.0000000000   1.5404694887
	   Al   0.0000000000   0.0000000000  -1.1418745475

    Final optimized geometry and variables:
    Molecular point group: c2v
    Full point group: C_inf_v

    Geometry (in Angstrom), charge = 1, multiplicity = 1:

    NE           0.000000000000     0.000000000000     1.538782861808
    AL           0.000000000000     0.000000000000    -1.140187920517

    Psi4 stopped on: Thursday, 17 July 2025 02:39PM
    Psi4 wall time for execution: 0:00:14.98

*** Psi4 exiting successfully. Buy a developer a beer!
