                               Psi4 1.9.1 release

  ==> Input File <==

--------------------------------------------------------------------------
molecule {
1 1
Ne   0.00000        0.60000        0.00000
Cl   0.00000       -0.60000        0.00000
}

set {
basis              cc-pvdz
reference          uks
maxiter            500
geom_maxiter       500
DAMPING_PERCENTAGE 1
guess              SAP
}

optimize('b3lyp')
--------------------------------------------------------------------------

    Molecular point group: c2v
  Charge       = 1
  Multiplicity = 1
  Basis Set: CC-PVDZ
    Blend: CC-PVDZ
  Basis Set: (CC-PVDZ AUX)
    Blend: CC-PVDZ-JKFIT
  @DF-UKS Final Energy:  -588.12653162465517
    Total Energy =                       -588.1265316246551720
 Dipole X            :          0.0000000            0.0000000            0.0000000
 Dipole Y            :          0.0000000            0.0000000            0.0000000
 Dipole Z            :          0.2904436            0.4050456            0.6954892
 Magnitude           :                                                    0.6954892
    Molecular point group: c2v
  Basis Set: CC-PVDZ
    Blend: CC-PVDZ
  Basis Set: (CC-PVDZ AUX)
    Blend: CC-PVDZ-JKFIT
  Basis Set: CC-PVDZ
    Blend: CC-PVDZ
  Basis Set: (CC-PVDZ AUX)
    Blend: CC-PVDZ-JKFIT
  @DF-UKS Final Energy:  -588.35525416360986
    Total Energy =                       -588.3552541636098567
  Basis Set: CC-PVDZ
    Blend: CC-PVDZ
  Basis Set: (CC-PVDZ AUX)
    Blend: CC-PVDZ-JKFIT
  Basis Set: CC-PVDZ
    Blend: CC-PVDZ
  @DF-UKS Final Energy:  -588.46385662152056
    Total Energy =                       -588.4638566215205628
  @DF-UKS Final Energy:  -588.51768169110608
    Total Energy =                       -588.5176816911060769
  @DF-UKS Final Energy:  -588.53623652004239
    Total Energy =                       -588.5362365200423937
  @DF-UKS Final Energy:  -588.54654602082371
    Total Energy =                       -588.5465460208237118
  @DF-UKS Final Energy:  -588.55122981813179
    Total Energy =                       -588.5512298181317874
  @DF-UKS Final Energy:  -588.55252223340074
    Total Energy =                       -588.5525222334007367
  @DF-UKS Final Energy:  -588.55302089314262
    Total Energy =                       -588.5530208931426159
  @DF-UKS Final Energy:  -588.55314439579456
    Total Energy =                       -588.5531443957945612
  @DF-UKS Final Energy:  -588.55318352105883
    Total Energy =                       -588.5531835210589406
  Basis Set: (CC-PVDZ AUX)
    Blend: CC-PVDZ-JKFIT
  Basis Set: CC-PVDZ
    Blend: CC-PVDZ
  Basis Set: (CC-PVDZ AUX)
    Blend: CC-PVDZ-JKFIT
  @DF-UKS Final Energy:  -588.55319083482323
    Total Energy =                       -588.5531908348232264
  Basis Set: CC-PVDZ
    Blend: CC-PVDZ
  Basis Set: (CC-PVDZ AUX)
    Blend: CC-PVDZ-JKFIT
  Charge       = 1
  Multiplicity = 1
  Basis Set: CC-PVDZ
    Blend: CC-PVDZ
  Basis Set: (CC-PVDZ AUX)
    Blend: CC-PVDZ-JKFIT

    Orbital Energies [Eh]
    ---------------------

    Alpha Occupied:

       1A1  -102.026410     2A1   -31.410309     3A1    -9.931772
       4A1    -7.709141     1B1    -7.678404     1B2    -7.678404
       5A1    -1.856165     6A1    -1.210768     7A1    -0.970321
       2B1    -0.949068     2B2    -0.949068     3B2    -0.700952
       3B1    -0.700952

    Alpha Virtual:

       8A1    -0.617944     9A1     0.187333     4B2     0.223722
       4B1     0.223722    10A1     0.260866     5B1     0.298745
       5B2     0.298745     1A2     0.348626    11A1     0.348626
      12A1     0.366275     6B1     1.047337     6B2     1.047337
      13A1     1.158476    14A1     1.838499     7B2     4.301743
       7B1     4.301743    15A1     4.316989     2A2     4.317196
      16A1     4.318995

    Beta Occupied:

       1A1  -102.026410     2A1   -31.410309     3A1    -9.931772
       4A1    -7.709141     1B1    -7.678404     1B2    -7.678404
       5A1    -1.856165     6A1    -1.210768     7A1    -0.970321
       2B2    -0.949068     2B1    -0.949068     3B2    -0.700952
       3B1    -0.700952

    Beta Virtual:

       8A1    -0.617944     9A1     0.187333     4B2     0.223722
       4B1     0.223722    10A1     0.260866     5B1     0.298745
       5B2     0.298745     1A2     0.348626    11A1     0.348626
      12A1     0.366275     6B1     1.047337     6B2     1.047337
      13A1     1.158476    14A1     1.838499     7B2     4.301743
       7B1     4.301743    15A1     4.316989     2A2     4.317196
      16A1     4.318995

    Final Occupation by Irrep:
             A1    A2    B1    B2
    DOCC [     7,    0,    3,    3 ]
    SOCC [     0,    0,    0,    0 ]
    NA   [     7,    0,    3,    3 ]
    NB   [     7,    0,    3,    3 ]

  @DF-UKS Final Energy:  -588.55319148334149

   => Energetics <=

    Nuclear Repulsion Energy =             46.1547597550642337
    One-Electron Energy =                -898.7246013275459973
    Two-Electron Energy =                 296.5122050865098231
    DFT Exchange-Correlation Energy =     -32.4955549973694673
    Empirical Dispersion Energy =           0.0000000000000000
    VV10 Nonlocal Energy =                  0.0000000000000000
    Total Energy =                       -588.5531914833413794

  UHF NO Occupations:
  HONO-2 :    3 B2 2.0000000
  HONO-1 :    6 A1 2.0000000
  HONO-0 :    7 A1 2.0000000
  LUNO+0 :    8 A1 0.0000000
  LUNO+1 :    9 A1 0.0000000
  LUNO+2 :   10 A1 0.0000000
  LUNO+3 :   11 A1 0.0000000

Computation Completed

Properties will be evaluated at   0.000000,   0.000000,   0.000000 [a0]

Properties computed using the SCF density matrix

 Multipole Moments:

 ------------------------------------------------------------------------------------
     Multipole            Electronic (a.u.)      Nuclear  (a.u.)        Total (a.u.)
 ------------------------------------------------------------------------------------

 L = 1.  Multiply by 2.5417464519 to convert [e a0] to [Debye]
 Dipole X            :          0.0000000            0.0000000            0.0000000
 Dipole Y            :          0.0000000            0.0000000            0.0000000
 Dipole Z            :         -1.1320808            0.6578944           -0.4741864
 Magnitude           :                                                    0.4741864

 ------------------------------------------------------------------------------------

*** tstop() called on Joses-MacBook-Pro-2.local at Thu Jul 17 14:42:50 2025
Module time:
	user time   =       3.19 seconds =       0.05 minutes
	system time =       2.95 seconds =       0.05 minutes
	total time  =          0 seconds =       0.00 minutes
Total time:
	user time   =      61.14 seconds =       1.02 minutes
	system time =      66.11 seconds =       1.10 minutes
	total time  =         12 seconds =       0.20 minutes

*** tstart() called on Joses-MacBook-Pro-2.local
*** at Thu Jul 17 14:42:50 2025

         ------------------------------------------------------------
                                   SCF GRAD
                          Rob Parrish, Justin Turney,
                       Andy Simmonett, and Alex Sokolov
         ------------------------------------------------------------

  ==> Geometry <==

    Molecular point group: c2v
    Full point group: C_inf_v

    Geometry (in Angstrom), charge = 1, multiplicity = 1:

       Center              X                  Y                   Z               Mass
    ------------   -----------------  -----------------  -----------------  -----------------
         NE           0.000000000000     0.000000000000     1.240103698614    19.992440176200
         CL           0.000000000000     0.000000000000    -0.708993778901    34.968852682000

  Nuclear repulsion =   46.154759755064234

  ==> Basis Set <==

  Basis Set: CC-PVDZ
    Blend: CC-PVDZ
    Number of shells: 14
    Number of basis functions: 32
    Number of Cartesian functions: 34
    Spherical Harmonics?: true
    Max angular momentum: 2

  ==> DFJKGrad: Density-Fitted SCF Gradients <==

    Gradient:                    1
    J tasked:                  Yes
    K tasked:                  Yes
    wK tasked:                  No
    OpenMP threads:              1
    Integrals threads:           1
    Memory [MiB]:              375
    Schwarz Cutoff:          1E-12
    Fitting Condition:       1E-10

   => Auxiliary Basis Set <=

  Basis Set: (CC-PVDZ AUX)
    Blend: CC-PVDZ-JKFIT
    Number of shells: 60
    Number of basis functions: 182
    Number of Cartesian functions: 211
    Spherical Harmonics?: true
    Max angular momentum: 3

  ==> DFT Potential <==

   => LibXC <=

    Version 6.2.2
    S. Lehtola, C. Steigemann, M. J.T. Oliveira, and M. A.L. Marques.,  SoftwareX 7, 1â€“5 (2018) (10.1016/j.softx.2017.11.002)

   => Composite Functional: B3LYP <=

    B3LYP Hyb-GGA Exchange-Correlation Functional

    P. J. Stephens, F. J. Devlin, C. F. Chabalowski, and M. J. Frisch.,  J. Phys. Chem. 98, 11623 (1994) (10.1021/j100096a001)

    Deriv               =              1
    GGA                 =           TRUE
    Meta                =          FALSE

    Exchange Hybrid     =           TRUE
    MP2 Hybrid          =          FALSE

   => Exchange Functionals <=

    0.0800   Slater exchange
    0.7200         Becke 88

   => Exact (HF) Exchange <=

    0.2000               HF

   => Correlation Functionals <=

    0.1900   Vosko, Wilk & Nusair (VWN5_RPA)
    0.8100   Lee, Yang & Parr

   => LibXC Density Thresholds  <==

    XC_HYB_GGA_XC_B3LYP:  1.00E-15

   => Molecular Quadrature <=

    Radial Scheme          =       TREUTLER
    Pruning Scheme         =           NONE
    Nuclear Scheme         =       TREUTLER

    Blocking Scheme        =         OCTREE
    BS radius alpha        =              1
    Pruning alpha          =              1
    Radial Points          =             75
    Spherical Points       =            302
    Total Points           =          41907
    Total Blocks           =            373
    Max Points             =            256
    Max Functions          =             32
    Weights Tolerance      =       1.00E-15

  -Total Gradient:
     Atom            X                  Y                   Z
    ------   -----------------  -----------------  -----------------
       1        0.000000000000     0.000000000000    -0.000006281552
       2        0.000000000000    -0.000000000000     0.000088741981

*** tstop() called on Joses-MacBook-Pro-2.local at Thu Jul 17 14:42:51 2025
Module time:
	user time   =       1.25 seconds =       0.02 minutes
	system time =       0.93 seconds =       0.02 minutes
	total time  =          1 seconds =       0.02 minutes
Total time:
	user time   =      62.40 seconds =       1.04 minutes
	system time =      67.04 seconds =       1.12 minutes
	total time  =         13 seconds =       0.22 minutes

    			-----------------------------------------

    			 OPTKING 3.0: for geometry optimizations

    			     By R.A. King, Bethel University

    			        with contributions from

    			    A.V. Copan, J. Cayton, A. Heide

    			-----------------------------------------

	                            ===> Fragment 1 <==

	 Z (Atomic Numbers)          Masses                          Geom
	      10.000000            19.992440          0.00000000  0.00000000  2.34345636
	      17.000000            34.968853          0.00000000  0.00000000 -1.33980407

	 - Coordinate -           - BOHR/RAD -       - ANG/DEG -
	 R(1,2)           =         3.683260           1.949097

	        --- Internal Coordinate Step in ANG or DEG, aJ/ANG or AJ/DEG ---
	-------------------------------------------------------------------------------
	           Coordinate      Previous         Force          Change          New
	           ----------      --------        ------          ------        ------
	               R(1,2)       1.94910        0.00039        0.00028       1.94938
	-------------------------------------------------------------------------------

	                                 ==> Convergence Check <==

	Measures of convergence in internal coordinates in au.

	Criteria marked as inactive (o), active & met (*), and active & unmet ( ).

	----------------------------------------------------------------------------------------------
	   Step    Total Energy     Delta E     Max Force     RMS Force      Max Disp      RMS Disp
	----------------------------------------------------------------------------------------------
	  Convergence Criteria     1.00e-06 *    3.00e-04 *             o    1.20e-03 *             o
	----------------------------------------------------------------------------------------------
	    13    -588.55319148   -6.49e-07 *    4.75e-05 *    4.75e-05 o    5.35e-04 *    5.35e-04 o  ~
	----------------------------------------------------------------------------------------------

Next Geometry in Ang
	Fragment 1 (Ang)

	   Ne   0.0000000000   0.0000000000   1.2402452393
	   Cl   0.0000000000   0.0000000000  -0.7091353196

    Final optimized geometry and variables:
    Molecular point group: c2v
    Full point group: C_inf_v

    Geometry (in Angstrom), charge = 1, multiplicity = 1:

    NE           0.000000000000     0.000000000000     1.240103698614
    CL           0.000000000000     0.000000000000    -0.708993778901

    Psi4 stopped on: Thursday, 17 July 2025 02:42PM
    Psi4 wall time for execution: 0:00:13.70

*** Psi4 exiting successfully. Buy a developer a beer!
