                               Psi4 1.9.1 release

  ==> Input File <==

--------------------------------------------------------------------------
molecule {
1 3
P   0.00000        0.60000        0.00000
Ar   0.00000       -0.60000        0.00000
}

set {
basis              cc-pvdz
reference          uks
maxiter            500
geom_maxiter       500
DAMPING_PERCENTAGE 1
guess              SAP
}

optimize('b3lyp')
--------------------------------------------------------------------------

    Molecular point group: c2v
  Charge       = 1
  Multiplicity = 3
  Basis Set: CC-PVDZ
    Blend: CC-PVDZ
  Basis Set: (CC-PVDZ AUX)
    Blend: CC-PVDZ-JKFIT
  @DF-UKS Final Energy:  -867.13242475102675
    Total Energy =                       -867.1324247510267469
 Dipole X            :          0.0000000            0.0000000            0.0000000
 Dipole Y            :          0.0000000            0.0000000            0.0000000
 Dipole Z            :         -2.4671309            1.3397069           -1.1274240
 Magnitude           :                                                    1.1274240
    Molecular point group: c2v
  Basis Set: CC-PVDZ
    Blend: CC-PVDZ
  Basis Set: (CC-PVDZ AUX)
    Blend: CC-PVDZ-JKFIT
  Basis Set: CC-PVDZ
    Blend: CC-PVDZ
  Basis Set: (CC-PVDZ AUX)
    Blend: CC-PVDZ-JKFIT
  @DF-UKS Final Energy:  -867.17623507419717
    Total Energy =                       -867.1762350741971659
  Basis Set: CC-PVDZ
    Blend: CC-PVDZ
  Basis Set: (CC-PVDZ AUX)
    Blend: CC-PVDZ-JKFIT
  Basis Set: CC-PVDZ
    Blend: CC-PVDZ
  @DF-UKS Final Energy:  -867.25698865277684
    Total Energy =                       -867.2569886527767267
  @DF-UKS Final Energy:  -867.51575821833455
    Total Energy =                       -867.5157582183345539
  @DF-UKS Final Energy:  -868.02715333669721
    Total Energy =                       -868.0271533366972108
  @DF-UKS Final Energy:  -868.21294194924167
    Total Energy =                       -868.2129419492416673
  @DF-UKS Final Energy:  -868.33600723329869
    Total Energy =                       -868.3360072332986874
  @DF-UKS Final Energy:  -868.39452029743609
    Total Energy =                       -868.3945202974360882
  @DF-UKS Final Energy:  -868.42884798363923
    Total Energy =                       -868.4288479836392298
  @DF-UKS Final Energy:  -868.44869857537867
    Total Energy =                       -868.4486985753787849
  @DF-UKS Final Energy:  -868.45856673221260
    Total Energy =                       -868.4585667322127165
  @DF-UKS Final Energy:  -868.46301453203898
    Total Energy =                       -868.4630145320389829
  @DF-UKS Final Energy:  -868.46474212730459
    Total Energy =                       -868.4647421273045893
  @DF-UKS Final Energy:  -868.46525376335421
    Total Energy =                       -868.4652537633542124
  @DF-UKS Final Energy:  -868.46534141383802
    Total Energy =                       -868.4653414138380185
  @DF-UKS Final Energy:  -868.46535798380341
    Total Energy =                       -868.4653579838034148
  Basis Set: (CC-PVDZ AUX)
    Blend: CC-PVDZ-JKFIT
  Basis Set: CC-PVDZ
    Blend: CC-PVDZ
  Basis Set: (CC-PVDZ AUX)
    Blend: CC-PVDZ-JKFIT
  @DF-UKS Final Energy:  -868.46536163654309
    Total Energy =                       -868.4653616365430935
  Basis Set: CC-PVDZ
    Blend: CC-PVDZ
  Basis Set: (CC-PVDZ AUX)
    Blend: CC-PVDZ-JKFIT
  Charge       = 1
  Multiplicity = 3
  Basis Set: CC-PVDZ
    Blend: CC-PVDZ
  Basis Set: (CC-PVDZ AUX)
    Blend: CC-PVDZ-JKFIT

    Orbital Energies [Eh]
    ---------------------

    Alpha Occupied:

       1A1  -115.396523     2A1   -77.470671     3A1   -11.432715
       4A1    -8.985560     1B1    -8.980918     1B2    -8.980918
       5A1    -6.931364     6A1    -5.096562     2B1    -5.093121
       2B2    -5.093121     7A1    -1.259314     8A1    -0.901586
       9A1    -0.719055     3B1    -0.702206     3B2    -0.702206
       4B2    -0.539966     4B1    -0.539966

    Alpha Virtual:

      10A1    -0.417349    11A1     0.081894    12A1     0.105632
       5B2     0.120392     5B1     0.120392     1A2     0.139711
      13A1     0.139711     6B1     0.144317     6B2     0.144317
      14A1     0.220301     7B1     0.381019     7B2     0.381019
      15A1     0.393185    16A1     0.531701     2A2     0.557291
      17A1     0.557294     8B1     0.577581     8B2     0.577581
      18A1     0.923395

    Beta Occupied:

       1A1  -115.396386     2A1   -77.461141     3A1   -11.432588
       4A1    -8.985978     1B1    -8.980420     1B2    -8.980420
       5A1    -6.921314     6A1    -5.090993     2B2    -5.073640
       2B1    -5.073640     7A1    -1.258468     8A1    -0.832437
       9A1    -0.701171     3B1    -0.699215     3B2    -0.699215

    Beta Virtual:

       4B2    -0.392927     4B1    -0.392927    10A1    -0.391554
      11A1     0.111674    12A1     0.127253     5B2     0.168108
       5B1     0.168108     6B1     0.189756     6B2     0.189756
      13A1     0.238498     1A2     0.238642    14A1     0.238645
       7B1     0.385418     7B2     0.385418    15A1     0.395196
      16A1     0.532047     2A2     0.559071    17A1     0.559075
       8B1     0.581785     8B2     0.581785    18A1     0.932812

    Final Occupation by Irrep:
             A1    A2    B1    B2
    DOCC [     9,    0,    3,    3 ]
    SOCC [     0,    0,    1,    1 ]
    NA   [     9,    0,    4,    4 ]
    NB   [     9,    0,    3,    3 ]

  @DF-UKS Final Energy:  -868.46536196820739

   => Energetics <=

    Nuclear Repulsion Energy =             59.0268304399187187
    One-Electron Energy =               -1307.7785448603240184
    Two-Electron Energy =                 423.6064160517182700
    DFT Exchange-Correlation Energy =     -43.3200635995203314
    Empirical Dispersion Energy =           0.0000000000000000
    VV10 Nonlocal Energy =                  0.0000000000000000
    Total Energy =                       -868.4653619682073895

  UHF NO Occupations:
  HONO-2 :    9 A1 1.9984103
  HONO-1 :    4 B2 1.0000000
  HONO-0 :    4 B1 1.0000000
  LUNO+0 :   10 A1 0.0015897
  LUNO+1 :   11 A1 0.0004101
  LUNO+2 :    5 B1 0.0000126
  LUNO+3 :    5 B2 0.0000126

Computation Completed

Properties will be evaluated at   0.000000,   0.000000,   0.000000 [a0]

Properties computed using the SCF density matrix

 Multipole Moments:

 ------------------------------------------------------------------------------------
     Multipole            Electronic (a.u.)      Nuclear  (a.u.)        Total (a.u.)
 ------------------------------------------------------------------------------------

 L = 1.  Multiply by 2.5417464519 to convert [e a0] to [Debye]
 Dipole X            :          0.0000000            0.0000000            0.0000000
 Dipole Y            :          0.0000000            0.0000000            0.0000000
 Dipole Z            :         -1.4758070            2.7023648            1.2265578
 Magnitude           :                                                    1.2265578

 ------------------------------------------------------------------------------------

*** tstop() called on Joses-MacBook-Pro-2.local at Thu Jul 17 15:48:56 2025
Module time:
	user time   =       7.77 seconds =       0.13 minutes
	system time =       1.48 seconds =       0.02 minutes
	total time  =          1 seconds =       0.02 minutes
Total time:
	user time   =     225.02 seconds =       3.75 minutes
	system time =      53.18 seconds =       0.89 minutes
	total time  =         26 seconds =       0.43 minutes

*** tstart() called on Joses-MacBook-Pro-2.local
*** at Thu Jul 17 15:48:56 2025

         ------------------------------------------------------------
                                   SCF GRAD
                          Rob Parrish, Justin Turney,
                       Andy Simmonett, and Alex Sokolov
         ------------------------------------------------------------

  ==> Geometry <==

    Molecular point group: c2v
    Full point group: C_inf_v

    Geometry (in Angstrom), charge = 1, multiplicity = 3:

       Center              X                  Y                   Z               Mass
    ------------   -----------------  -----------------  -----------------  -----------------
         P            0.000000000000     0.000000000000     1.363638419145    30.973761998420
         AR           0.000000000000     0.000000000000    -1.056919246176    39.962383123700

  Nuclear repulsion =   59.026830439918719

  ==> Basis Set <==

  Basis Set: CC-PVDZ
    Blend: CC-PVDZ
    Number of shells: 16
    Number of basis functions: 36
    Number of Cartesian functions: 38
    Spherical Harmonics?: true
    Max angular momentum: 2

  ==> DFJKGrad: Density-Fitted SCF Gradients <==

    Gradient:                    1
    J tasked:                  Yes
    K tasked:                  Yes
    wK tasked:                  No
    OpenMP threads:              1
    Integrals threads:           1
    Memory [MiB]:              375
    Schwarz Cutoff:          1E-12
    Fitting Condition:       1E-10

   => Auxiliary Basis Set <=

  Basis Set: (CC-PVDZ AUX)
    Blend: CC-PVDZ-JKFIT
    Number of shells: 72
    Number of basis functions: 224
    Number of Cartesian functions: 260
    Spherical Harmonics?: true
    Max angular momentum: 3

  ==> DFT Potential <==

   => LibXC <=

    Version 6.2.2
    S. Lehtola, C. Steigemann, M. J.T. Oliveira, and M. A.L. Marques.,  SoftwareX 7, 1â€“5 (2018) (10.1016/j.softx.2017.11.002)

   => Composite Functional: B3LYP <=

    B3LYP Hyb-GGA Exchange-Correlation Functional

    P. J. Stephens, F. J. Devlin, C. F. Chabalowski, and M. J. Frisch.,  J. Phys. Chem. 98, 11623 (1994) (10.1021/j100096a001)

    Deriv               =              1
    GGA                 =           TRUE
    Meta                =          FALSE

    Exchange Hybrid     =           TRUE
    MP2 Hybrid          =          FALSE

   => Exchange Functionals <=

    0.0800   Slater exchange
    0.7200         Becke 88

   => Exact (HF) Exchange <=

    0.2000               HF

   => Correlation Functionals <=

    0.1900   Vosko, Wilk & Nusair (VWN5_RPA)
    0.8100   Lee, Yang & Parr

   => LibXC Density Thresholds  <==

    XC_HYB_GGA_XC_B3LYP:  1.00E-15

   => Molecular Quadrature <=

    Radial Scheme          =       TREUTLER
    Pruning Scheme         =           NONE
    Nuclear Scheme         =       TREUTLER

    Blocking Scheme        =         OCTREE
    BS radius alpha        =              1
    Pruning alpha          =              1
    Radial Points          =             75
    Spherical Points       =            302
    Total Points           =          40870
    Total Blocks           =            368
    Max Points             =            251
    Max Functions          =             36
    Weights Tolerance      =       1.00E-15

  -Total Gradient:
     Atom            X                  Y                   Z
    ------   -----------------  -----------------  -----------------
       1        0.000000000000    -0.000000000000    -0.000029954277
       2        0.000000000000    -0.000000000000     0.000040592958

*** tstop() called on Joses-MacBook-Pro-2.local at Thu Jul 17 15:48:56 2025
Module time:
	user time   =       2.42 seconds =       0.04 minutes
	system time =       1.02 seconds =       0.02 minutes
	total time  =          0 seconds =       0.00 minutes
Total time:
	user time   =     227.44 seconds =       3.79 minutes
	system time =      54.20 seconds =       0.90 minutes
	total time  =         26 seconds =       0.43 minutes

    			-----------------------------------------

    			 OPTKING 3.0: for geometry optimizations

    			     By R.A. King, Bethel University

    			        with contributions from

    			    A.V. Copan, J. Cayton, A. Heide

    			-----------------------------------------

	                            ===> Fragment 1 <==

	 Z (Atomic Numbers)          Masses                          Geom
	      15.000000            30.973762          0.00000000  0.00000000  2.57690315
	      18.000000            39.962383          0.00000000  0.00000000 -1.99728791

	 - Coordinate -           - BOHR/RAD -       - ANG/DEG -
	 R(1,2)           =         4.574191           2.420558

	        --- Internal Coordinate Step in ANG or DEG, aJ/ANG or AJ/DEG ---
	-------------------------------------------------------------------------------
	           Coordinate      Previous         Force          Change          New
	           ----------      --------        ------          ------        ------
	               R(1,2)       2.42056        0.00029        0.00043       2.42099
	-------------------------------------------------------------------------------

	                                 ==> Convergence Check <==

	Measures of convergence in internal coordinates in au.

	Criteria marked as inactive (o), active & met (*), and active & unmet ( ).

	----------------------------------------------------------------------------------------------
	   Step    Total Energy     Delta E     Max Force     RMS Force      Max Disp      RMS Disp
	----------------------------------------------------------------------------------------------
	  Convergence Criteria     1.00e-06 *    3.00e-04 *             o    1.20e-03 *             o
	----------------------------------------------------------------------------------------------
	    18    -868.46536197   -3.32e-07 *    3.53e-05 *    3.53e-05 o    8.16e-04 *    8.16e-04 o  ~
	----------------------------------------------------------------------------------------------

Next Geometry in Ang
	Fragment 1 (Ang)

	    P   0.0000000000   0.0000000000   1.3638543542
	   Ar   0.0000000000   0.0000000000  -1.0571351812

    Final optimized geometry and variables:
    Molecular point group: c2v
    Full point group: C_inf_v

    Geometry (in Angstrom), charge = 1, multiplicity = 3:

    P            0.000000000000     0.000000000000     1.363638419145
    AR           0.000000000000     0.000000000000    -1.056919246176

    Psi4 stopped on: Thursday, 17 July 2025 03:48PM
    Psi4 wall time for execution: 0:00:27.28

*** Psi4 exiting successfully. Buy a developer a beer!
