                               Psi4 1.9.1 release

  ==> Input File <==

--------------------------------------------------------------------------
molecule {
1 3
Si   0.00000        0.60000        0.00000
P   0.00000       -0.60000        0.00000
}

set {
basis              cc-pvdz
reference          uks
maxiter            500
geom_maxiter       500
DAMPING_PERCENTAGE 1
guess              SAP
}

optimize('b3lyp')
--------------------------------------------------------------------------

    Molecular point group: c2v
  Charge       = 1
  Multiplicity = 3
  Basis Set: CC-PVDZ
    Blend: CC-PVDZ
  Basis Set: (CC-PVDZ AUX)
    Blend: CC-PVDZ-JKFIT
  @DF-UKS Final Energy:  -629.26291405482698
    Total Energy =                       -629.2629140548269788
 Dipole X            :          0.0000000            0.0000000            0.0000000
 Dipole Y            :          0.0000000            0.0000000            0.0000000
 Dipole Z            :         -0.3609898            0.5377250            0.1767351
 Magnitude           :                                                    0.1767351
    Molecular point group: c2v
  Basis Set: CC-PVDZ
    Blend: CC-PVDZ
  Basis Set: (CC-PVDZ AUX)
    Blend: CC-PVDZ-JKFIT
  Basis Set: CC-PVDZ
    Blend: CC-PVDZ
  Basis Set: (CC-PVDZ AUX)
    Blend: CC-PVDZ-JKFIT
  @DF-UKS Final Energy:  -629.28922097127747
    Total Energy =                       -629.2892209712774729
  Basis Set: CC-PVDZ
    Blend: CC-PVDZ
  Basis Set: (CC-PVDZ AUX)
    Blend: CC-PVDZ-JKFIT
  Basis Set: CC-PVDZ
    Blend: CC-PVDZ
  @DF-UKS Final Energy:  -629.33928368300417
    Total Energy =                       -629.3392836830041688
  @DF-UKS Final Energy:  -629.51330985561083
    Total Energy =                       -629.5133098556108280
  @DF-UKS Final Energy:  -630.05442423549539
    Total Energy =                       -630.0544242354952758
  @DF-UKS Final Energy:  -630.28437373189900
    Total Energy =                       -630.2843737318989952
  @DF-UKS Final Energy:  -630.40434302316089
    Total Energy =                       -630.4043430231610046
  @DF-UKS Final Energy:  -630.44152272097608
    Total Energy =                       -630.4415227209760815
  @DF-UKS Final Energy:  -630.45508048338422
    Total Energy =                       -630.4550804833842221
  @DF-UKS Final Energy:  -630.45778727428501
    Total Energy =                       -630.4577872742848967
  @DF-UKS Final Energy:  -630.45854624590129
    Total Energy =                       -630.4585462459012888
  @DF-UKS Final Energy:  -630.45864412122887
    Total Energy =                       -630.4586441212288719
  Basis Set: (CC-PVDZ AUX)
    Blend: CC-PVDZ-JKFIT
  Basis Set: CC-PVDZ
    Blend: CC-PVDZ
  Basis Set: (CC-PVDZ AUX)
    Blend: CC-PVDZ-JKFIT
  @DF-UKS Final Energy:  -630.45865777478764
    Total Energy =                       -630.4586577747876390
  Basis Set: CC-PVDZ
    Blend: CC-PVDZ
  Basis Set: (CC-PVDZ AUX)
    Blend: CC-PVDZ-JKFIT
  Charge       = 1
  Multiplicity = 3
  Basis Set: CC-PVDZ
    Blend: CC-PVDZ
  Basis Set: (CC-PVDZ AUX)
    Blend: CC-PVDZ-JKFIT

    Orbital Energies [Eh]
    ---------------------

    Alpha Occupied:

       1A1   -77.384522     2A1   -66.478150     3A1    -6.851469
       4A1    -5.616150     1B2    -5.017332     5A1    -5.015794
       1B1    -5.006839     2B2    -3.977065     6A1    -3.975424
       2B1    -3.971261     7A1    -0.897549     8A1    -0.689945
       9A1    -0.537639     3B2    -0.525320     3B1    -0.496962

    Alpha Virtual:

       4B2    -0.347195     4B1    -0.328522    10A1    -0.196601
      11A1    -0.044201     5B2     0.012843     5B1     0.030000
      12A1     0.045486     1A2     0.079584    13A1     0.079847
       6B2     0.090263     6B1     0.101789    14A1     0.124988
       7B2     0.200002     7B1     0.219303     2A2     0.235745
      15A1     0.235872    16A1     0.289092    17A1     0.386402
       8B2     0.404988     8B1     0.425236    18A1     0.724563

    Beta Occupied:

       1A1   -77.378428     2A1   -66.475165     3A1    -6.844932
       4A1    -5.612608     1B2    -5.004531     5A1    -5.004391
       1B1    -5.002366     2B2    -3.972314     2B1    -3.969929
       6A1    -3.967434     7A1    -0.842029     8A1    -0.639597
       3B1    -0.481760

    Beta Virtual:

       9A1    -0.430947     3B2    -0.417582     4B1    -0.314185
       4B2    -0.300762    10A1    -0.162468    11A1    -0.017598
       5B1     0.050121     5B2     0.056692    12A1     0.068488
       1A2     0.099014    13A1     0.100482     6B1     0.115045
       6B2     0.116257    14A1     0.152084     7B1     0.228263
       7B2     0.232440     2A2     0.273554    15A1     0.276013
      16A1     0.309734    17A1     0.417225     8B1     0.451897
       8B2     0.455962    18A1     0.756526

    Final Occupation by Irrep:
             A1    A2    B1    B2
    DOCC [     8,    0,    3,    2 ]
    SOCC [     1,    0,    0,    1 ]
    NA   [     9,    0,    3,    3 ]
    NB   [     8,    0,    3,    2 ]

  @DF-UKS Final Energy:  -630.45865997396550

   => Energetics <=

    Nuclear Repulsion Energy =             52.6943857246468070
    One-Electron Energy =                -969.5451964562607827
    Two-Electron Energy =                 321.6666742935770458
    DFT Exchange-Correlation Energy =     -35.2745235359286937
    Empirical Dispersion Energy =           0.0000000000000000
    VV10 Nonlocal Energy =                  0.0000000000000000
    Total Energy =                       -630.4586599739654957

  UHF NO Occupations:
  HONO-2 :    8 A1 1.9981441
  HONO-1 :    9 A1 1.0000000
  HONO-0 :    3 B2 1.0000000
  LUNO+0 :   10 A1 0.0018559
  LUNO+1 :    4 B1 0.0018509
  LUNO+2 :   11 A1 0.0005237
  LUNO+3 :    5 B1 0.0000001

Computation Completed

Properties will be evaluated at   0.000000,   0.000000,   0.000000 [a0]

Properties computed using the SCF density matrix

 Multipole Moments:

 ------------------------------------------------------------------------------------
     Multipole            Electronic (a.u.)      Nuclear  (a.u.)        Total (a.u.)
 ------------------------------------------------------------------------------------

 L = 1.  Multiply by 2.5417464519 to convert [e a0] to [Debye]
 Dipole X            :          0.0000000            0.0000000            0.0000000
 Dipole Y            :          0.0000000            0.0000000            0.0000000
 Dipole Z            :         -0.1565271            0.9450070            0.7884799
 Magnitude           :                                                    0.7884799

 ------------------------------------------------------------------------------------

*** tstop() called on Joses-MacBook-Pro-2.local at Thu Jul 17 15:40:16 2025
Module time:
	user time   =       8.48 seconds =       0.14 minutes
	system time =       1.71 seconds =       0.03 minutes
	total time  =          1 seconds =       0.02 minutes
Total time:
	user time   =     180.69 seconds =       3.01 minutes
	system time =      42.50 seconds =       0.71 minutes
	total time  =         21 seconds =       0.35 minutes

*** tstart() called on Joses-MacBook-Pro-2.local
*** at Thu Jul 17 15:40:16 2025

         ------------------------------------------------------------
                                   SCF GRAD
                          Rob Parrish, Justin Turney,
                       Andy Simmonett, and Alex Sokolov
         ------------------------------------------------------------

  ==> Geometry <==

    Molecular point group: c2v
    Full point group: C_inf_v

    Geometry (in Angstrom), charge = 1, multiplicity = 3:

       Center              X                  Y                   Z               Mass
    ------------   -----------------  -----------------  -----------------  -----------------
         SI           0.000000000000     0.000000000000     1.108054588003    27.976926534650
         P            0.000000000000     0.000000000000    -1.000845870983    30.973761998420

  Nuclear repulsion =   52.694385724646807

  ==> Basis Set <==

  Basis Set: CC-PVDZ
    Blend: CC-PVDZ
    Number of shells: 16
    Number of basis functions: 36
    Number of Cartesian functions: 38
    Spherical Harmonics?: true
    Max angular momentum: 2

  ==> DFJKGrad: Density-Fitted SCF Gradients <==

    Gradient:                    1
    J tasked:                  Yes
    K tasked:                  Yes
    wK tasked:                  No
    OpenMP threads:              1
    Integrals threads:           1
    Memory [MiB]:              375
    Schwarz Cutoff:          1E-12
    Fitting Condition:       1E-10

   => Auxiliary Basis Set <=

  Basis Set: (CC-PVDZ AUX)
    Blend: CC-PVDZ-JKFIT
    Number of shells: 72
    Number of basis functions: 224
    Number of Cartesian functions: 260
    Spherical Harmonics?: true
    Max angular momentum: 3

  ==> DFT Potential <==

   => LibXC <=

    Version 6.2.2
    S. Lehtola, C. Steigemann, M. J.T. Oliveira, and M. A.L. Marques.,  SoftwareX 7, 1â€“5 (2018) (10.1016/j.softx.2017.11.002)

   => Composite Functional: B3LYP <=

    B3LYP Hyb-GGA Exchange-Correlation Functional

    P. J. Stephens, F. J. Devlin, C. F. Chabalowski, and M. J. Frisch.,  J. Phys. Chem. 98, 11623 (1994) (10.1021/j100096a001)

    Deriv               =              1
    GGA                 =           TRUE
    Meta                =          FALSE

    Exchange Hybrid     =           TRUE
    MP2 Hybrid          =          FALSE

   => Exchange Functionals <=

    0.0800   Slater exchange
    0.7200         Becke 88

   => Exact (HF) Exchange <=

    0.2000               HF

   => Correlation Functionals <=

    0.1900   Vosko, Wilk & Nusair (VWN5_RPA)
    0.8100   Lee, Yang & Parr

   => LibXC Density Thresholds  <==

    XC_HYB_GGA_XC_B3LYP:  1.00E-15

   => Molecular Quadrature <=

    Radial Scheme          =       TREUTLER
    Pruning Scheme         =           NONE
    Nuclear Scheme         =       TREUTLER

    Blocking Scheme        =         OCTREE
    BS radius alpha        =              1
    Pruning alpha          =              1
    Radial Points          =             75
    Spherical Points       =            302
    Total Points           =          41600
    Total Blocks           =            383
    Max Points             =            256
    Max Functions          =             36
    Weights Tolerance      =       1.00E-15

  -Total Gradient:
     Atom            X                  Y                   Z
    ------   -----------------  -----------------  -----------------
       1       -0.000000000000     0.000000000000    -0.000184062888
       2        0.000000000000    -0.000000000000     0.000192668466

*** tstop() called on Joses-MacBook-Pro-2.local at Thu Jul 17 15:40:17 2025
Module time:
	user time   =       2.92 seconds =       0.05 minutes
	system time =       0.89 seconds =       0.01 minutes
	total time  =          1 seconds =       0.02 minutes
Total time:
	user time   =     183.62 seconds =       3.06 minutes
	system time =      43.39 seconds =       0.72 minutes
	total time  =         22 seconds =       0.37 minutes

    			-----------------------------------------

    			 OPTKING 3.0: for geometry optimizations

    			     By R.A. King, Bethel University

    			        with contributions from

    			    A.V. Copan, J. Cayton, A. Heide

    			-----------------------------------------

	                            ===> Fragment 1 <==

	 Z (Atomic Numbers)          Masses                          Geom
	      14.000000            27.976927          0.00000000  0.00000000  2.09391970
	      15.000000            30.973762          0.00000000  0.00000000 -1.89132459

	 - Coordinate -           - BOHR/RAD -       - ANG/DEG -
	 R(1,2)           =         3.985244           2.108900

	        --- Internal Coordinate Step in ANG or DEG, aJ/ANG or AJ/DEG ---
	-------------------------------------------------------------------------------
	           Coordinate      Previous         Force          Change          New
	           ----------      --------        ------          ------        ------
	               R(1,2)       2.10890        0.00155        0.00051       2.10941
	-------------------------------------------------------------------------------

	                                 ==> Convergence Check <==

	Measures of convergence in internal coordinates in au.

	Criteria marked as inactive (o), active & met (*), and active & unmet ( ).

	----------------------------------------------------------------------------------------------
	   Step    Total Energy     Delta E     Max Force     RMS Force      Max Disp      RMS Disp
	----------------------------------------------------------------------------------------------
	  Convergence Criteria     1.00e-06 *    3.00e-04 *             o    1.20e-03 *             o
	----------------------------------------------------------------------------------------------
	    14    -630.45865997   -2.20e-06      1.88e-04 *    1.88e-04 o    9.64e-04 *    9.64e-04 o  ~
	----------------------------------------------------------------------------------------------

Next Geometry in Ang
	Fragment 1 (Ang)

	   Si   0.0000000000   0.0000000000   1.1083095203
	    P   0.0000000000   0.0000000000  -1.0011008033

    Final optimized geometry and variables:
    Molecular point group: c2v
    Full point group: C_inf_v

    Geometry (in Angstrom), charge = 1, multiplicity = 3:

    SI           0.000000000000     0.000000000000     1.108054588003
    P            0.000000000000     0.000000000000    -1.000845870983

    Psi4 stopped on: Thursday, 17 July 2025 03:40PM
    Psi4 wall time for execution: 0:00:22.08

*** Psi4 exiting successfully. Buy a developer a beer!
