                               Psi4 1.9.1 release

  ==> Input File <==

--------------------------------------------------------------------------
molecule {
1 3
Li   0.00000        0.60000        0.00000
C   0.00000       -0.60000        0.00000
}

set {
basis              cc-pvdz
reference          uks
maxiter            500
geom_maxiter       500
DAMPING_PERCENTAGE 1
guess              SAP
}

optimize('b3lyp')
--------------------------------------------------------------------------

    Molecular point group: c2v
  Charge       = 1
  Multiplicity = 3
  Basis Set: CC-PVDZ
    Blend: CC-PVDZ
  Basis Set: (CC-PVDZ AUX)
    Blend: CC-PVDZ-JKFIT + DEF2-UNIVERSAL-JKFIT
  @DF-UKS Final Energy:   -44.91753797663117
    Total Energy =                        -44.9175379766311664
 Dipole X            :          0.0000000            0.0000000            0.0000000
 Dipole Y            :          0.0000000            0.0000000            0.0000000
 Dipole Z            :          1.7292688           -0.7269546            1.0023142
 Magnitude           :                                                    1.0023142
    Molecular point group: c2v
  Basis Set: CC-PVDZ
    Blend: CC-PVDZ
  Basis Set: (CC-PVDZ AUX)
    Blend: CC-PVDZ-JKFIT + DEF2-UNIVERSAL-JKFIT
  Basis Set: CC-PVDZ
    Blend: CC-PVDZ
  Basis Set: (CC-PVDZ AUX)
    Blend: CC-PVDZ-JKFIT + DEF2-UNIVERSAL-JKFIT
  @DF-UKS Final Energy:   -45.02493235669078
    Total Energy =                        -45.0249323566907762
  Basis Set: CC-PVDZ
    Blend: CC-PVDZ
  Basis Set: (CC-PVDZ AUX)
    Blend: CC-PVDZ-JKFIT + DEF2-UNIVERSAL-JKFIT
  Basis Set: CC-PVDZ
    Blend: CC-PVDZ
  @DF-UKS Final Energy:   -45.08057626239616
    Total Energy =                        -45.0805762623961570
  @DF-UKS Final Energy:   -45.10784233580132
    Total Energy =                        -45.1078423358013154
  @DF-UKS Final Energy:   -45.12183014297021
    Total Energy =                        -45.1218301429702109
  @DF-UKS Final Energy:   -45.12896222957978
    Total Energy =                        -45.1289622295797841
  @DF-UKS Final Energy:   -45.13255687152987
    Total Energy =                        -45.1325568715298715
  @DF-UKS Final Energy:   -45.13430028925688
    Total Energy =                        -45.1343002892568776
  @DF-UKS Final Energy:   -45.13511791867197
    Total Energy =                        -45.1351179186719662
  @DF-UKS Final Energy:   -45.13549080856411
    Total Energy =                        -45.1354908085641071
  @DF-UKS Final Energy:   -45.13565606097196
    Total Energy =                        -45.1356560609719679
  @DF-UKS Final Energy:   -45.13571215486125
    Total Energy =                        -45.1357121548612596
  @DF-UKS Final Energy:   -45.13574539169125
    Total Energy =                        -45.1357453916912448
  @DF-UKS Final Energy:   -45.13576344462646
    Total Energy =                        -45.1357634446264555
  @DF-UKS Final Energy:   -45.13577071502547
    Total Energy =                        -45.1357707150254726
  @DF-UKS Final Energy:   -45.13577538381105
    Total Energy =                        -45.1357753838110511
  @DF-UKS Final Energy:   -45.13577786928595
    Total Energy =                        -45.1357778692859384
  @DF-UKS Final Energy:   -45.13578039331587
    Total Energy =                        -45.1357803933158692
  @DF-UKS Final Energy:   -45.13578412885930
    Total Energy =                        -45.1357841288592994
  @DF-UKS Final Energy:   -45.13579111955846
    Total Energy =                        -45.1357911195584620
  Basis Set: (CC-PVDZ AUX)
    Blend: CC-PVDZ-JKFIT + DEF2-UNIVERSAL-JKFIT
  Basis Set: CC-PVDZ
    Blend: CC-PVDZ
  Basis Set: (CC-PVDZ AUX)
    Blend: CC-PVDZ-JKFIT + DEF2-UNIVERSAL-JKFIT
  @DF-UKS Final Energy:   -45.13585385538633
    Total Energy =                        -45.1358538553863298
  Basis Set: CC-PVDZ
    Blend: CC-PVDZ
  Basis Set: (CC-PVDZ AUX)
    Blend: CC-PVDZ-JKFIT + DEF2-UNIVERSAL-JKFIT
  Charge       = 1
  Multiplicity = 3
  Basis Set: CC-PVDZ
    Blend: CC-PVDZ
  Basis Set: (CC-PVDZ AUX)
    Blend: CC-PVDZ-JKFIT + DEF2-UNIVERSAL-JKFIT

    Orbital Energies [Eh]
    ---------------------

    Alpha Occupied:

       1A1   -10.449168     2A1    -2.350787     3A1    -0.724826
       1B1    -0.400076     1B2    -0.400076

    Alpha Virtual:

       4A1    -0.301805     5A1    -0.245328     2B2    -0.177263
       2B1    -0.177263     6A1    -0.170895     7A1    -0.065800
       3B2    -0.064659     3B1    -0.064659     8A1    -0.047238
       4B2     0.070367     4B1     0.070367     9A1     0.073849
      10A1     0.076173     1A2     0.076182     5B1     0.328634
       5B2     0.328634    11A1     0.377045    12A1     0.521456
      13A1     0.974333     2A2     0.974419     6B1     0.980557
       6B2     0.980557    14A1     1.002517

    Beta Occupied:

       1A1   -10.420906     2A1    -2.350788     3A1    -0.614808

    Beta Virtual:

       4A1    -0.279518     5A1    -0.240381     1B2    -0.209367
       1B1    -0.209367     2B2    -0.175124     2B1    -0.175124
       6A1    -0.169460     7A1    -0.065565     3B2    -0.062510
       3B1    -0.062510     8A1    -0.045312     4B2     0.068072
       4B1     0.068072     1A2     0.074654     9A1     0.074664
      10A1     0.076347    11A1     0.398717     5B2     0.404697
       5B1     0.404697    12A1     0.567779    13A1     1.045789
       6B1     1.050308     6B2     1.050308    14A1     1.090006
       2A2     1.090104

    Final Occupation by Irrep:
             A1    A2    B1    B2
    DOCC [     3,    0,    0,    0 ]
    SOCC [     0,    0,    1,    1 ]
    NA   [     3,    0,    1,    1 ]
    NB   [     3,    0,    0,    0 ]

  @DF-UKS Final Energy:   -45.13585400897966

   => Energetics <=

    Nuclear Repulsion Energy =              2.4864377157989730
    One-Electron Energy =                 -63.4960751122236857
    Two-Electron Energy =                  21.4637127143200104
    DFT Exchange-Correlation Energy =      -5.5899293268749615
    Empirical Dispersion Energy =           0.0000000000000000
    VV10 Nonlocal Energy =                  0.0000000000000000
    Total Energy =                        -45.1358540089796634

  UHF NO Occupations:
  HONO-2 :    3 A1 1.9980929
  HONO-1 :    1 B1 1.0000000
  HONO-0 :    1 B2 1.0000000
  LUNO+0 :    4 A1 0.0019071
  LUNO+1 :    5 A1 0.0000003
  LUNO+2 :    6 A1 0.0000000
  LUNO+3 :    7 A1 0.0000000

Computation Completed

Properties will be evaluated at   0.000000,   0.000000,   0.000000 [a0]

Properties computed using the SCF density matrix

 Multipole Moments:

 ------------------------------------------------------------------------------------
     Multipole            Electronic (a.u.)      Nuclear  (a.u.)        Total (a.u.)
 ------------------------------------------------------------------------------------

 L = 1.  Multiply by 2.5417464519 to convert [e a0] to [Debye]
 Dipole X            :          0.0000000            0.0000000            0.0000000
 Dipole Y            :          0.0000000            0.0000000            0.0000000
 Dipole Z            :          6.7060145           -2.3207166            4.3852979
 Magnitude           :                                                    4.3852979

 ------------------------------------------------------------------------------------

*** tstop() called on Joses-MacBook-Pro-2.local at Thu Jul 17 12:44:48 2025
Module time:
	user time   =       1.90 seconds =       0.03 minutes
	system time =       2.53 seconds =       0.04 minutes
	total time  =          0 seconds =       0.00 minutes
Total time:
	user time   =      81.51 seconds =       1.36 minutes
	system time =     106.13 seconds =       1.77 minutes
	total time  =         17 seconds =       0.28 minutes

*** tstart() called on Joses-MacBook-Pro-2.local
*** at Thu Jul 17 12:44:48 2025

         ------------------------------------------------------------
                                   SCF GRAD
                          Rob Parrish, Justin Turney,
                       Andy Simmonett, and Alex Sokolov
         ------------------------------------------------------------

  ==> Geometry <==

    Molecular point group: c2v
    Full point group: C_inf_v

    Geometry (in Angstrom), charge = 1, multiplicity = 3:

       Center              X                  Y                   Z               Mass
    ------------   -----------------  -----------------  -----------------  -----------------
         LI           0.000000000000     0.000000000000     2.417453070106     7.016003436600
         C            0.000000000000     0.000000000000    -1.413404920640    12.000000000000

  Nuclear repulsion =    2.486437715798973

  ==> Basis Set <==

  Basis Set: CC-PVDZ
    Blend: CC-PVDZ
    Number of shells: 12
    Number of basis functions: 28
    Number of Cartesian functions: 30
    Spherical Harmonics?: true
    Max angular momentum: 2

  ==> DFJKGrad: Density-Fitted SCF Gradients <==

    Gradient:                    1
    J tasked:                  Yes
    K tasked:                  Yes
    wK tasked:                  No
    OpenMP threads:              1
    Integrals threads:           1
    Memory [MiB]:              375
    Schwarz Cutoff:          1E-12
    Fitting Condition:       1E-10

   => Auxiliary Basis Set <=

  Basis Set: (CC-PVDZ AUX)
    Blend: CC-PVDZ-JKFIT + DEF2-UNIVERSAL-JKFIT
    Number of shells: 41
    Number of basis functions: 121
    Number of Cartesian functions: 141
    Spherical Harmonics?: true
    Max angular momentum: 3

  ==> DFT Potential <==

   => LibXC <=

    Version 6.2.2
    S. Lehtola, C. Steigemann, M. J.T. Oliveira, and M. A.L. Marques.,  SoftwareX 7, 1â€“5 (2018) (10.1016/j.softx.2017.11.002)

   => Composite Functional: B3LYP <=

    B3LYP Hyb-GGA Exchange-Correlation Functional

    P. J. Stephens, F. J. Devlin, C. F. Chabalowski, and M. J. Frisch.,  J. Phys. Chem. 98, 11623 (1994) (10.1021/j100096a001)

    Deriv               =              1
    GGA                 =           TRUE
    Meta                =          FALSE

    Exchange Hybrid     =           TRUE
    MP2 Hybrid          =          FALSE

   => Exchange Functionals <=

    0.0800   Slater exchange
    0.7200         Becke 88

   => Exact (HF) Exchange <=

    0.2000               HF

   => Correlation Functionals <=

    0.1900   Vosko, Wilk & Nusair (VWN5_RPA)
    0.8100   Lee, Yang & Parr

   => LibXC Density Thresholds  <==

    XC_HYB_GGA_XC_B3LYP:  1.00E-15

   => Molecular Quadrature <=

    Radial Scheme          =       TREUTLER
    Pruning Scheme         =           NONE
    Nuclear Scheme         =       TREUTLER

    Blocking Scheme        =         OCTREE
    BS radius alpha        =              1
    Pruning alpha          =              1
    Radial Points          =             75
    Spherical Points       =            302
    Total Points           =          44393
    Total Blocks           =            435
    Max Points             =            256
    Max Functions          =             28
    Weights Tolerance      =       1.00E-15

  -Total Gradient:
     Atom            X                  Y                   Z
    ------   -----------------  -----------------  -----------------
       1        0.000000000000     0.000000000000    -0.000119634165
       2       -0.000000000000     0.000000000000     0.000104913354

*** tstop() called on Joses-MacBook-Pro-2.local at Thu Jul 17 12:44:49 2025
Module time:
	user time   =       0.82 seconds =       0.01 minutes
	system time =       1.20 seconds =       0.02 minutes
	total time  =          1 seconds =       0.02 minutes
Total time:
	user time   =      82.33 seconds =       1.37 minutes
	system time =     107.33 seconds =       1.79 minutes
	total time  =         18 seconds =       0.30 minutes

    			-----------------------------------------

    			 OPTKING 3.0: for geometry optimizations

    			     By R.A. King, Bethel University

    			        with contributions from

    			    A.V. Copan, J. Cayton, A. Heide

    			-----------------------------------------

	                            ===> Fragment 1 <==

	 Z (Atomic Numbers)          Masses                          Geom
	       3.000000             7.016003          0.00000000  0.00000000  4.56832422
	       6.000000            12.000000          0.00000000  0.00000000 -2.67094820

	 - Coordinate -           - BOHR/RAD -       - ANG/DEG -
	 R(1,2)           =         7.239272           3.830858

	        --- Internal Coordinate Step in ANG or DEG, aJ/ANG or AJ/DEG ---
	-------------------------------------------------------------------------------
	           Coordinate      Previous         Force          Change          New
	           ----------      --------        ------          ------        ------
	               R(1,2)       3.83086        0.00092        0.00071       3.83157
	-------------------------------------------------------------------------------

	                                 ==> Convergence Check <==

	Measures of convergence in internal coordinates in au.

	Criteria marked as inactive (o), active & met (*), and active & unmet ( ).

	----------------------------------------------------------------------------------------------
	   Step    Total Energy     Delta E     Max Force     RMS Force      Max Disp      RMS Disp
	----------------------------------------------------------------------------------------------
	  Convergence Criteria     1.00e-06 *    3.00e-04 *             o    1.20e-03 *             o
	----------------------------------------------------------------------------------------------
	    22     -45.13585401   -1.54e-07 *    1.12e-04 *    1.12e-04 o    1.34e-03      1.34e-03 o  ~
	----------------------------------------------------------------------------------------------

Next Geometry in Ang
	Fragment 1 (Ang)

	   Li   0.0000000000   0.0000000000   2.4178088865
	    C   0.0000000000   0.0000000000  -1.4137607370

    Final optimized geometry and variables:
    Molecular point group: c2v
    Full point group: C_inf_v

    Geometry (in Angstrom), charge = 1, multiplicity = 3:

    LI           0.000000000000     0.000000000000     2.417453070106
    C            0.000000000000     0.000000000000    -1.413404920640

    Psi4 stopped on: Thursday, 17 July 2025 12:44PM
    Psi4 wall time for execution: 0:00:18.43

*** Psi4 exiting successfully. Buy a developer a beer!
