                               Psi4 1.9.1 release

  ==> Input File <==

--------------------------------------------------------------------------
molecule {
1 3
B   0.00000        0.60000        0.00000
Si   0.00000       -0.60000        0.00000
}

set {
basis              cc-pvdz
reference          uks
maxiter            500
geom_maxiter       500
DAMPING_PERCENTAGE 1
guess              SAP
}

optimize('b3lyp')
--------------------------------------------------------------------------

    Molecular point group: c2v
  Charge       = 1
  Multiplicity = 3
  Basis Set: CC-PVDZ
    Blend: CC-PVDZ
  Basis Set: (CC-PVDZ AUX)
    Blend: CC-PVDZ-JKFIT
  @DF-UKS Final Energy:  -313.33174504619353
    Total Energy =                       -313.3317450461935891
 Dipole X            :          0.0000000            0.0000000            0.0000000
 Dipole Y            :          0.0000000            0.0000000            0.0000000
 Dipole Z            :          0.7612633           -0.8286114           -0.0673480
 Magnitude           :                                                    0.0673480
    Molecular point group: c2v
  Basis Set: CC-PVDZ
    Blend: CC-PVDZ
  Basis Set: (CC-PVDZ AUX)
    Blend: CC-PVDZ-JKFIT
  Basis Set: CC-PVDZ
    Blend: CC-PVDZ
  Basis Set: (CC-PVDZ AUX)
    Blend: CC-PVDZ-JKFIT
  @DF-UKS Final Energy:  -313.53566244680172
    Total Energy =                       -313.5356624468017799
  Basis Set: CC-PVDZ
    Blend: CC-PVDZ
  Basis Set: (CC-PVDZ AUX)
    Blend: CC-PVDZ-JKFIT
  Basis Set: CC-PVDZ
    Blend: CC-PVDZ
  @DF-UKS Final Energy:  -313.65909679072405
    Total Energy =                       -313.6590967907239929
  @DF-UKS Final Energy:  -313.78107673299235
    Total Energy =                       -313.7810767329923465
  @DF-UKS Final Energy:  -313.83340234572188
    Total Energy =                       -313.8334023457218791
  @DF-UKS Final Energy:  -313.83406682458877
    Total Energy =                       -313.8340668245887741
  @DF-UKS Final Energy:  -313.83509314091577
    Total Energy =                       -313.8350931409158306
  Basis Set: (CC-PVDZ AUX)
    Blend: CC-PVDZ-JKFIT
  Basis Set: CC-PVDZ
    Blend: CC-PVDZ
  Basis Set: (CC-PVDZ AUX)
    Blend: CC-PVDZ-JKFIT
  @DF-UKS Final Energy:  -313.83512176322131
    Total Energy =                       -313.8351217632212524
  Basis Set: CC-PVDZ
    Blend: CC-PVDZ
  Basis Set: (CC-PVDZ AUX)
    Blend: CC-PVDZ-JKFIT
  Charge       = 1
  Multiplicity = 3
  Basis Set: CC-PVDZ
    Blend: CC-PVDZ
  Basis Set: (CC-PVDZ AUX)
    Blend: CC-PVDZ-JKFIT

    Orbital Energies [Eh]
    ---------------------

    Alpha Occupied:

       1A1   -66.481087     2A1    -7.146409     3A1    -5.617366
       1B2    -3.976997     1B1    -3.976997     4A1    -3.973766
       5A1    -0.814230     6A1    -0.605787     2B2    -0.493686
       2B1    -0.493686

    Alpha Virtual:

       7A1    -0.427750     3B1    -0.316725     3B2    -0.316725
       8A1    -0.149756     9A1     0.003875     4B1     0.047741
       4B2     0.047741    10A1     0.050130    11A1     0.078226
       1A2     0.078227     5B2     0.089294     5B1     0.089294
      12A1     0.095049     6B2     0.147633     6B1     0.147633
      13A1     0.330016    14A1     0.442566     2A2     0.442566
      15A1     0.450548     7B1     0.632172     7B2     0.632172
      16A1     0.871119

    Beta Occupied:

       1A1   -66.478383     2A1    -7.133614     3A1    -5.614265
       4A1    -3.973956     1B2    -3.970152     1B1    -3.970152
       5A1    -0.765084     6A1    -0.572630

    Beta Virtual:

       7A1    -0.402776     2B2    -0.385049     2B1    -0.385049
       3B1    -0.263572     3B2    -0.263572     8A1    -0.134607
       9A1     0.017126    10A1     0.061247     4B1     0.071655
       4B2     0.071655    11A1     0.103282     5B2     0.123346
       5B1     0.123346     1A2     0.124475    12A1     0.124475
       6B2     0.163697     6B1     0.163697    13A1     0.350945
      14A1     0.469546    15A1     0.501828     2A2     0.501829
       7B1     0.670495     7B2     0.670495    16A1     0.893907

    Final Occupation by Irrep:
             A1    A2    B1    B2
    DOCC [     6,    0,    1,    1 ]
    SOCC [     0,    0,    1,    1 ]
    NA   [     6,    0,    2,    2 ]
    NB   [     6,    0,    1,    1 ]

  @DF-UKS Final Energy:  -313.83512264643406

   => Energetics <=

    Nuclear Repulsion Energy =             19.1020509147430069
    One-Electron Energy =                -465.7014537029069743
    Two-Electron Energy =                 152.5261534581313754
    DFT Exchange-Correlation Energy =     -19.7618733164014735
    Empirical Dispersion Energy =           0.0000000000000000
    VV10 Nonlocal Energy =                  0.0000000000000000
    Total Energy =                       -313.8351226464340584

  UHF NO Occupations:
  HONO-2 :    6 A1 1.9750305
  HONO-1 :    2 B2 1.0000000
  HONO-0 :    2 B1 1.0000000
  LUNO+0 :    7 A1 0.0249695
  LUNO+1 :    8 A1 0.0008137
  LUNO+2 :    9 A1 0.0000002
  LUNO+3 :    3 B1 0.0000001

Computation Completed

Properties will be evaluated at   0.000000,   0.000000,   0.000000 [a0]

Properties computed using the SCF density matrix

 Multipole Moments:

 ------------------------------------------------------------------------------------
     Multipole            Electronic (a.u.)      Nuclear  (a.u.)        Total (a.u.)
 ------------------------------------------------------------------------------------

 L = 1.  Multiply by 2.5417464519 to convert [e a0] to [Debye]
 Dipole X            :          0.0000000            0.0000000            0.0000000
 Dipole Y            :          0.0000000            0.0000000            0.0000000
 Dipole Z            :          1.6279538           -1.3390254            0.2889284
 Magnitude           :                                                    0.2889284

 ------------------------------------------------------------------------------------

*** tstop() called on Joses-MacBook-Pro-2.local at Thu Jul 17 13:36:15 2025
Module time:
	user time   =       2.33 seconds =       0.04 minutes
	system time =       5.08 seconds =       0.08 minutes
	total time  =          0 seconds =       0.00 minutes
Total time:
	user time   =      32.29 seconds =       0.54 minutes
	system time =      69.07 seconds =       1.15 minutes
	total time  =         10 seconds =       0.17 minutes

*** tstart() called on Joses-MacBook-Pro-2.local
*** at Thu Jul 17 13:36:15 2025

         ------------------------------------------------------------
                                   SCF GRAD
                          Rob Parrish, Justin Turney,
                       Andy Simmonett, and Alex Sokolov
         ------------------------------------------------------------

  ==> Geometry <==

    Molecular point group: c2v
    Full point group: C_inf_v

    Geometry (in Angstrom), charge = 1, multiplicity = 3:

       Center              X                  Y                   Z               Mass
    ------------   -----------------  -----------------  -----------------  -----------------
         B            0.000000000000     0.000000000000     1.391579156757    11.009305360000
         SI           0.000000000000     0.000000000000    -0.547605536669    27.976926534650

  Nuclear repulsion =   19.102050914743007

  ==> Basis Set <==

  Basis Set: CC-PVDZ
    Blend: CC-PVDZ
    Number of shells: 14
    Number of basis functions: 32
    Number of Cartesian functions: 34
    Spherical Harmonics?: true
    Max angular momentum: 2

  ==> DFJKGrad: Density-Fitted SCF Gradients <==

    Gradient:                    1
    J tasked:                  Yes
    K tasked:                  Yes
    wK tasked:                  No
    OpenMP threads:              1
    Integrals threads:           1
    Memory [MiB]:              375
    Schwarz Cutoff:          1E-12
    Fitting Condition:       1E-10

   => Auxiliary Basis Set <=

  Basis Set: (CC-PVDZ AUX)
    Blend: CC-PVDZ-JKFIT
    Number of shells: 60
    Number of basis functions: 182
    Number of Cartesian functions: 211
    Spherical Harmonics?: true
    Max angular momentum: 3

  ==> DFT Potential <==

   => LibXC <=

    Version 6.2.2
    S. Lehtola, C. Steigemann, M. J.T. Oliveira, and M. A.L. Marques.,  SoftwareX 7, 1â€“5 (2018) (10.1016/j.softx.2017.11.002)

   => Composite Functional: B3LYP <=

    B3LYP Hyb-GGA Exchange-Correlation Functional

    P. J. Stephens, F. J. Devlin, C. F. Chabalowski, and M. J. Frisch.,  J. Phys. Chem. 98, 11623 (1994) (10.1021/j100096a001)

    Deriv               =              1
    GGA                 =           TRUE
    Meta                =          FALSE

    Exchange Hybrid     =           TRUE
    MP2 Hybrid          =          FALSE

   => Exchange Functionals <=

    0.0800   Slater exchange
    0.7200         Becke 88

   => Exact (HF) Exchange <=

    0.2000               HF

   => Correlation Functionals <=

    0.1900   Vosko, Wilk & Nusair (VWN5_RPA)
    0.8100   Lee, Yang & Parr

   => LibXC Density Thresholds  <==

    XC_HYB_GGA_XC_B3LYP:  1.00E-15

   => Molecular Quadrature <=

    Radial Scheme          =       TREUTLER
    Pruning Scheme         =           NONE
    Nuclear Scheme         =       TREUTLER

    Blocking Scheme        =         OCTREE
    BS radius alpha        =              1
    Pruning alpha          =              1
    Radial Points          =             75
    Spherical Points       =            302
    Total Points           =          42130
    Total Blocks           =            387
    Max Points             =            256
    Max Functions          =             32
    Weights Tolerance      =       1.00E-15

  -Total Gradient:
     Atom            X                  Y                   Z
    ------   -----------------  -----------------  -----------------
       1        0.000000000000    -0.000000000000    -0.000096428337
       2        0.000000000000    -0.000000000000     0.000086110109

*** tstop() called on Joses-MacBook-Pro-2.local at Thu Jul 17 13:36:16 2025
Module time:
	user time   =       0.70 seconds =       0.01 minutes
	system time =       1.98 seconds =       0.03 minutes
	total time  =          1 seconds =       0.02 minutes
Total time:
	user time   =      33.00 seconds =       0.55 minutes
	system time =      71.06 seconds =       1.18 minutes
	total time  =         11 seconds =       0.18 minutes

    			-----------------------------------------

    			 OPTKING 3.0: for geometry optimizations

    			     By R.A. King, Bethel University

    			        with contributions from

    			    A.V. Copan, J. Cayton, A. Heide

    			-----------------------------------------

	                            ===> Fragment 1 <==

	 Z (Atomic Numbers)          Masses                          Geom
	       5.000000            11.009305          0.00000000  0.00000000  2.62970349
	      14.000000            27.976927          0.00000000  0.00000000 -1.03482449

	 - Coordinate -           - BOHR/RAD -       - ANG/DEG -
	 R(1,2)           =         3.664528           1.939185

	        --- Internal Coordinate Step in ANG or DEG, aJ/ANG or AJ/DEG ---
	-------------------------------------------------------------------------------
	           Coordinate      Previous         Force          Change          New
	           ----------      --------        ------          ------        ------
	               R(1,2)       1.93918        0.00075        0.00028       1.93946
	-------------------------------------------------------------------------------

	                                 ==> Convergence Check <==

	Measures of convergence in internal coordinates in au.

	Criteria marked as inactive (o), active & met (*), and active & unmet ( ).

	----------------------------------------------------------------------------------------------
	   Step    Total Energy     Delta E     Max Force     RMS Force      Max Disp      RMS Disp
	----------------------------------------------------------------------------------------------
	  Convergence Criteria     1.00e-06 *    3.00e-04 *             o    1.20e-03 *             o
	----------------------------------------------------------------------------------------------
	     9    -313.83512265   -8.83e-07 *    9.13e-05 *    9.13e-05 o    5.25e-04 *    5.25e-04 o  ~
	----------------------------------------------------------------------------------------------

Next Geometry in Ang
	Fragment 1 (Ang)

	    B   0.0000000000   0.0000000000   1.3917181861
	   Si   0.0000000000   0.0000000000  -0.5477445660

    Final optimized geometry and variables:
    Molecular point group: c2v
    Full point group: C_inf_v

    Geometry (in Angstrom), charge = 1, multiplicity = 3:

    B            0.000000000000     0.000000000000     1.391579156757
    SI           0.000000000000     0.000000000000    -0.547605536669

    Psi4 stopped on: Thursday, 17 July 2025 01:36PM
    Psi4 wall time for execution: 0:00:11.13

*** Psi4 exiting successfully. Buy a developer a beer!
