                               Psi4 1.9.1 release

  ==> Input File <==

--------------------------------------------------------------------------
molecule {
1 3
F   0.00000        0.60000        0.00000
Si   0.00000       -0.60000        0.00000
}

set {
basis              cc-pvdz
reference          uks
maxiter            500
geom_maxiter       500
DAMPING_PERCENTAGE 1
guess              SAP
}

optimize('b3lyp')
--------------------------------------------------------------------------

    Molecular point group: c2v
  Charge       = 1
  Multiplicity = 3
  Basis Set: CC-PVDZ
    Blend: CC-PVDZ
  Basis Set: (CC-PVDZ AUX)
    Blend: CC-PVDZ-JKFIT
  @DF-UKS Final Energy:  -388.61005583082022
    Total Energy =                       -388.6100558308202153
 Dipole X            :          0.0000000            0.0000000            0.0000000
 Dipole Y            :          0.0000000            0.0000000            0.0000000
 Dipole Z            :         -0.3644858           -0.6847767           -1.0492625
 Magnitude           :                                                    1.0492625
    Molecular point group: c2v
  Basis Set: CC-PVDZ
    Blend: CC-PVDZ
  Basis Set: (CC-PVDZ AUX)
    Blend: CC-PVDZ-JKFIT
  Basis Set: CC-PVDZ
    Blend: CC-PVDZ
  Basis Set: (CC-PVDZ AUX)
    Blend: CC-PVDZ-JKFIT
  @DF-UKS Final Energy:  -388.77179972495969
    Total Energy =                       -388.7717997249597488
  Basis Set: CC-PVDZ
    Blend: CC-PVDZ
  Basis Set: (CC-PVDZ AUX)
    Blend: CC-PVDZ-JKFIT
  Basis Set: CC-PVDZ
    Blend: CC-PVDZ
  @DF-UKS Final Energy:  -388.84275836561324
    Total Energy =                       -388.8427583656132356
  @DF-UKS Final Energy:  -388.86370067123153
    Total Energy =                       -388.8637006712314701
  @DF-UKS Final Energy:  -388.87341925594296
    Total Energy =                       -388.8734192559429630
  @DF-UKS Final Energy:  -388.87600842092303
    Total Energy =                       -388.8760084209230286
  @DF-UKS Final Energy:  -388.87681040723919
    Total Energy =                       -388.8768104072391907
  @DF-UKS Final Energy:  -388.87714957383707
    Total Energy =                       -388.8771495738370731
  @DF-UKS Final Energy:  -388.87722344042766
    Total Energy =                       -388.8772234404276560
  Basis Set: (CC-PVDZ AUX)
    Blend: CC-PVDZ-JKFIT
  Basis Set: CC-PVDZ
    Blend: CC-PVDZ
  Basis Set: (CC-PVDZ AUX)
    Blend: CC-PVDZ-JKFIT
  @DF-UKS Final Energy:  -388.87723218609051
    Total Energy =                       -388.8772321860904526
  Basis Set: CC-PVDZ
    Blend: CC-PVDZ
  Basis Set: (CC-PVDZ AUX)
    Blend: CC-PVDZ-JKFIT
  Charge       = 1
  Multiplicity = 3
  Basis Set: CC-PVDZ
    Blend: CC-PVDZ
  Basis Set: (CC-PVDZ AUX)
    Blend: CC-PVDZ-JKFIT

    Orbital Energies [Eh]
    ---------------------

    Alpha Occupied:

       1A1   -66.590363     2A1   -25.028350     3A1    -5.722524
       1B2    -4.084099     4A1    -4.082047     1B1    -4.079063
       5A1    -1.507734     6A1    -0.858474     2B1    -0.744800
       2B2    -0.740080     7A1    -0.710105     3B1    -0.484269

    Alpha Virtual:

       3B2    -0.411716     8A1    -0.283187     9A1    -0.020931
       1A2     0.021730    10A1     0.027885     4B1     0.032316
       4B2     0.037371    11A1     0.070361     5B1     0.077877
       5B2     0.084760    12A1     0.281447     6B2     0.962387
       6B1     0.963414    13A1     0.970829    14A1     1.867968
       2A2     3.251061    15A1     3.251186     7B2     3.277470
       7B1     3.279212    16A1     3.461052

    Beta Occupied:

       1A1   -66.581577     2A1   -25.019015     3A1    -5.710792
       1B2    -4.076899     4A1    -4.072036     1B1    -4.059909
       5A1    -1.484851     6A1    -0.805919     2B2    -0.732717
       2B1    -0.722490

    Beta Virtual:

       7A1    -0.556998     3B2    -0.363867     3B1    -0.329098
       8A1    -0.237055     9A1     0.008244     4B2     0.049692
       4B1     0.070890    10A1     0.090976     1A2     0.096297
      11A1     0.101001     5B2     0.122073     5B1     0.151829
      12A1     0.321578     6B2     0.968501     6B1     0.977293
      13A1     0.993890    14A1     1.883435     2A2     3.259717
      15A1     3.259731     7B2     3.298138     7B1     3.306019
      16A1     3.488285

    Final Occupation by Irrep:
             A1    A2    B1    B2
    DOCC [     6,    0,    2,    2 ]
    SOCC [     1,    0,    1,    0 ]
    NA   [     7,    0,    3,    2 ]
    NB   [     6,    0,    2,    2 ]

  @DF-UKS Final Energy:  -388.87723250427871

   => Energetics <=

    Nuclear Repulsion Energy =             40.9590571928339671
    One-Electron Energy =                -613.8953777094423003
    Two-Electron Energy =                 209.0962349016876942
    DFT Exchange-Correlation Energy =     -25.0371468893580307
    Empirical Dispersion Energy =           0.0000000000000000
    VV10 Nonlocal Energy =                  0.0000000000000000
    Total Energy =                       -388.8772325042787088

  UHF NO Occupations:
  HONO-2 :    6 A1 1.9990559
  HONO-1 :    7 A1 1.0000000
  HONO-0 :    3 B1 1.0000000
  LUNO+0 :    8 A1 0.0009441
  LUNO+1 :    3 B2 0.0001842
  LUNO+2 :    4 B1 0.0001177
  LUNO+3 :    9 A1 0.0000181

Computation Completed

Properties will be evaluated at   0.000000,   0.000000,   0.000000 [a0]

Properties computed using the SCF density matrix

 Multipole Moments:

 ------------------------------------------------------------------------------------
     Multipole            Electronic (a.u.)      Nuclear  (a.u.)        Total (a.u.)
 ------------------------------------------------------------------------------------

 L = 1.  Multiply by 2.5417464519 to convert [e a0] to [Debye]
 Dipole X            :          0.0000000            0.0000000            0.0000000
 Dipole Y            :          0.0000000            0.0000000            0.0000000
 Dipole Z            :         -0.7382319           -0.9289438           -1.6671757
 Magnitude           :                                                    1.6671757

 ------------------------------------------------------------------------------------

*** tstop() called on Joses-MacBook-Pro-2.local at Thu Jul 17 14:28:42 2025
Module time:
	user time   =       3.53 seconds =       0.06 minutes
	system time =       3.89 seconds =       0.06 minutes
	total time  =          1 seconds =       0.02 minutes
Total time:
	user time   =      58.46 seconds =       0.97 minutes
	system time =      51.93 seconds =       0.87 minutes
	total time  =         11 seconds =       0.18 minutes

*** tstart() called on Joses-MacBook-Pro-2.local
*** at Thu Jul 17 14:28:42 2025

         ------------------------------------------------------------
                                   SCF GRAD
                          Rob Parrish, Justin Turney,
                       Andy Simmonett, and Alex Sokolov
         ------------------------------------------------------------

  ==> Geometry <==

    Molecular point group: c2v
    Full point group: C_inf_v

    Geometry (in Angstrom), charge = 1, multiplicity = 3:

       Center              X                  Y                   Z               Mass
    ------------   -----------------  -----------------  -----------------  -----------------
         F            0.000000000000     0.000000000000     0.969509105014    18.998403162730
         SI           0.000000000000     0.000000000000    -0.658368417423    27.976926534650

  Nuclear repulsion =   40.959057192833967

  ==> Basis Set <==

  Basis Set: CC-PVDZ
    Blend: CC-PVDZ
    Number of shells: 14
    Number of basis functions: 32
    Number of Cartesian functions: 34
    Spherical Harmonics?: true
    Max angular momentum: 2

  ==> DFJKGrad: Density-Fitted SCF Gradients <==

    Gradient:                    1
    J tasked:                  Yes
    K tasked:                  Yes
    wK tasked:                  No
    OpenMP threads:              1
    Integrals threads:           1
    Memory [MiB]:              375
    Schwarz Cutoff:          1E-12
    Fitting Condition:       1E-10

   => Auxiliary Basis Set <=

  Basis Set: (CC-PVDZ AUX)
    Blend: CC-PVDZ-JKFIT
    Number of shells: 60
    Number of basis functions: 182
    Number of Cartesian functions: 211
    Spherical Harmonics?: true
    Max angular momentum: 3

  ==> DFT Potential <==

   => LibXC <=

    Version 6.2.2
    S. Lehtola, C. Steigemann, M. J.T. Oliveira, and M. A.L. Marques.,  SoftwareX 7, 1â€“5 (2018) (10.1016/j.softx.2017.11.002)

   => Composite Functional: B3LYP <=

    B3LYP Hyb-GGA Exchange-Correlation Functional

    P. J. Stephens, F. J. Devlin, C. F. Chabalowski, and M. J. Frisch.,  J. Phys. Chem. 98, 11623 (1994) (10.1021/j100096a001)

    Deriv               =              1
    GGA                 =           TRUE
    Meta                =          FALSE

    Exchange Hybrid     =           TRUE
    MP2 Hybrid          =          FALSE

   => Exchange Functionals <=

    0.0800   Slater exchange
    0.7200         Becke 88

   => Exact (HF) Exchange <=

    0.2000               HF

   => Correlation Functionals <=

    0.1900   Vosko, Wilk & Nusair (VWN5_RPA)
    0.8100   Lee, Yang & Parr

   => LibXC Density Thresholds  <==

    XC_HYB_GGA_XC_B3LYP:  1.00E-15

   => Molecular Quadrature <=

    Radial Scheme          =       TREUTLER
    Pruning Scheme         =           NONE
    Nuclear Scheme         =       TREUTLER

    Blocking Scheme        =         OCTREE
    BS radius alpha        =              1
    Pruning alpha          =              1
    Radial Points          =             75
    Spherical Points       =            302
    Total Points           =          42904
    Total Blocks           =            391
    Max Points             =            256
    Max Functions          =             32
    Weights Tolerance      =       1.00E-15

  -Total Gradient:
     Atom            X                  Y                   Z
    ------   -----------------  -----------------  -----------------
       1        0.000000000000     0.000000000000    -0.000109252150
       2       -0.000000000000    -0.000000000000     0.000031838288

*** tstop() called on Joses-MacBook-Pro-2.local at Thu Jul 17 14:28:42 2025
Module time:
	user time   =       0.98 seconds =       0.02 minutes
	system time =       1.61 seconds =       0.03 minutes
	total time  =          0 seconds =       0.00 minutes
Total time:
	user time   =      59.44 seconds =       0.99 minutes
	system time =      53.54 seconds =       0.89 minutes
	total time  =         11 seconds =       0.18 minutes

    			-----------------------------------------

    			 OPTKING 3.0: for geometry optimizations

    			     By R.A. King, Bethel University

    			        with contributions from

    			    A.V. Copan, J. Cayton, A. Heide

    			-----------------------------------------

	                            ===> Fragment 1 <==

	 Z (Atomic Numbers)          Masses                          Geom
	       9.000000            18.998403          0.00000000  0.00000000  1.83210668
	      14.000000            27.976927          0.00000000  0.00000000 -1.24413600

	 - Coordinate -           - BOHR/RAD -       - ANG/DEG -
	 R(1,2)           =         3.076243           1.627878

	        --- Internal Coordinate Step in ANG or DEG, aJ/ANG or AJ/DEG ---
	-------------------------------------------------------------------------------
	           Coordinate      Previous         Force          Change          New
	           ----------      --------        ------          ------        ------
	               R(1,2)       1.62788        0.00058        0.00011       1.62799
	-------------------------------------------------------------------------------

	                                 ==> Convergence Check <==

	Measures of convergence in internal coordinates in au.

	Criteria marked as inactive (o), active & met (*), and active & unmet ( ).

	----------------------------------------------------------------------------------------------
	   Step    Total Energy     Delta E     Max Force     RMS Force      Max Disp      RMS Disp
	----------------------------------------------------------------------------------------------
	  Convergence Criteria     1.00e-06 *    3.00e-04 *             o    1.20e-03 *             o
	----------------------------------------------------------------------------------------------
	    11    -388.87723250   -3.18e-07 *    7.05e-05 *    7.05e-05 o    2.04e-04 *    2.04e-04 o  ~
	----------------------------------------------------------------------------------------------

Next Geometry in Ang
	Fragment 1 (Ang)

	    F   0.0000000000   0.0000000000   0.9695630543
	   Si   0.0000000000   0.0000000000  -0.6584223667

    Final optimized geometry and variables:
    Molecular point group: c2v
    Full point group: C_inf_v

    Geometry (in Angstrom), charge = 1, multiplicity = 3:

    F            0.000000000000     0.000000000000     0.969509105014
    SI           0.000000000000     0.000000000000    -0.658368417423

    Psi4 stopped on: Thursday, 17 July 2025 02:28PM
    Psi4 wall time for execution: 0:00:11.71

*** Psi4 exiting successfully. Buy a developer a beer!
