                               Psi4 1.9.1 release

  ==> Input File <==

--------------------------------------------------------------------------
molecule {
1 3
Na   0.00000        0.60000        0.00000
S   0.00000       -0.60000        0.00000
}

set {
basis              cc-pvdz
reference          uks
maxiter            500
geom_maxiter       500
DAMPING_PERCENTAGE 1
guess              SAP
}

optimize('b3lyp')
--------------------------------------------------------------------------

    Molecular point group: c2v
  Charge       = 1
  Multiplicity = 3
  Basis Set: CC-PVDZ
    Blend: CC-PVDZ
  Basis Set: (CC-PVDZ AUX)
    Blend: CC-PVDZ-JKFIT + DEF2-UNIVERSAL-JKFIT
  @DF-UKS Final Energy:  -559.21479031353635
    Total Energy =                       -559.2147903135363549
 Dipole X            :          0.0000000            0.0000000            0.0000000
 Dipole Y            :          0.0000000            0.0000000            0.0000000
 Dipole Z            :          1.9633528           -0.6660660            1.2972869
 Magnitude           :                                                    1.2972869
    Molecular point group: c2v
  Basis Set: CC-PVDZ
    Blend: CC-PVDZ
  Basis Set: (CC-PVDZ AUX)
    Blend: CC-PVDZ-JKFIT + DEF2-UNIVERSAL-JKFIT
  Basis Set: CC-PVDZ
    Blend: CC-PVDZ
  Basis Set: (CC-PVDZ AUX)
    Blend: CC-PVDZ-JKFIT + DEF2-UNIVERSAL-JKFIT
  @DF-UKS Final Energy:  -559.22813720281283
    Total Energy =                       -559.2281372028127180
  Basis Set: CC-PVDZ
    Blend: CC-PVDZ
  Basis Set: (CC-PVDZ AUX)
    Blend: CC-PVDZ-JKFIT + DEF2-UNIVERSAL-JKFIT
  Basis Set: CC-PVDZ
    Blend: CC-PVDZ
  @DF-UKS Final Energy:  -559.25389076562556
    Total Energy =                       -559.2538907656255560
  @DF-UKS Final Energy:  -559.34721830983381
    Total Energy =                       -559.3472183098339201
  @DF-UKS Final Energy:  -559.75719296697287
    Total Energy =                       -559.7571929669728661
  @DF-UKS Final Energy:  -559.97170443687332
    Total Energy =                       -559.9717044368733241
  @DF-UKS Final Energy:  -560.09772189686259
    Total Energy =                       -560.0977218968625948
  @DF-UKS Final Energy:  -560.15831893619657
    Total Energy =                       -560.1583189361965651
  @DF-UKS Final Energy:  -560.18926151656797
    Total Energy =                       -560.1892615165678535
  @DF-UKS Final Energy:  -560.20521723435468
    Total Energy =                       -560.2052172343547909
  @DF-UKS Final Energy:  -560.21358212286179
    Total Energy =                       -560.2135821228617942
  @DF-UKS Final Energy:  -560.21775307351140
    Total Energy =                       -560.2177530735114033
  @DF-UKS Final Energy:  -560.21961333305762
    Total Energy =                       -560.2196133330575094
  @DF-UKS Final Energy:  -560.22032024324506
    Total Energy =                       -560.2203202432450553
  @DF-UKS Final Energy:  -560.22052405051807
    Total Energy =                       -560.2205240505180655
  @DF-UKS Final Energy:  -560.22055824202369
    Total Energy =                       -560.2205582420235714
  Basis Set: (CC-PVDZ AUX)
    Blend: CC-PVDZ-JKFIT + DEF2-UNIVERSAL-JKFIT
  Basis Set: CC-PVDZ
    Blend: CC-PVDZ
  Basis Set: (CC-PVDZ AUX)
    Blend: CC-PVDZ-JKFIT + DEF2-UNIVERSAL-JKFIT
  @DF-UKS Final Energy:  -560.22056442529470
    Total Energy =                       -560.2205644252946968
  Basis Set: CC-PVDZ
    Blend: CC-PVDZ
  Basis Set: (CC-PVDZ AUX)
    Blend: CC-PVDZ-JKFIT + DEF2-UNIVERSAL-JKFIT
  Charge       = 1
  Multiplicity = 3
  Basis Set: CC-PVDZ
    Blend: CC-PVDZ
  Basis Set: (CC-PVDZ AUX)
    Blend: CC-PVDZ-JKFIT + DEF2-UNIVERSAL-JKFIT

    Orbital Energies [Eh]
    ---------------------

    Alpha Occupied:

       1A1   -89.107799     2A1   -38.763813     3A1    -8.165852
       4A1    -6.135355     1B1    -6.134906     1B2    -6.115035
       5A1    -2.501237     6A1    -1.432529     2B1    -1.432421
       2B2    -1.432259     7A1    -0.895385     8A1    -0.511577
       3B1    -0.499487     3B2    -0.451276

    Alpha Virtual:

       9A1    -0.246173     4B1    -0.150520     4B2    -0.149688
      10A1    -0.138440    11A1    -0.075152     5B2    -0.049303
       5B1    -0.049088    12A1    -0.048445     6B1    -0.003119
       6B2     0.000533     1A2     0.010476    13A1     0.010634
      14A1     0.033662     7B1     0.320953    15A1     0.327311
       7B2     0.352581    16A1     0.363412     8B1     0.382959
       2A2     0.390995    17A1     0.402334     8B2     0.417763
      18A1     0.591383

    Beta Occupied:

       1A1   -89.097068     2A1   -38.763715     3A1    -8.154873
       4A1    -6.114571     1B1    -6.113312     1B2    -6.108494
       5A1    -2.501061     2B1    -1.432345     6A1    -1.432333
       2B2    -1.432195     7A1    -0.803496     3B2    -0.424553

    Beta Virtual:

       8A1    -0.363154     3B1    -0.342450     9A1    -0.240727
       4B2    -0.149625     4B1    -0.147561    10A1    -0.132708
      11A1    -0.071294     5B2    -0.049841     5B1    -0.048182
      12A1    -0.045260     6B2     0.003870     6B1     0.005187
       1A2     0.009199    13A1     0.010405    14A1     0.043712
       7B2     0.367950     7B1     0.373848    15A1     0.377941
      16A1     0.441063     2A2     0.448378    17A1     0.454437
       8B2     0.467626     8B1     0.478777    18A1     0.631261

    Final Occupation by Irrep:
             A1    A2    B1    B2
    DOCC [     7,    0,    2,    3 ]
    SOCC [     1,    0,    1,    0 ]
    NA   [     8,    0,    3,    3 ]
    NB   [     7,    0,    2,    3 ]

  @DF-UKS Final Energy:  -560.22056464036757

   => Energetics <=

    Nuclear Repulsion Energy =             29.2003931226318976
    One-Electron Energy =                -829.9698226552557117
    Two-Electron Energy =                 272.7090743375861734
    DFT Exchange-Correlation Energy =     -32.1602094453299898
    Empirical Dispersion Energy =           0.0000000000000000
    VV10 Nonlocal Energy =                  0.0000000000000000
    Total Energy =                       -560.2205646403675701

  UHF NO Occupations:
  HONO-2 :    7 A1 1.9989961
  HONO-1 :    8 A1 1.0000000
  HONO-0 :    3 B1 1.0000000
  LUNO+0 :    9 A1 0.0010039
  LUNO+1 :    4 B2 0.0001830
  LUNO+2 :   10 A1 0.0000002
  LUNO+3 :    4 B1 0.0000000

Computation Completed

Properties will be evaluated at   0.000000,   0.000000,   0.000000 [a0]

Properties computed using the SCF density matrix

 Multipole Moments:

 ------------------------------------------------------------------------------------
     Multipole            Electronic (a.u.)      Nuclear  (a.u.)        Total (a.u.)
 ------------------------------------------------------------------------------------

 L = 1.  Multiply by 2.5417464519 to convert [e a0] to [Debye]
 Dipole X            :          0.0000000            0.0000000            0.0000000
 Dipole Y            :          0.0000000            0.0000000            0.0000000
 Dipole Z            :          4.8029962           -1.7703580            3.0326382
 Magnitude           :                                                    3.0326382

 ------------------------------------------------------------------------------------

*** tstop() called on Joses-MacBook-Pro-2.local at Thu Jul 17 14:59:11 2025
Module time:
	user time   =       7.00 seconds =       0.12 minutes
	system time =       1.96 seconds =       0.03 minutes
	total time  =          1 seconds =       0.02 minutes
Total time:
	user time   =     213.28 seconds =       3.55 minutes
	system time =      60.20 seconds =       1.00 minutes
	total time  =         26 seconds =       0.43 minutes

*** tstart() called on Joses-MacBook-Pro-2.local
*** at Thu Jul 17 14:59:11 2025

         ------------------------------------------------------------
                                   SCF GRAD
                          Rob Parrish, Justin Turney,
                       Andy Simmonett, and Alex Sokolov
         ------------------------------------------------------------

  ==> Geometry <==

    Molecular point group: c2v
    Full point group: C_inf_v

    Geometry (in Angstrom), charge = 1, multiplicity = 3:

       Center              X                  Y                   Z               Mass
    ------------   -----------------  -----------------  -----------------  -----------------
         NA           0.000000000000     0.000000000000     1.855387413872    22.989769282000
         S            0.000000000000     0.000000000000    -1.334130915103    31.972071174400

  Nuclear repulsion =   29.200393122631898

  ==> Basis Set <==

  Basis Set: CC-PVDZ
    Blend: CC-PVDZ
    Number of shells: 16
    Number of basis functions: 36
    Number of Cartesian functions: 38
    Spherical Harmonics?: true
    Max angular momentum: 2

  ==> DFJKGrad: Density-Fitted SCF Gradients <==

    Gradient:                    1
    J tasked:                  Yes
    K tasked:                  Yes
    wK tasked:                  No
    OpenMP threads:              1
    Integrals threads:           1
    Memory [MiB]:              375
    Schwarz Cutoff:          1E-12
    Fitting Condition:       1E-10

   => Auxiliary Basis Set <=

  Basis Set: (CC-PVDZ AUX)
    Blend: CC-PVDZ-JKFIT + DEF2-UNIVERSAL-JKFIT
    Number of shells: 70
    Number of basis functions: 224
    Number of Cartesian functions: 267
    Spherical Harmonics?: true
    Max angular momentum: 4

  ==> DFT Potential <==

   => LibXC <=

    Version 6.2.2
    S. Lehtola, C. Steigemann, M. J.T. Oliveira, and M. A.L. Marques.,  SoftwareX 7, 1â€“5 (2018) (10.1016/j.softx.2017.11.002)

   => Composite Functional: B3LYP <=

    B3LYP Hyb-GGA Exchange-Correlation Functional

    P. J. Stephens, F. J. Devlin, C. F. Chabalowski, and M. J. Frisch.,  J. Phys. Chem. 98, 11623 (1994) (10.1021/j100096a001)

    Deriv               =              1
    GGA                 =           TRUE
    Meta                =          FALSE

    Exchange Hybrid     =           TRUE
    MP2 Hybrid          =          FALSE

   => Exchange Functionals <=

    0.0800   Slater exchange
    0.7200         Becke 88

   => Exact (HF) Exchange <=

    0.2000               HF

   => Correlation Functionals <=

    0.1900   Vosko, Wilk & Nusair (VWN5_RPA)
    0.8100   Lee, Yang & Parr

   => LibXC Density Thresholds  <==

    XC_HYB_GGA_XC_B3LYP:  1.00E-15

   => Molecular Quadrature <=

    Radial Scheme          =       TREUTLER
    Pruning Scheme         =           NONE
    Nuclear Scheme         =       TREUTLER

    Blocking Scheme        =         OCTREE
    BS radius alpha        =              1
    Pruning alpha          =              1
    Radial Points          =             75
    Spherical Points       =            302
    Total Points           =          43868
    Total Blocks           =            446
    Max Points             =            253
    Max Functions          =             36
    Weights Tolerance      =       1.00E-15

  -Total Gradient:
     Atom            X                  Y                   Z
    ------   -----------------  -----------------  -----------------
       1        0.000000000000    -0.000000000000     0.000014181707
       2        0.000000000000     0.000000000000     0.000053431627

*** tstop() called on Joses-MacBook-Pro-2.local at Thu Jul 17 14:59:11 2025
Module time:
	user time   =       2.70 seconds =       0.05 minutes
	system time =       1.46 seconds =       0.02 minutes
	total time  =          0 seconds =       0.00 minutes
Total time:
	user time   =     216.00 seconds =       3.60 minutes
	system time =      61.66 seconds =       1.03 minutes
	total time  =         26 seconds =       0.43 minutes

    			-----------------------------------------

    			 OPTKING 3.0: for geometry optimizations

    			     By R.A. King, Bethel University

    			        with contributions from

    			    A.V. Copan, J. Cayton, A. Heide

    			-----------------------------------------

	                            ===> Fragment 1 <==

	 Z (Atomic Numbers)          Masses                          Geom
	      11.000000            22.989769          0.00000000  0.00000000  3.50617407
	      16.000000            31.972071          0.00000000  0.00000000 -2.52114205

	 - Coordinate -           - BOHR/RAD -       - ANG/DEG -
	 R(1,2)           =         6.027316           3.189518

	        --- Internal Coordinate Step in ANG or DEG, aJ/ANG or AJ/DEG ---
	-------------------------------------------------------------------------------
	           Coordinate      Previous         Force          Change          New
	           ----------      --------        ------          ------        ------
	               R(1,2)       3.18952        0.00016        0.00187       3.19139
	-------------------------------------------------------------------------------

	                                 ==> Convergence Check <==

	Measures of convergence in internal coordinates in au.

	Criteria marked as inactive (o), active & met (*), and active & unmet ( ).

	----------------------------------------------------------------------------------------------
	   Step    Total Energy     Delta E     Max Force     RMS Force      Max Disp      RMS Disp
	----------------------------------------------------------------------------------------------
	  Convergence Criteria     1.00e-06 *    3.00e-04 *             o    1.20e-03 *             o
	----------------------------------------------------------------------------------------------
	    18    -560.22056464   -2.15e-07 *    1.96e-05 *    1.96e-05 o    3.53e-03      3.53e-03 o  ~
	----------------------------------------------------------------------------------------------

Next Geometry in Ang
	Fragment 1 (Ang)

	   Na   0.0000000000   0.0000000000   1.8563211408
	    S   0.0000000000   0.0000000000  -1.3350646420

    Final optimized geometry and variables:
    Molecular point group: c2v
    Full point group: C_inf_v

    Geometry (in Angstrom), charge = 1, multiplicity = 3:

    NA           0.000000000000     0.000000000000     1.855387413872
    S            0.000000000000     0.000000000000    -1.334130915103

    Psi4 stopped on: Thursday, 17 July 2025 02:59PM
    Psi4 wall time for execution: 0:00:27.10

*** Psi4 exiting successfully. Buy a developer a beer!
