                               Psi4 1.9.1 release

  ==> Input File <==

--------------------------------------------------------------------------
molecule {
1 3
O   0.00000        0.60000        0.00000
Cl   0.00000       -0.60000        0.00000
}

set {
basis              cc-pvdz
reference          uks
maxiter            500
geom_maxiter       500
DAMPING_PERCENTAGE 1
guess              SAP
}

optimize('b3lyp')
--------------------------------------------------------------------------

    Molecular point group: c2v
  Charge       = 1
  Multiplicity = 3
  Basis Set: CC-PVDZ
    Blend: CC-PVDZ
  Basis Set: (CC-PVDZ AUX)
    Blend: CC-PVDZ-JKFIT
  @DF-UKS Final Energy:  -534.74862319928525
    Total Energy =                       -534.7486231992852481
 Dipole X            :          0.0000000            0.0000000            0.0000000
 Dipole Y            :          0.0000000            0.0000000            0.0000000
 Dipole Z            :         -0.9133577            0.3487254           -0.5646324
 Magnitude           :                                                    0.5646324
    Molecular point group: c2v
  Basis Set: CC-PVDZ
    Blend: CC-PVDZ
  Basis Set: (CC-PVDZ AUX)
    Blend: CC-PVDZ-JKFIT
  Basis Set: CC-PVDZ
    Blend: CC-PVDZ
  Basis Set: (CC-PVDZ AUX)
    Blend: CC-PVDZ-JKFIT
  @DF-UKS Final Energy:  -534.85511851826368
    Total Energy =                       -534.8551185182636800
  Basis Set: CC-PVDZ
    Blend: CC-PVDZ
  Basis Set: (CC-PVDZ AUX)
    Blend: CC-PVDZ-JKFIT
  Basis Set: CC-PVDZ
    Blend: CC-PVDZ
  @DF-UKS Final Energy:  -534.90193776512524
    Total Energy =                       -534.9019377651252398
  @DF-UKS Final Energy:  -534.91392095735671
    Total Energy =                       -534.9139209573567086
  @DF-UKS Final Energy:  -534.91772312268722
    Total Energy =                       -534.9177231226872209
  @DF-UKS Final Energy:  -534.91943891183166
    Total Energy =                       -534.9194389118316622
  @DF-UKS Final Energy:  -534.91983360716631
    Total Energy =                       -534.9198336071663107
  @DF-UKS Final Energy:  -534.91995021148034
    Total Energy =                       -534.9199502114803408
  Basis Set: (CC-PVDZ AUX)
    Blend: CC-PVDZ-JKFIT
  Basis Set: CC-PVDZ
    Blend: CC-PVDZ
  Basis Set: (CC-PVDZ AUX)
    Blend: CC-PVDZ-JKFIT
  @DF-UKS Final Energy:  -534.91996399500033
    Total Energy =                       -534.9199639950003302
  Basis Set: CC-PVDZ
    Blend: CC-PVDZ
  Basis Set: (CC-PVDZ AUX)
    Blend: CC-PVDZ-JKFIT
  Charge       = 1
  Multiplicity = 3
  Basis Set: CC-PVDZ
    Blend: CC-PVDZ
  Basis Set: (CC-PVDZ AUX)
    Blend: CC-PVDZ-JKFIT

    Orbital Energies [Eh]
    ---------------------

    Alpha Occupied:

       1A1  -102.039763     2A1   -19.673125     3A1    -9.950722
       4A1    -7.712570     1B2    -7.706674     1B1    -7.706674
       5A1    -1.533005     6A1    -1.173327     7A1    -0.875149
       2B1    -0.866290     2B2    -0.866290     3B1    -0.688003
       3B2    -0.688003

    Alpha Virtual:

       8A1    -0.374375     9A1     0.162078     4B2     0.187743
       4B1     0.187743    10A1     0.230965     5B1     0.281638
       5B2     0.281638    11A1     0.282722     1A2     0.282722
      12A1     0.502665     6B1     0.617667     6B2     0.617667
      13A1     0.736035    14A1     1.237531    15A1     2.101729
       2A2     2.101740     7B1     2.236143     7B2     2.236143
      16A1     2.725722

    Beta Occupied:

       1A1  -102.033244     2A1   -19.637545     3A1    -9.944444
       4A1    -7.709643     1B2    -7.693933     1B1    -7.693933
       5A1    -1.471787     6A1    -1.103447     7A1    -0.836517
       2B1    -0.775620     2B2    -0.775620

    Beta Virtual:

       3B1    -0.523843     3B2    -0.523843     8A1    -0.345246
       9A1     0.170105     4B2     0.205827     4B1     0.205827
      10A1     0.246664     5B1     0.326811     5B2     0.326811
      11A1     0.333512     1A2     0.333513    12A1     0.529839
       6B1     0.673522     6B2     0.673522    13A1     0.760436
      14A1     1.276545    15A1     2.207228     2A2     2.207240
       7B1     2.295795     7B2     2.295795    16A1     2.774057

    Final Occupation by Irrep:
             A1    A2    B1    B2
    DOCC [     7,    0,    2,    2 ]
    SOCC [     0,    0,    1,    1 ]
    NA   [     7,    0,    3,    3 ]
    NB   [     7,    0,    2,    2 ]

  @DF-UKS Final Energy:  -534.91996467675619

   => Energetics <=

    Nuclear Repulsion Energy =             47.3987567758824540
    One-Electron Energy =                -822.5838996342104110
    Two-Electron Energy =                 269.6017657232771398
    DFT Exchange-Correlation Energy =     -29.3365875417054447
    Empirical Dispersion Energy =           0.0000000000000000
    VV10 Nonlocal Energy =                  0.0000000000000000
    Total Energy =                       -534.9199646767561944

  UHF NO Occupations:
  HONO-2 :    2 B1 1.9987394
  HONO-1 :    3 B2 1.0000000
  HONO-0 :    3 B1 1.0000000
  LUNO+0 :    4 B2 0.0012606
  LUNO+1 :    4 B1 0.0012606
  LUNO+2 :    8 A1 0.0006913
  LUNO+3 :    9 A1 0.0002802

Computation Completed

Properties will be evaluated at   0.000000,   0.000000,   0.000000 [a0]

Properties computed using the SCF density matrix

 Multipole Moments:

 ------------------------------------------------------------------------------------
     Multipole            Electronic (a.u.)      Nuclear  (a.u.)        Total (a.u.)
 ------------------------------------------------------------------------------------

 L = 1.  Multiply by 2.5417464519 to convert [e a0] to [Debye]
 Dipole X            :          0.0000000            0.0000000            0.0000000
 Dipole Y            :          0.0000000            0.0000000            0.0000000
 Dipole Z            :         -0.9040228            0.4412405           -0.4627822
 Magnitude           :                                                    0.4627822

 ------------------------------------------------------------------------------------

*** tstop() called on Joses-MacBook-Pro-2.local at Thu Jul 17 14:14:28 2025
Module time:
	user time   =       3.78 seconds =       0.06 minutes
	system time =       3.28 seconds =       0.05 minutes
	total time  =          0 seconds =       0.00 minutes
Total time:
	user time   =      52.51 seconds =       0.88 minutes
	system time =      49.40 seconds =       0.82 minutes
	total time  =          9 seconds =       0.15 minutes

*** tstart() called on Joses-MacBook-Pro-2.local
*** at Thu Jul 17 14:14:28 2025

         ------------------------------------------------------------
                                   SCF GRAD
                          Rob Parrish, Justin Turney,
                       Andy Simmonett, and Alex Sokolov
         ------------------------------------------------------------

  ==> Geometry <==

    Molecular point group: c2v
    Full point group: C_inf_v

    Geometry (in Angstrom), charge = 1, multiplicity = 3:

       Center              X                  Y                   Z               Mass
    ------------   -----------------  -----------------  -----------------  -----------------
         O            0.000000000000     0.000000000000     1.041820622354    15.994914619570
         CL           0.000000000000     0.000000000000    -0.476533561310    34.968852682000

  Nuclear repulsion =   47.398756775882454

  ==> Basis Set <==

  Basis Set: CC-PVDZ
    Blend: CC-PVDZ
    Number of shells: 14
    Number of basis functions: 32
    Number of Cartesian functions: 34
    Spherical Harmonics?: true
    Max angular momentum: 2

  ==> DFJKGrad: Density-Fitted SCF Gradients <==

    Gradient:                    1
    J tasked:                  Yes
    K tasked:                  Yes
    wK tasked:                  No
    OpenMP threads:              1
    Integrals threads:           1
    Memory [MiB]:              375
    Schwarz Cutoff:          1E-12
    Fitting Condition:       1E-10

   => Auxiliary Basis Set <=

  Basis Set: (CC-PVDZ AUX)
    Blend: CC-PVDZ-JKFIT
    Number of shells: 60
    Number of basis functions: 182
    Number of Cartesian functions: 211
    Spherical Harmonics?: true
    Max angular momentum: 3

  ==> DFT Potential <==

   => LibXC <=

    Version 6.2.2
    S. Lehtola, C. Steigemann, M. J.T. Oliveira, and M. A.L. Marques.,  SoftwareX 7, 1â€“5 (2018) (10.1016/j.softx.2017.11.002)

   => Composite Functional: B3LYP <=

    B3LYP Hyb-GGA Exchange-Correlation Functional

    P. J. Stephens, F. J. Devlin, C. F. Chabalowski, and M. J. Frisch.,  J. Phys. Chem. 98, 11623 (1994) (10.1021/j100096a001)

    Deriv               =              1
    GGA                 =           TRUE
    Meta                =          FALSE

    Exchange Hybrid     =           TRUE
    MP2 Hybrid          =          FALSE

   => Exchange Functionals <=

    0.0800   Slater exchange
    0.7200         Becke 88

   => Exact (HF) Exchange <=

    0.2000               HF

   => Correlation Functionals <=

    0.1900   Vosko, Wilk & Nusair (VWN5_RPA)
    0.8100   Lee, Yang & Parr

   => LibXC Density Thresholds  <==

    XC_HYB_GGA_XC_B3LYP:  1.00E-15

   => Molecular Quadrature <=

    Radial Scheme          =       TREUTLER
    Pruning Scheme         =           NONE
    Nuclear Scheme         =       TREUTLER

    Blocking Scheme        =         OCTREE
    BS radius alpha        =              1
    Pruning alpha          =              1
    Radial Points          =             75
    Spherical Points       =            302
    Total Points           =          41311
    Total Blocks           =            369
    Max Points             =            256
    Max Functions          =             32
    Weights Tolerance      =       1.00E-15

  -Total Gradient:
     Atom            X                  Y                   Z
    ------   -----------------  -----------------  -----------------
       1        0.000000000000    -0.000000000000    -0.000126214062
       2        0.000000000000     0.000000000000     0.000104722025

*** tstop() called on Joses-MacBook-Pro-2.local at Thu Jul 17 14:14:29 2025
Module time:
	user time   =       1.02 seconds =       0.02 minutes
	system time =       1.62 seconds =       0.03 minutes
	total time  =          1 seconds =       0.02 minutes
Total time:
	user time   =      53.53 seconds =       0.89 minutes
	system time =      51.02 seconds =       0.85 minutes
	total time  =         10 seconds =       0.17 minutes

    			-----------------------------------------

    			 OPTKING 3.0: for geometry optimizations

    			     By R.A. King, Bethel University

    			        with contributions from

    			    A.V. Copan, J. Cayton, A. Heide

    			-----------------------------------------

	                            ===> Fragment 1 <==

	 Z (Atomic Numbers)          Masses                          Geom
	       8.000000            15.994915          0.00000000  0.00000000  1.96875565
	      17.000000            34.968853          0.00000000  0.00000000 -0.90051792

	 - Coordinate -           - BOHR/RAD -       - ANG/DEG -
	 R(1,2)           =         2.869274           1.518354

	        --- Internal Coordinate Step in ANG or DEG, aJ/ANG or AJ/DEG ---
	-------------------------------------------------------------------------------
	           Coordinate      Previous         Force          Change          New
	           ----------      --------        ------          ------        ------
	               R(1,2)       1.51835        0.00095        0.00012       1.51848
	-------------------------------------------------------------------------------

	                                 ==> Convergence Check <==

	Measures of convergence in internal coordinates in au.

	Criteria marked as inactive (o), active & met (*), and active & unmet ( ).

	----------------------------------------------------------------------------------------------
	   Step    Total Energy     Delta E     Max Force     RMS Force      Max Disp      RMS Disp
	----------------------------------------------------------------------------------------------
	  Convergence Criteria     1.00e-06 *    3.00e-04 *             o    1.20e-03 *             o
	----------------------------------------------------------------------------------------------
	    10    -534.91996468   -6.82e-07 *    1.15e-04 *    1.15e-04 o    2.34e-04 *    2.34e-04 o  ~
	----------------------------------------------------------------------------------------------

Next Geometry in Ang
	Fragment 1 (Ang)

	    O   0.0000000000   0.0000000000   1.0418825964
	   Cl   0.0000000000   0.0000000000  -0.4765955353

    Final optimized geometry and variables:
    Molecular point group: c2v
    Full point group: C_inf_v

    Geometry (in Angstrom), charge = 1, multiplicity = 3:

    O            0.000000000000     0.000000000000     1.041820622354
    CL           0.000000000000     0.000000000000    -0.476533561310

    Psi4 stopped on: Thursday, 17 July 2025 02:14PM
    Psi4 wall time for execution: 0:00:10.68

*** Psi4 exiting successfully. Buy a developer a beer!
