                               Psi4 1.9.1 release

  ==> Input File <==

--------------------------------------------------------------------------
molecule {
1 3
H   0.00000        0.60000        0.00000
Ne   0.00000       -0.60000        0.00000
}

set {
basis              cc-pvdz
reference          uks
maxiter            500
geom_maxiter       500
DAMPING_PERCENTAGE 1
guess              SAP
}

optimize('b3lyp')
--------------------------------------------------------------------------

    Molecular point group: c2v
  Charge       = 1
  Multiplicity = 3
  Basis Set: CC-PVDZ
    Blend: CC-PVDZ
  Basis Set: (CC-PVDZ AUX)
    Blend: CC-PVDZ-JKFIT
  @DF-UKS Final Energy:  -128.50142852931467
    Total Energy =                       -128.5014285293146656
 Dipole X            :          0.0000000            0.0000000            0.0000000
 Dipole Y            :          0.0000000            0.0000000            0.0000000
 Dipole Z            :         -1.3696037            1.0705638           -0.2990399
 Magnitude           :                                                    0.2990399
    Molecular point group: c2v
  Basis Set: CC-PVDZ
    Blend: CC-PVDZ
  Basis Set: (CC-PVDZ AUX)
    Blend: CC-PVDZ-JKFIT
  Basis Set: CC-PVDZ
    Blend: CC-PVDZ
  Basis Set: (CC-PVDZ AUX)
    Blend: CC-PVDZ-JKFIT
  @DF-UKS Final Energy:  -128.57565911072729
    Total Energy =                       -128.5756591107272868
  Basis Set: CC-PVDZ
    Blend: CC-PVDZ
  Basis Set: (CC-PVDZ AUX)
    Blend: CC-PVDZ-JKFIT
  Basis Set: CC-PVDZ
    Blend: CC-PVDZ
  @DF-UKS Final Energy:  -128.60024457737552
    Total Energy =                       -128.6002445773755198
  @DF-UKS Final Energy:  -128.61425323941825
    Total Energy =                       -128.6142532394182751
  @DF-UKS Final Energy:  -128.62103687808525
    Total Energy =                       -128.6210368780852491
  @DF-UKS Final Energy:  -128.62445567344844
    Total Energy =                       -128.6244556734484377
  @DF-UKS Final Energy:  -128.62611147702179
    Total Energy =                       -128.6261114770217944
  @DF-UKS Final Energy:  -128.62690053173324
    Total Energy =                       -128.6269005317332415
  @DF-UKS Final Energy:  -128.62727226595987
    Total Energy =                       -128.6272722659598458
  @DF-UKS Final Energy:  -128.62743845661268
    Total Energy =                       -128.6274384566126798
  @DF-UKS Final Energy:  -128.62750383003942
    Total Energy =                       -128.6275038300394158
  @DF-UKS Final Energy:  -128.62752071811050
    Total Energy =                       -128.6275207181105316
  @DF-UKS Final Energy:  -128.62752723357761
    Total Energy =                       -128.6275272335776094
  Basis Set: (CC-PVDZ AUX)
    Blend: CC-PVDZ-JKFIT
  Basis Set: CC-PVDZ
    Blend: CC-PVDZ
  Basis Set: (CC-PVDZ AUX)
    Blend: CC-PVDZ-JKFIT
  @DF-UKS Final Energy:  -128.62752852639736
    Total Energy =                       -128.6275285263973558
  Basis Set: CC-PVDZ
    Blend: CC-PVDZ
  Basis Set: (CC-PVDZ AUX)
    Blend: CC-PVDZ-JKFIT
  Charge       = 1
  Multiplicity = 3
  Basis Set: CC-PVDZ
    Blend: CC-PVDZ
  Basis Set: (CC-PVDZ AUX)
    Blend: CC-PVDZ-JKFIT

    Orbital Energies [Eh]
    ---------------------

    Alpha Occupied:

       1A1   -31.853477     2A1    -2.219268     1B2    -1.392016
       3A1    -1.281730     1B1    -1.281677     4A1    -0.491065

    Alpha Virtual:

       5A1     0.242159     2B2     0.700735     2B1     0.759379
       6A1     0.773092     7A1     1.035684     3B2     1.040199
       3B1     1.040265     8A1     1.168019     9A1     3.878919
       4B2     3.905236     1A2     3.905238     4B1     3.988472
      10A1     3.988597

    Beta Occupied:

       1A1   -31.813498     2A1    -2.111295     3A1    -1.242172
       1B1    -1.242146

    Beta Virtual:

       1B2    -1.029714     4A1    -0.203169     5A1     0.465733
       2B1     0.777538     6A1     0.796133     2B2     0.814446
       7A1     1.220237     8A1     1.281839     3B2     1.290107
       3B1     1.290125     4B1     4.007335     9A1     4.007462
       1A2     4.019333     4B2     4.019362    10A1     4.042978

    Final Occupation by Irrep:
             A1    A2    B1    B2
    DOCC [     3,    0,    1,    0 ]
    SOCC [     1,    0,    0,    1 ]
    NA   [     4,    0,    1,    1 ]
    NB   [     3,    0,    1,    0 ]

  @DF-UKS Final Energy:  -128.62752882321286

   => Energetics <=

    Nuclear Repulsion Energy =              1.7257388673295349
    One-Electron Energy =                -178.6767740123553665
    Two-Electron Energy =                  58.2278669016165580
    DFT Exchange-Correlation Energy =      -9.9043605798035887
    Empirical Dispersion Energy =           0.0000000000000000
    VV10 Nonlocal Energy =                  0.0000000000000000
    Total Energy =                       -128.6275288232128560

  UHF NO Occupations:
  HONO-2 :    3 A1 1.9997405
  HONO-1 :    4 A1 1.0000000
  HONO-0 :    1 B2 1.0000000
  LUNO+0 :    5 A1 0.0002595
  LUNO+1 :    6 A1 0.0000435
  LUNO+2 :    2 B1 0.0000418
  LUNO+3 :    7 A1 0.0000000

Computation Completed

Properties will be evaluated at   0.000000,   0.000000,   0.000000 [a0]

Properties computed using the SCF density matrix

 Multipole Moments:

 ------------------------------------------------------------------------------------
     Multipole            Electronic (a.u.)      Nuclear  (a.u.)        Total (a.u.)
 ------------------------------------------------------------------------------------

 L = 1.  Multiply by 2.5417464519 to convert [e a0] to [Debye]
 Dipole X            :          0.0000000            0.0000000            0.0000000
 Dipole Y            :          0.0000000            0.0000000            0.0000000
 Dipole Z            :         -2.9944212            2.7356301           -0.2587911
 Magnitude           :                                                    0.2587911

 ------------------------------------------------------------------------------------

*** tstop() called on Joses-MacBook-Pro-2.local at Thu Jul 17 12:20:56 2025
Module time:
	user time   =       0.66 seconds =       0.01 minutes
	system time =       2.94 seconds =       0.05 minutes
	total time  =          1 seconds =       0.02 minutes
Total time:
	user time   =      15.62 seconds =       0.26 minutes
	system time =      58.63 seconds =       0.98 minutes
	total time  =          8 seconds =       0.13 minutes

*** tstart() called on Joses-MacBook-Pro-2.local
*** at Thu Jul 17 12:20:56 2025

         ------------------------------------------------------------
                                   SCF GRAD
                          Rob Parrish, Justin Turney,
                       Andy Simmonett, and Alex Sokolov
         ------------------------------------------------------------

  ==> Geometry <==

    Molecular point group: c2v
    Full point group: C_inf_v

    Geometry (in Angstrom), charge = 1, multiplicity = 3:

       Center              X                  Y                   Z               Mass
    ------------   -----------------  -----------------  -----------------  -----------------
         H            0.000000000000     0.000000000000     2.919221695794     1.007825032230
         NE           0.000000000000     0.000000000000    -0.147158859735    19.992440176200

  Nuclear repulsion =    1.725738867329535

  ==> Basis Set <==

  Basis Set: CC-PVDZ
    Blend: CC-PVDZ
    Number of shells: 9
    Number of basis functions: 19
    Number of Cartesian functions: 20
    Spherical Harmonics?: true
    Max angular momentum: 2

  ==> DFJKGrad: Density-Fitted SCF Gradients <==

    Gradient:                    1
    J tasked:                  Yes
    K tasked:                  Yes
    wK tasked:                  No
    OpenMP threads:              1
    Integrals threads:           1
    Memory [MiB]:              375
    Schwarz Cutoff:          1E-12
    Fitting Condition:       1E-10

   => Auxiliary Basis Set <=

  Basis Set: (CC-PVDZ AUX)
    Blend: CC-PVDZ-JKFIT
    Number of shells: 33
    Number of basis functions: 93
    Number of Cartesian functions: 106
    Spherical Harmonics?: true
    Max angular momentum: 3

  ==> DFT Potential <==

   => LibXC <=

    Version 6.2.2
    S. Lehtola, C. Steigemann, M. J.T. Oliveira, and M. A.L. Marques.,  SoftwareX 7, 1â€“5 (2018) (10.1016/j.softx.2017.11.002)

   => Composite Functional: B3LYP <=

    B3LYP Hyb-GGA Exchange-Correlation Functional

    P. J. Stephens, F. J. Devlin, C. F. Chabalowski, and M. J. Frisch.,  J. Phys. Chem. 98, 11623 (1994) (10.1021/j100096a001)

    Deriv               =              1
    GGA                 =           TRUE
    Meta                =          FALSE

    Exchange Hybrid     =           TRUE
    MP2 Hybrid          =          FALSE

   => Exchange Functionals <=

    0.0800   Slater exchange
    0.7200         Becke 88

   => Exact (HF) Exchange <=

    0.2000               HF

   => Correlation Functionals <=

    0.1900   Vosko, Wilk & Nusair (VWN5_RPA)
    0.8100   Lee, Yang & Parr

   => LibXC Density Thresholds  <==

    XC_HYB_GGA_XC_B3LYP:  1.00E-15

   => Molecular Quadrature <=

    Radial Scheme          =       TREUTLER
    Pruning Scheme         =           NONE
    Nuclear Scheme         =       TREUTLER

    Blocking Scheme        =         OCTREE
    BS radius alpha        =              1
    Pruning alpha          =              1
    Radial Points          =             75
    Spherical Points       =            302
    Total Points           =          44479
    Total Blocks           =            384
    Max Points             =            256
    Max Functions          =             19
    Weights Tolerance      =       1.00E-15

  -Total Gradient:
     Atom            X                  Y                   Z
    ------   -----------------  -----------------  -----------------
       1       -0.000000000000     0.000000000000    -0.000007233896
       2        0.000000000000     0.000000000000     0.000011149550

*** tstop() called on Joses-MacBook-Pro-2.local at Thu Jul 17 12:20:56 2025
Module time:
	user time   =       0.31 seconds =       0.01 minutes
	system time =       0.65 seconds =       0.01 minutes
	total time  =          0 seconds =       0.00 minutes
Total time:
	user time   =      15.93 seconds =       0.27 minutes
	system time =      59.28 seconds =       0.99 minutes
	total time  =          8 seconds =       0.13 minutes

    			-----------------------------------------

    			 OPTKING 3.0: for geometry optimizations

    			     By R.A. King, Bethel University

    			        with contributions from

    			    A.V. Copan, J. Cayton, A. Heide

    			-----------------------------------------

	                            ===> Fragment 1 <==

	 Z (Atomic Numbers)          Masses                          Geom
	       1.000000             1.007825          0.00000000  0.00000000  5.51652950
	      10.000000            19.992440          0.00000000  0.00000000 -0.27808994

	 - Coordinate -           - BOHR/RAD -       - ANG/DEG -
	 R(1,2)           =         5.794619           3.066381

	        --- Internal Coordinate Step in ANG or DEG, aJ/ANG or AJ/DEG ---
	-------------------------------------------------------------------------------
	           Coordinate      Previous         Force          Change          New
	           ----------      --------        ------          ------        ------
	               R(1,2)       3.06638        0.00008        0.00774       3.07412
	-------------------------------------------------------------------------------

	                                 ==> Convergence Check <==

	Measures of convergence in internal coordinates in au.

	Criteria marked as inactive (o), active & met (*), and active & unmet ( ).

	----------------------------------------------------------------------------------------------
	   Step    Total Energy     Delta E     Max Force     RMS Force      Max Disp      RMS Disp
	----------------------------------------------------------------------------------------------
	  Convergence Criteria     1.00e-06 *    3.00e-04 *             o    1.20e-03 *             o
	----------------------------------------------------------------------------------------------
	    15    -128.62752882   -2.97e-07 *    9.19e-06 *    9.19e-06 o    1.46e-02      1.46e-02 o  ~
	----------------------------------------------------------------------------------------------

Next Geometry in Ang
	Fragment 1 (Ang)

	    H   0.0000000000   0.0000000000   2.9230897714
	   Ne   0.0000000000   0.0000000000  -0.1510269353

    Final optimized geometry and variables:
    Molecular point group: c2v
    Full point group: C_inf_v

    Geometry (in Angstrom), charge = 1, multiplicity = 3:

    H            0.000000000000     0.000000000000     2.919221695794
    NE           0.000000000000     0.000000000000    -0.147158859735

    Psi4 stopped on: Thursday, 17 July 2025 12:20PM
    Psi4 wall time for execution: 0:00:08.35

*** Psi4 exiting successfully. Buy a developer a beer!
