                               Psi4 1.9.1 release

  ==> Input File <==

--------------------------------------------------------------------------
molecule {
1 3
B   0.00000        0.60000        0.00000
Ne   0.00000       -0.60000        0.00000
}

set {
basis              cc-pvdz
reference          uks
maxiter            500
geom_maxiter       500
DAMPING_PERCENTAGE 1
guess              SAP
}

optimize('b3lyp')
--------------------------------------------------------------------------

    Molecular point group: c2v
  Charge       = 1
  Multiplicity = 3
  Basis Set: CC-PVDZ
    Blend: CC-PVDZ
  Basis Set: (CC-PVDZ AUX)
    Blend: CC-PVDZ-JKFIT
  @DF-UKS Final Energy:  -153.02747775062457
    Total Energy =                       -153.0274777506245698
 Dipole X            :          0.0000000            0.0000000            0.0000000
 Dipole Y            :          0.0000000            0.0000000            0.0000000
 Dipole Z            :          0.9852076           -0.7410371            0.2441704
 Magnitude           :                                                    0.2441704
    Molecular point group: c2v
  Basis Set: CC-PVDZ
    Blend: CC-PVDZ
  Basis Set: (CC-PVDZ AUX)
    Blend: CC-PVDZ-JKFIT
  Basis Set: CC-PVDZ
    Blend: CC-PVDZ
  Basis Set: (CC-PVDZ AUX)
    Blend: CC-PVDZ-JKFIT
  @DF-UKS Final Energy:  -153.08989020503842
    Total Energy =                       -153.0898902050384152
  Basis Set: CC-PVDZ
    Blend: CC-PVDZ
  Basis Set: (CC-PVDZ AUX)
    Blend: CC-PVDZ-JKFIT
  Basis Set: CC-PVDZ
    Blend: CC-PVDZ
  @DF-UKS Final Energy:  -153.11034533406294
    Total Energy =                       -153.1103453340629414
  @DF-UKS Final Energy:  -153.11795081979031
    Total Energy =                       -153.1179508197903090
  @DF-UKS Final Energy:  -153.12283028681946
    Total Energy =                       -153.1228302868194646
  @DF-UKS Final Energy:  -153.12445957194274
    Total Energy =                       -153.1244595719427650
  @DF-UKS Final Energy:  -153.12526606063514
    Total Energy =                       -153.1252660606351128
  @DF-UKS Final Energy:  -153.12549251504407
    Total Energy =                       -153.1254925150440727
  @DF-UKS Final Energy:  -153.12557380173649
    Total Energy =                       -153.1255738017364649
  @DF-UKS Final Energy:  -153.12559451300137
    Total Energy =                       -153.1255945130013458
  Basis Set: (CC-PVDZ AUX)
    Blend: CC-PVDZ-JKFIT
  Basis Set: CC-PVDZ
    Blend: CC-PVDZ
  Basis Set: (CC-PVDZ AUX)
    Blend: CC-PVDZ-JKFIT
  @DF-UKS Final Energy:  -153.12559720761294
    Total Energy =                       -153.1255972076129410
  Basis Set: CC-PVDZ
    Blend: CC-PVDZ
  Basis Set: (CC-PVDZ AUX)
    Blend: CC-PVDZ-JKFIT
  Charge       = 1
  Multiplicity = 3
  Basis Set: CC-PVDZ
    Blend: CC-PVDZ
  Basis Set: (CC-PVDZ AUX)
    Blend: CC-PVDZ-JKFIT

    Orbital Energies [Eh]
    ---------------------

    Alpha Occupied:

       1A1   -31.390091     2A1    -7.302569     3A1    -1.844913
       4A1    -0.992015     1B1    -0.938170     1B2    -0.937961
       5A1    -0.729746     2B1    -0.547851

    Alpha Virtual:

       2B2    -0.438173     6A1    -0.375755     3B1    -0.001926
       7A1     0.010623     3B2     0.015201     8A1     0.058018
       1A2     0.339999     4B1     0.340151     9A1     0.349666
       4B2     0.354107    10A1     0.480908     5B2     1.124736
       5B1     1.126094    11A1     1.158748    12A1     2.055135
       2A2     4.328679    13A1     4.328681     6B2     4.337317
       6B1     4.338455    14A1     4.386175

    Beta Occupied:

       1A1   -31.386870     2A1    -7.268109     3A1    -1.838321
       4A1    -0.973059     1B2    -0.935553     1B1    -0.932092

    Beta Virtual:

       5A1    -0.523054     2B2    -0.358930     2B1    -0.310787
       6A1    -0.298829     7A1     0.027723     3B2     0.038405
       3B1     0.067161     8A1     0.116373     4B2     0.412477
       4B1     0.446422     9A1     0.451498     1A2     0.456741
      10A1     0.561443     5B2     1.131173     5B1     1.137907
      11A1     1.165840    12A1     2.066282    13A1     4.331233
       2A2     4.331254     6B2     4.343307     6B1     4.346013
      14A1     4.394537

    Final Occupation by Irrep:
             A1    A2    B1    B2
    DOCC [     4,    0,    1,    1 ]
    SOCC [     1,    0,    1,    0 ]
    NA   [     5,    0,    2,    1 ]
    NB   [     4,    0,    1,    1 ]

  @DF-UKS Final Energy:  -153.12559742198147

   => Energetics <=

    Nuclear Repulsion Energy =             15.0399244478988621
    One-Electron Energy =                -238.9628142352102032
    Two-Electron Energy =                  83.8289802692084010
    DFT Exchange-Correlation Energy =     -13.0316879038785505
    Empirical Dispersion Energy =           0.0000000000000000
    VV10 Nonlocal Energy =                  0.0000000000000000
    Total Energy =                       -153.1255974219814675

  UHF NO Occupations:
  HONO-2 :    4 A1 1.9998705
  HONO-1 :    2 B1 1.0000000
  HONO-0 :    5 A1 1.0000000
  LUNO+0 :    6 A1 0.0001295
  LUNO+1 :    2 B2 0.0000414
  LUNO+2 :    3 B1 0.0000139
  LUNO+3 :    7 A1 0.0000020

Computation Completed

Properties will be evaluated at   0.000000,   0.000000,   0.000000 [a0]

Properties computed using the SCF density matrix

 Multipole Moments:

 ------------------------------------------------------------------------------------
     Multipole            Electronic (a.u.)      Nuclear  (a.u.)        Total (a.u.)
 ------------------------------------------------------------------------------------

 L = 1.  Multiply by 2.5417464519 to convert [e a0] to [Debye]
 Dipole X            :          0.0000000            0.0000000            0.0000000
 Dipole Y            :          0.0000000            0.0000000            0.0000000
 Dipole Z            :          2.4648150           -1.0863861            1.3784289
 Magnitude           :                                                    1.3784289

 ------------------------------------------------------------------------------------

*** tstop() called on Joses-MacBook-Pro-2.local at Thu Jul 17 13:32:13 2025
Module time:
	user time   =       1.83 seconds =       0.03 minutes
	system time =       3.71 seconds =       0.06 minutes
	total time  =          1 seconds =       0.02 minutes
Total time:
	user time   =      43.71 seconds =       0.73 minutes
	system time =      59.82 seconds =       1.00 minutes
	total time  =         10 seconds =       0.17 minutes

*** tstart() called on Joses-MacBook-Pro-2.local
*** at Thu Jul 17 13:32:13 2025

         ------------------------------------------------------------
                                   SCF GRAD
                          Rob Parrish, Justin Turney,
                       Andy Simmonett, and Alex Sokolov
         ------------------------------------------------------------

  ==> Geometry <==

    Molecular point group: c2v
    Full point group: C_inf_v

    Geometry (in Angstrom), charge = 1, multiplicity = 3:

       Center              X                  Y                   Z               Mass
    ------------   -----------------  -----------------  -----------------  -----------------
         B            0.000000000000     0.000000000000     1.134501672338    11.009305360000
         NE           0.000000000000     0.000000000000    -0.624739913293    19.992440176200

  Nuclear repulsion =   15.039924447898862

  ==> Basis Set <==

  Basis Set: CC-PVDZ
    Blend: CC-PVDZ
    Number of shells: 12
    Number of basis functions: 28
    Number of Cartesian functions: 30
    Spherical Harmonics?: true
    Max angular momentum: 2

  ==> DFJKGrad: Density-Fitted SCF Gradients <==

    Gradient:                    1
    J tasked:                  Yes
    K tasked:                  Yes
    wK tasked:                  No
    OpenMP threads:              1
    Integrals threads:           1
    Memory [MiB]:              375
    Schwarz Cutoff:          1E-12
    Fitting Condition:       1E-10

   => Auxiliary Basis Set <=

  Basis Set: (CC-PVDZ AUX)
    Blend: CC-PVDZ-JKFIT
    Number of shells: 48
    Number of basis functions: 140
    Number of Cartesian functions: 162
    Spherical Harmonics?: true
    Max angular momentum: 3

  ==> DFT Potential <==

   => LibXC <=

    Version 6.2.2
    S. Lehtola, C. Steigemann, M. J.T. Oliveira, and M. A.L. Marques.,  SoftwareX 7, 1â€“5 (2018) (10.1016/j.softx.2017.11.002)

   => Composite Functional: B3LYP <=

    B3LYP Hyb-GGA Exchange-Correlation Functional

    P. J. Stephens, F. J. Devlin, C. F. Chabalowski, and M. J. Frisch.,  J. Phys. Chem. 98, 11623 (1994) (10.1021/j100096a001)

    Deriv               =              1
    GGA                 =           TRUE
    Meta                =          FALSE

    Exchange Hybrid     =           TRUE
    MP2 Hybrid          =          FALSE

   => Exchange Functionals <=

    0.0800   Slater exchange
    0.7200         Becke 88

   => Exact (HF) Exchange <=

    0.2000               HF

   => Correlation Functionals <=

    0.1900   Vosko, Wilk & Nusair (VWN5_RPA)
    0.8100   Lee, Yang & Parr

   => LibXC Density Thresholds  <==

    XC_HYB_GGA_XC_B3LYP:  1.00E-15

   => Molecular Quadrature <=

    Radial Scheme          =       TREUTLER
    Pruning Scheme         =           NONE
    Nuclear Scheme         =       TREUTLER

    Blocking Scheme        =         OCTREE
    BS radius alpha        =              1
    Pruning alpha          =              1
    Radial Points          =             75
    Spherical Points       =            302
    Total Points           =          43601
    Total Blocks           =            393
    Max Points             =            255
    Max Functions          =             28
    Weights Tolerance      =       1.00E-15

  -Total Gradient:
     Atom            X                  Y                   Z
    ------   -----------------  -----------------  -----------------
       1       -0.000000000000     0.000000000000    -0.000008302842
       2       -0.000000000000     0.000000000000     0.000028453069

*** tstop() called on Joses-MacBook-Pro-2.local at Thu Jul 17 13:32:13 2025
Module time:
	user time   =       0.29 seconds =       0.00 minutes
	system time =       1.24 seconds =       0.02 minutes
	total time  =          0 seconds =       0.00 minutes
Total time:
	user time   =      44.00 seconds =       0.73 minutes
	system time =      61.07 seconds =       1.02 minutes
	total time  =         10 seconds =       0.17 minutes

    			-----------------------------------------

    			 OPTKING 3.0: for geometry optimizations

    			     By R.A. King, Bethel University

    			        with contributions from

    			    A.V. Copan, J. Cayton, A. Heide

    			-----------------------------------------

	                            ===> Fragment 1 <==

	 Z (Atomic Numbers)          Masses                          Geom
	       5.000000            11.009305          0.00000000  0.00000000  2.14389745
	      10.000000            19.992440          0.00000000  0.00000000 -1.18058734

	 - Coordinate -           - BOHR/RAD -       - ANG/DEG -
	 R(1,2)           =         3.324485           1.759242

	        --- Internal Coordinate Step in ANG or DEG, aJ/ANG or AJ/DEG ---
	-------------------------------------------------------------------------------
	           Coordinate      Previous         Force          Change          New
	           ----------      --------        ------          ------        ------
	               R(1,2)       1.75924        0.00015        0.00017       1.75942
	-------------------------------------------------------------------------------

	                                 ==> Convergence Check <==

	Measures of convergence in internal coordinates in au.

	Criteria marked as inactive (o), active & met (*), and active & unmet ( ).

	----------------------------------------------------------------------------------------------
	   Step    Total Energy     Delta E     Max Force     RMS Force      Max Disp      RMS Disp
	----------------------------------------------------------------------------------------------
	  Convergence Criteria     1.00e-06 *    3.00e-04 *             o    1.20e-03 *             o
	----------------------------------------------------------------------------------------------
	    12    -153.12559742   -2.14e-07 *    1.84e-05 *    1.84e-05 o    3.28e-04 *    3.28e-04 o  ~
	----------------------------------------------------------------------------------------------

Next Geometry in Ang
	Fragment 1 (Ang)

	    B   0.0000000000   0.0000000000   1.1345884345
	   Ne   0.0000000000   0.0000000000  -0.6248266755

    Final optimized geometry and variables:
    Molecular point group: c2v
    Full point group: C_inf_v

    Geometry (in Angstrom), charge = 1, multiplicity = 3:

    B            0.000000000000     0.000000000000     1.134501672338
    NE           0.000000000000     0.000000000000    -0.624739913293

    Psi4 stopped on: Thursday, 17 July 2025 01:32PM
    Psi4 wall time for execution: 0:00:11.12

*** Psi4 exiting successfully. Buy a developer a beer!
