                               Psi4 1.9.1 release

  ==> Input File <==

--------------------------------------------------------------------------
molecule {
1 3
He   0.00000        0.60000        0.00000
Li   0.00000       -0.60000        0.00000
}

set {
basis              cc-pvdz
reference          uks
maxiter            500
geom_maxiter       500
DAMPING_PERCENTAGE 1
guess              SAP
}

optimize('b3lyp')
--------------------------------------------------------------------------

    Molecular point group: c2v
  Charge       = 1
  Multiplicity = 3
  Basis Set: CC-PVDZ
    Blend: CC-PVDZ
  Basis Set: (CC-PVDZ AUX)
    Blend: DEF2-UNIVERSAL-JKFIT
  @DF-UKS Final Energy:    -9.27439535822967
    Total Energy =                         -9.2743953582296665
 Dipole X            :          0.0000000            0.0000000            0.0000000
 Dipole Y            :          0.0000000            0.0000000            0.0000000
 Dipole Z            :          0.6063362            0.4165875            1.0229237
 Magnitude           :                                                    1.0229237
    Molecular point group: c2v
  Basis Set: CC-PVDZ
    Blend: CC-PVDZ
  Basis Set: (CC-PVDZ AUX)
    Blend: DEF2-UNIVERSAL-JKFIT
  Basis Set: CC-PVDZ
    Blend: CC-PVDZ
  Basis Set: (CC-PVDZ AUX)
    Blend: DEF2-UNIVERSAL-JKFIT
  @DF-UKS Final Energy:    -9.35691511544461
    Total Energy =                         -9.3569151154446146
  Basis Set: CC-PVDZ
    Blend: CC-PVDZ
  Basis Set: (CC-PVDZ AUX)
    Blend: DEF2-UNIVERSAL-JKFIT
  Basis Set: CC-PVDZ
    Blend: CC-PVDZ
  @DF-UKS Final Energy:    -9.43134420329910
    Total Energy =                         -9.4313442032991013
  @DF-UKS Final Energy:    -9.47651857758786
    Total Energy =                         -9.4765185775878571
  @DF-UKS Final Energy:    -9.49651744760850
    Total Energy =                         -9.4965174476085039
  @DF-UKS Final Energy:    -9.50666717767674
    Total Energy =                         -9.5066671776767375
  @DF-UKS Final Energy:    -9.51033592962427
    Total Energy =                         -9.5103359296242651
  @DF-UKS Final Energy:    -9.51135970560824
    Total Energy =                         -9.5113597056082426
  @DF-UKS Final Energy:    -9.51151816515880
    Total Energy =                         -9.5115181651588045
  Basis Set: (CC-PVDZ AUX)
    Blend: DEF2-UNIVERSAL-JKFIT
  Basis Set: CC-PVDZ
    Blend: CC-PVDZ
  Basis Set: (CC-PVDZ AUX)
    Blend: DEF2-UNIVERSAL-JKFIT
  @DF-UKS Final Energy:    -9.51152658249980
    Total Energy =                         -9.5115265824997994
  Basis Set: CC-PVDZ
    Blend: CC-PVDZ
  Basis Set: (CC-PVDZ AUX)
    Blend: DEF2-UNIVERSAL-JKFIT
  Charge       = 1
  Multiplicity = 3
  Basis Set: CC-PVDZ
    Blend: CC-PVDZ
  Basis Set: (CC-PVDZ AUX)
    Blend: DEF2-UNIVERSAL-JKFIT

    Orbital Energies [Eh]
    ---------------------

    Alpha Occupied:

       1A1    -2.200223     2A1    -1.561704     3A1    -0.316217

    Alpha Virtual:

       4A1    -0.169058     1B1    -0.167600     1B2    -0.167600
       5A1    -0.103120     2B1    -0.048670     2B2    -0.048670
       6A1    -0.021085     7A1     0.055148     3B2     0.065043
       3B1     0.065043     8A1     0.085759     1A2     0.085759
       9A1     0.589619     4B1     1.398662     4B2     1.398662
      10A1     1.430226

    Beta Occupied:

       1A1    -2.194323

    Beta Virtual:

       2A1    -0.917561     3A1    -0.214451     4A1    -0.149615
       1B2    -0.144423     1B1    -0.144423     5A1    -0.071264
       2B2    -0.042876     2B1    -0.042876     6A1    -0.024150
       7A1     0.095882     3B2     0.097931     3B1     0.097931
       8A1     0.109331     1A2     0.109371     9A1     0.876354
       4B2     1.740119     4B1     1.740127    10A1     1.778188

    Final Occupation by Irrep:
             A1    A2    B1    B2
    DOCC [     1,    0,    0,    0 ]
    SOCC [     2,    0,    0,    0 ]
    NA   [     3,    0,    0,    0 ]
    NB   [     1,    0,    0,    0 ]

  @DF-UKS Final Energy:    -9.51152702346742

   => Energetics <=

    Nuclear Repulsion Energy =              1.0377570996906953
    One-Electron Energy =                 -13.3733681326081406
    Two-Electron Energy =                   4.8281091163437555
    DFT Exchange-Correlation Energy =      -2.0040251068937307
    Empirical Dispersion Energy =           0.0000000000000000
    VV10 Nonlocal Energy =                  0.0000000000000000
    Total Energy =                         -9.5115270234674192

  UHF NO Occupations:
  HONO-2 :    1 A1 1.9999991
  HONO-1 :    2 A1 1.0000000
  HONO-0 :    3 A1 1.0000000
  LUNO+0 :    4 A1 0.0000009
  LUNO+1 :    5 A1 0.0000000
  LUNO+2 :    6 A1 0.0000000
  LUNO+3 :    4 B2 0.0000000

Computation Completed

Properties will be evaluated at   0.000000,   0.000000,   0.000000 [a0]

Properties computed using the SCF density matrix

 Multipole Moments:

 ------------------------------------------------------------------------------------
     Multipole            Electronic (a.u.)      Nuclear  (a.u.)        Total (a.u.)
 ------------------------------------------------------------------------------------

 L = 1.  Multiply by 2.5417464519 to convert [e a0] to [Debye]
 Dipole X            :          0.0000000            0.0000000            0.0000000
 Dipole Y            :          0.0000000            0.0000000            0.0000000
 Dipole Z            :          0.4679655            1.0621397            1.5301052
 Magnitude           :                                                    1.5301052

 ------------------------------------------------------------------------------------

*** tstop() called on Joses-MacBook-Pro-2.local at Thu Jul 17 12:25:18 2025
Module time:
	user time   =       0.62 seconds =       0.01 minutes
	system time =       3.36 seconds =       0.06 minutes
	total time  =          0 seconds =       0.00 minutes
Total time:
	user time   =      11.47 seconds =       0.19 minutes
	system time =      45.62 seconds =       0.76 minutes
	total time  =          6 seconds =       0.10 minutes

*** tstart() called on Joses-MacBook-Pro-2.local
*** at Thu Jul 17 12:25:18 2025

         ------------------------------------------------------------
                                   SCF GRAD
                          Rob Parrish, Justin Turney,
                       Andy Simmonett, and Alex Sokolov
         ------------------------------------------------------------

  ==> Geometry <==

    Molecular point group: c2v
    Full point group: C_inf_v

    Geometry (in Angstrom), charge = 1, multiplicity = 3:

       Center              X                  Y                   Z               Mass
    ------------   -----------------  -----------------  -----------------  -----------------
         HE           0.000000000000     0.000000000000     1.948138287597     4.002603254130
         LI           0.000000000000     0.000000000000    -1.111405477477     7.016003436600

  Nuclear repulsion =    1.037757099690695

  ==> Basis Set <==

  Basis Set: CC-PVDZ
    Blend: CC-PVDZ
    Number of shells: 9
    Number of basis functions: 19
    Number of Cartesian functions: 20
    Spherical Harmonics?: true
    Max angular momentum: 2

  ==> DFJKGrad: Density-Fitted SCF Gradients <==

    Gradient:                    1
    J tasked:                  Yes
    K tasked:                  Yes
    wK tasked:                  No
    OpenMP threads:              1
    Integrals threads:           1
    Memory [MiB]:              375
    Schwarz Cutoff:          1E-12
    Fitting Condition:       1E-10

   => Auxiliary Basis Set <=

  Basis Set: (CC-PVDZ AUX)
    Blend: DEF2-UNIVERSAL-JKFIT
    Number of shells: 26
    Number of basis functions: 74
    Number of Cartesian functions: 85
    Spherical Harmonics?: true
    Max angular momentum: 3

  ==> DFT Potential <==

   => LibXC <=

    Version 6.2.2
    S. Lehtola, C. Steigemann, M. J.T. Oliveira, and M. A.L. Marques.,  SoftwareX 7, 1â€“5 (2018) (10.1016/j.softx.2017.11.002)

   => Composite Functional: B3LYP <=

    B3LYP Hyb-GGA Exchange-Correlation Functional

    P. J. Stephens, F. J. Devlin, C. F. Chabalowski, and M. J. Frisch.,  J. Phys. Chem. 98, 11623 (1994) (10.1021/j100096a001)

    Deriv               =              1
    GGA                 =           TRUE
    Meta                =          FALSE

    Exchange Hybrid     =           TRUE
    MP2 Hybrid          =          FALSE

   => Exchange Functionals <=

    0.0800   Slater exchange
    0.7200         Becke 88

   => Exact (HF) Exchange <=

    0.2000               HF

   => Correlation Functionals <=

    0.1900   Vosko, Wilk & Nusair (VWN5_RPA)
    0.8100   Lee, Yang & Parr

   => LibXC Density Thresholds  <==

    XC_HYB_GGA_XC_B3LYP:  1.00E-15

   => Molecular Quadrature <=

    Radial Scheme          =       TREUTLER
    Pruning Scheme         =           NONE
    Nuclear Scheme         =       TREUTLER

    Blocking Scheme        =         OCTREE
    BS radius alpha        =              1
    Pruning alpha          =              1
    Radial Points          =             75
    Spherical Points       =            302
    Total Points           =          44368
    Total Blocks           =            409
    Max Points             =            256
    Max Functions          =             19
    Weights Tolerance      =       1.00E-15

  -Total Gradient:
     Atom            X                  Y                   Z
    ------   -----------------  -----------------  -----------------
       1        0.000000000000     0.000000000000    -0.000029849950
       2       -0.000000000000     0.000000000000     0.000019665212

*** tstop() called on Joses-MacBook-Pro-2.local at Thu Jul 17 12:25:18 2025
Module time:
	user time   =       0.32 seconds =       0.01 minutes
	system time =       0.78 seconds =       0.01 minutes
	total time  =          0 seconds =       0.00 minutes
Total time:
	user time   =      11.79 seconds =       0.20 minutes
	system time =      46.40 seconds =       0.77 minutes
	total time  =          6 seconds =       0.10 minutes

    			-----------------------------------------

    			 OPTKING 3.0: for geometry optimizations

    			     By R.A. King, Bethel University

    			        with contributions from

    			    A.V. Copan, J. Cayton, A. Heide

    			-----------------------------------------

	                            ===> Fragment 1 <==

	 Z (Atomic Numbers)          Masses                          Geom
	       2.000000             4.002603          0.00000000  0.00000000  3.68144782
	       3.000000             7.016003          0.00000000  0.00000000 -2.10025197

	 - Coordinate -           - BOHR/RAD -       - ANG/DEG -
	 R(1,2)           =         5.781700           3.059544

	        --- Internal Coordinate Step in ANG or DEG, aJ/ANG or AJ/DEG ---
	-------------------------------------------------------------------------------
	           Coordinate      Previous         Force          Change          New
	           ----------      --------        ------          ------        ------
	               R(1,2)       3.05954        0.00020        0.00092       3.06046
	-------------------------------------------------------------------------------

	                                 ==> Convergence Check <==

	Measures of convergence in internal coordinates in au.

	Criteria marked as inactive (o), active & met (*), and active & unmet ( ).

	----------------------------------------------------------------------------------------------
	   Step    Total Energy     Delta E     Max Force     RMS Force      Max Disp      RMS Disp
	----------------------------------------------------------------------------------------------
	  Convergence Criteria     1.00e-06 *    3.00e-04 *             o    1.20e-03 *             o
	----------------------------------------------------------------------------------------------
	    11      -9.51152702   -4.41e-07 *    2.48e-05 *    2.48e-05 o    1.74e-03      1.74e-03 o  ~
	----------------------------------------------------------------------------------------------

Next Geometry in Ang
	Fragment 1 (Ang)

	   He   0.0000000000   0.0000000000   1.9485989008
	   Li   0.0000000000   0.0000000000  -1.1118660907

    Final optimized geometry and variables:
    Molecular point group: c2v
    Full point group: C_inf_v

    Geometry (in Angstrom), charge = 1, multiplicity = 3:

    HE           0.000000000000     0.000000000000     1.948138287597
    LI           0.000000000000     0.000000000000    -1.111405477477

    Psi4 stopped on: Thursday, 17 July 2025 12:25PM
    Psi4 wall time for execution: 0:00:06.56

*** Psi4 exiting successfully. Buy a developer a beer!
