                               Psi4 1.9.1 release

  ==> Input File <==

--------------------------------------------------------------------------
molecule {
1 3
Li   0.00000        0.60000        0.00000
Be   0.00000       -0.60000        0.00000
}

set {
basis              cc-pvdz
reference          uks
maxiter            500
geom_maxiter       500
DAMPING_PERCENTAGE 1
guess              SAP
}

optimize('b3lyp')
--------------------------------------------------------------------------

    Molecular point group: c2v
  Charge       = 1
  Multiplicity = 3
  Basis Set: CC-PVDZ
    Blend: CC-PVDZ
  Basis Set: (CC-PVDZ AUX)
    Blend: DEF2-UNIVERSAL-JKFIT
  @DF-UKS Final Energy:   -21.65273486650187
    Total Energy =                        -21.6527348665018735
 Dipole X            :          0.0000000            0.0000000            0.0000000
 Dipole Y            :          0.0000000            0.0000000            0.0000000
 Dipole Z            :          0.6111926           -0.1453659            0.4658267
 Magnitude           :                                                    0.4658267
    Molecular point group: c2v
  Basis Set: CC-PVDZ
    Blend: CC-PVDZ
  Basis Set: (CC-PVDZ AUX)
    Blend: DEF2-UNIVERSAL-JKFIT
  Basis Set: CC-PVDZ
    Blend: CC-PVDZ
  Basis Set: (CC-PVDZ AUX)
    Blend: DEF2-UNIVERSAL-JKFIT
  @DF-UKS Final Energy:   -21.72321152745093
    Total Energy =                        -21.7232115274509319
  Basis Set: CC-PVDZ
    Blend: CC-PVDZ
  Basis Set: (CC-PVDZ AUX)
    Blend: DEF2-UNIVERSAL-JKFIT
  Basis Set: CC-PVDZ
    Blend: CC-PVDZ
  @DF-UKS Final Energy:   -21.80808972427192
    Total Energy =                        -21.8080897242719232
  @DF-UKS Final Energy:   -21.84211990314383
    Total Energy =                        -21.8421199031438285
  @DF-UKS Final Energy:   -21.86124901552929
    Total Energy =                        -21.8612490155292889
  @DF-UKS Final Energy:   -21.86964125643674
    Total Energy =                        -21.8696412564367435
  @DF-UKS Final Energy:   -21.87321638356800
    Total Energy =                        -21.8732163835679962
  @DF-UKS Final Energy:   -21.87445216769181
    Total Energy =                        -21.8744521676918140
  @DF-UKS Final Energy:   -21.87474655342164
    Total Energy =                        -21.8747465534216374
  @DF-UKS Final Energy:   -21.87477908986142
    Total Energy =                        -21.8747790898614163
  Basis Set: (CC-PVDZ AUX)
    Blend: DEF2-UNIVERSAL-JKFIT
  Basis Set: CC-PVDZ
    Blend: CC-PVDZ
  Basis Set: (CC-PVDZ AUX)
    Blend: DEF2-UNIVERSAL-JKFIT
  @DF-UKS Final Energy:   -21.87478292189464
    Total Energy =                        -21.8747829218946386
  Basis Set: CC-PVDZ
    Blend: CC-PVDZ
  Basis Set: (CC-PVDZ AUX)
    Blend: DEF2-UNIVERSAL-JKFIT
  Charge       = 1
  Multiplicity = 3
  Basis Set: CC-PVDZ
    Blend: CC-PVDZ
  Basis Set: (CC-PVDZ AUX)
    Blend: DEF2-UNIVERSAL-JKFIT

    Orbital Energies [Eh]
    ---------------------

    Alpha Occupied:

       1A1    -4.322078     2A1    -2.303099     3A1    -0.478229
       1B1    -0.329005

    Alpha Virtual:

       4A1    -0.282990     1B2    -0.253944     5A1    -0.207128
       2B1    -0.169344     2B2    -0.153695     6A1    -0.100346
       3B1    -0.064421     3B2    -0.060566     7A1    -0.045246
       8A1    -0.026722     9A1     0.021523     4B1     0.029791
       4B2     0.047275     1A2     0.056651    10A1     0.061442
       5B1     0.072596     5B2     0.084680    11A1     0.143478
      12A1     0.221377     2A2     0.272714    13A1     0.283291
       6B1     0.373109     6B2     0.392327    14A1     0.521833

    Beta Occupied:

       1A1    -4.304540     2A1    -2.301816

    Beta Virtual:

       3A1    -0.326242     4A1    -0.239651     1B2    -0.203932
       5A1    -0.192385     1B1    -0.186929     2B2    -0.142444
       2B1    -0.125620     6A1    -0.081509     3B2    -0.058742
       3B1    -0.056952     7A1    -0.044811     8A1    -0.007086
       9A1     0.043827     4B2     0.065489     1A2     0.072252
      10A1     0.073254     4B1     0.085998     5B2     0.101473
       5B1     0.107203    11A1     0.178921    12A1     0.245772
      13A1     0.373986     2A2     0.376803     6B2     0.440506
       6B1     0.466110    14A1     0.575338

    Final Occupation by Irrep:
             A1    A2    B1    B2
    DOCC [     2,    0,    0,    0 ]
    SOCC [     1,    0,    1,    0 ]
    NA   [     3,    0,    1,    0 ]
    NB   [     2,    0,    0,    0 ]

  @DF-UKS Final Energy:   -21.87478338712447

   => Energetics <=

    Nuclear Repulsion Energy =              2.3762519031278169
    One-Electron Energy =                 -31.8428008192375245
    Two-Electron Energy =                  11.2156832079432665
    DFT Exchange-Correlation Energy =      -3.6239176789580250
    Empirical Dispersion Energy =           0.0000000000000000
    VV10 Nonlocal Energy =                  0.0000000000000000
    Total Energy =                        -21.8747833871244701

  UHF NO Occupations:
  HONO-2 :    2 A1 1.9999992
  HONO-1 :    3 A1 1.0000000
  HONO-0 :    1 B1 1.0000000
  LUNO+0 :    4 A1 0.0000008
  LUNO+1 :    5 A1 0.0000005
  LUNO+2 :    6 A1 0.0000000
  LUNO+3 :    2 B1 0.0000000

Computation Completed

Properties will be evaluated at   0.000000,   0.000000,   0.000000 [a0]

Properties computed using the SCF density matrix

 Multipole Moments:

 ------------------------------------------------------------------------------------
     Multipole            Electronic (a.u.)      Nuclear  (a.u.)        Total (a.u.)
 ------------------------------------------------------------------------------------

 L = 1.  Multiply by 2.5417464519 to convert [e a0] to [Debye]
 Dipole X            :          0.0000000            0.0000000            0.0000000
 Dipole Y            :          0.0000000            0.0000000            0.0000000
 Dipole Z            :          1.7299909           -0.3237213            1.4062696
 Magnitude           :                                                    1.4062696

 ------------------------------------------------------------------------------------

*** tstop() called on Joses-MacBook-Pro-2.local at Thu Jul 17 12:43:17 2025
Module time:
	user time   =       1.62 seconds =       0.03 minutes
	system time =       3.57 seconds =       0.06 minutes
	total time  =          1 seconds =       0.02 minutes
Total time:
	user time   =      36.10 seconds =       0.60 minutes
	system time =      58.89 seconds =       0.98 minutes
	total time  =          9 seconds =       0.15 minutes

*** tstart() called on Joses-MacBook-Pro-2.local
*** at Thu Jul 17 12:43:17 2025

         ------------------------------------------------------------
                                   SCF GRAD
                          Rob Parrish, Justin Turney,
                       Andy Simmonett, and Alex Sokolov
         ------------------------------------------------------------

  ==> Geometry <==

    Molecular point group: c2v
    Full point group: C_inf_v

    Geometry (in Angstrom), charge = 1, multiplicity = 3:

       Center              X                  Y                   Z               Mass
    ------------   -----------------  -----------------  -----------------  -----------------
         LI           0.000000000000     0.000000000000     1.502572786439     7.016003436600
         BE           0.000000000000     0.000000000000    -1.169756068798     9.012183065000

  Nuclear repulsion =    2.376251903127817

  ==> Basis Set <==

  Basis Set: CC-PVDZ
    Blend: CC-PVDZ
    Number of shells: 12
    Number of basis functions: 28
    Number of Cartesian functions: 30
    Spherical Harmonics?: true
    Max angular momentum: 2

  ==> DFJKGrad: Density-Fitted SCF Gradients <==

    Gradient:                    1
    J tasked:                  Yes
    K tasked:                  Yes
    wK tasked:                  No
    OpenMP threads:              1
    Integrals threads:           1
    Memory [MiB]:              375
    Schwarz Cutoff:          1E-12
    Fitting Condition:       1E-10

   => Auxiliary Basis Set <=

  Basis Set: (CC-PVDZ AUX)
    Blend: DEF2-UNIVERSAL-JKFIT
    Number of shells: 34
    Number of basis functions: 102
    Number of Cartesian functions: 120
    Spherical Harmonics?: true
    Max angular momentum: 3

  ==> DFT Potential <==

   => LibXC <=

    Version 6.2.2
    S. Lehtola, C. Steigemann, M. J.T. Oliveira, and M. A.L. Marques.,  SoftwareX 7, 1â€“5 (2018) (10.1016/j.softx.2017.11.002)

   => Composite Functional: B3LYP <=

    B3LYP Hyb-GGA Exchange-Correlation Functional

    P. J. Stephens, F. J. Devlin, C. F. Chabalowski, and M. J. Frisch.,  J. Phys. Chem. 98, 11623 (1994) (10.1021/j100096a001)

    Deriv               =              1
    GGA                 =           TRUE
    Meta                =          FALSE

    Exchange Hybrid     =           TRUE
    MP2 Hybrid          =          FALSE

   => Exchange Functionals <=

    0.0800   Slater exchange
    0.7200         Becke 88

   => Exact (HF) Exchange <=

    0.2000               HF

   => Correlation Functionals <=

    0.1900   Vosko, Wilk & Nusair (VWN5_RPA)
    0.8100   Lee, Yang & Parr

   => LibXC Density Thresholds  <==

    XC_HYB_GGA_XC_B3LYP:  1.00E-15

   => Molecular Quadrature <=

    Radial Scheme          =       TREUTLER
    Pruning Scheme         =           NONE
    Nuclear Scheme         =       TREUTLER

    Blocking Scheme        =         OCTREE
    BS radius alpha        =              1
    Pruning alpha          =              1
    Radial Points          =             75
    Spherical Points       =            302
    Total Points           =          44178
    Total Blocks           =            435
    Max Points             =            256
    Max Functions          =             28
    Weights Tolerance      =       1.00E-15

  -Total Gradient:
     Atom            X                  Y                   Z
    ------   -----------------  -----------------  -----------------
       1        0.000000000000    -0.000000000000    -0.000033605592
       2       -0.000000000000     0.000000000000     0.000038875014

*** tstop() called on Joses-MacBook-Pro-2.local at Thu Jul 17 12:43:17 2025
Module time:
	user time   =       0.31 seconds =       0.01 minutes
	system time =       1.55 seconds =       0.03 minutes
	total time  =          0 seconds =       0.00 minutes
Total time:
	user time   =      36.42 seconds =       0.61 minutes
	system time =      60.44 seconds =       1.01 minutes
	total time  =          9 seconds =       0.15 minutes

    			-----------------------------------------

    			 OPTKING 3.0: for geometry optimizations

    			     By R.A. King, Bethel University

    			        with contributions from

    			    A.V. Copan, J. Cayton, A. Heide

    			-----------------------------------------

	                            ===> Fragment 1 <==

	 Z (Atomic Numbers)          Masses                          Geom
	       3.000000             7.016003          0.00000000  0.00000000  2.83945105
	       4.000000             9.012183          0.00000000  0.00000000 -2.21051860

	 - Coordinate -           - BOHR/RAD -       - ANG/DEG -
	 R(1,2)           =         5.049970           2.672329

	        --- Internal Coordinate Step in ANG or DEG, aJ/ANG or AJ/DEG ---
	-------------------------------------------------------------------------------
	           Coordinate      Previous         Force          Change          New
	           ----------      --------        ------          ------        ------
	               R(1,2)       2.67233        0.00030        0.00167       2.67400
	-------------------------------------------------------------------------------

	                                 ==> Convergence Check <==

	Measures of convergence in internal coordinates in au.

	Criteria marked as inactive (o), active & met (*), and active & unmet ( ).

	----------------------------------------------------------------------------------------------
	   Step    Total Energy     Delta E     Max Force     RMS Force      Max Disp      RMS Disp
	----------------------------------------------------------------------------------------------
	  Convergence Criteria     1.00e-06 *    3.00e-04 *             o    1.20e-03 *             o
	----------------------------------------------------------------------------------------------
	    12     -21.87478339   -4.65e-07 *    3.62e-05 *    3.62e-05 o    3.15e-03      3.15e-03 o  ~
	----------------------------------------------------------------------------------------------

Next Geometry in Ang
	Fragment 1 (Ang)

	   Li   0.0000000000   0.0000000000   1.5034059268
	   Be   0.0000000000   0.0000000000  -1.1705892091

    Final optimized geometry and variables:
    Molecular point group: c2v
    Full point group: C_inf_v

    Geometry (in Angstrom), charge = 1, multiplicity = 3:

    LI           0.000000000000     0.000000000000     1.502572786439
    BE           0.000000000000     0.000000000000    -1.169756068798

    Psi4 stopped on: Thursday, 17 July 2025 12:43PM
    Psi4 wall time for execution: 0:00:09.78

*** Psi4 exiting successfully. Buy a developer a beer!
