                               Psi4 1.9.1 release

  ==> Input File <==

--------------------------------------------------------------------------
molecule {
1 3
B   0.00000        0.60000        0.00000
Mg   0.00000       -0.60000        0.00000
}

set {
basis              cc-pvdz
reference          uks
maxiter            500
geom_maxiter       500
DAMPING_PERCENTAGE 1
guess              SAP
}

optimize('b3lyp')
--------------------------------------------------------------------------

    Molecular point group: c2v
  Charge       = 1
  Multiplicity = 3
  Basis Set: CC-PVDZ
    Blend: CC-PVDZ
  Basis Set: (CC-PVDZ AUX)
    Blend: CC-PVDZ-JKFIT + DEF2-UNIVERSAL-JKFIT
  @DF-UKS Final Energy:  -224.00516178914776
    Total Energy =                       -224.0051617891477349
 Dipole X            :          0.0000000            0.0000000            0.0000000
 Dipole Y            :          0.0000000            0.0000000            0.0000000
 Dipole Z            :         -0.6012514           -0.7896955           -1.3909468
 Magnitude           :                                                    1.3909468
    Molecular point group: c2v
  Basis Set: CC-PVDZ
    Blend: CC-PVDZ
  Basis Set: (CC-PVDZ AUX)
    Blend: CC-PVDZ-JKFIT + DEF2-UNIVERSAL-JKFIT
  Basis Set: CC-PVDZ
    Blend: CC-PVDZ
  Basis Set: (CC-PVDZ AUX)
    Blend: CC-PVDZ-JKFIT + DEF2-UNIVERSAL-JKFIT
  @DF-UKS Final Energy:  -224.14483809906167
    Total Energy =                       -224.1448380990616727
  Basis Set: CC-PVDZ
    Blend: CC-PVDZ
  Basis Set: (CC-PVDZ AUX)
    Blend: CC-PVDZ-JKFIT + DEF2-UNIVERSAL-JKFIT
  Basis Set: CC-PVDZ
    Blend: CC-PVDZ
  @DF-UKS Final Energy:  -224.28072295638714
    Total Energy =                       -224.2807229563871374
  @DF-UKS Final Energy:  -224.37779975984324
    Total Energy =                       -224.3777997598432421
  @DF-UKS Final Energy:  -224.41555458647645
    Total Energy =                       -224.4155545864764463
  @DF-UKS Final Energy:  -224.42740707758810
    Total Energy =                       -224.4274070775881000
  @DF-UKS Final Energy:  -224.43008454770282
    Total Energy =                       -224.4300845477028474
  @DF-UKS Final Energy:  -224.43035215470832
    Total Energy =                       -224.4303521547082596
  @DF-UKS Final Energy:  -224.43038099384268
    Total Energy =                       -224.4303809938426753
  Basis Set: (CC-PVDZ AUX)
    Blend: CC-PVDZ-JKFIT + DEF2-UNIVERSAL-JKFIT
  Basis Set: CC-PVDZ
    Blend: CC-PVDZ
  Basis Set: (CC-PVDZ AUX)
    Blend: CC-PVDZ-JKFIT + DEF2-UNIVERSAL-JKFIT
  @DF-UKS Final Energy:  -224.43038421998978
    Total Energy =                       -224.4303842199897758
  Basis Set: CC-PVDZ
    Blend: CC-PVDZ
  Basis Set: (CC-PVDZ AUX)
    Blend: CC-PVDZ-JKFIT + DEF2-UNIVERSAL-JKFIT
  Charge       = 1
  Multiplicity = 3
  Basis Set: CC-PVDZ
    Blend: CC-PVDZ
  Basis Set: (CC-PVDZ AUX)
    Blend: CC-PVDZ-JKFIT + DEF2-UNIVERSAL-JKFIT

    Orbital Energies [Eh]
    ---------------------

    Alpha Occupied:

       1A1   -47.174669     2A1    -7.026472     3A1    -3.448332
       1B1    -2.192254     1B2    -2.192254     4A1    -2.191902
       5A1    -0.626294     2B1    -0.384577     2B2    -0.384577

    Alpha Virtual:

       6A1    -0.383007     7A1    -0.290241     3B1    -0.209040
       3B2    -0.209040     8A1    -0.129711     9A1    -0.073918
       4B1    -0.031423     4B2    -0.031423    10A1     0.034719
      11A1     0.064549     1A2     0.064550    12A1     0.101109
       5B1     0.121300     5B2     0.121300     6B1     0.148098
       6B2     0.148098    13A1     0.362122    14A1     0.469511
       2A2     0.513803    15A1     0.513804     7B1     0.683234
       7B2     0.683234    16A1     0.885818

    Beta Occupied:

       1A1   -47.174345     2A1    -7.009549     3A1    -3.448055
       4A1    -2.192105     1B1    -2.190845     1B2    -2.190845
       5A1    -0.558045

    Beta Virtual:

       6A1    -0.364941     7A1    -0.273712     2B1    -0.269413
       2B2    -0.269413     3B1    -0.174962     3B2    -0.174962
       8A1    -0.120209     9A1    -0.074362     4B1    -0.027369
       4B2    -0.027369    10A1     0.041473    11A1     0.079929
       1A2     0.079930    12A1     0.111801     5B1     0.141764
       5B2     0.141764     6B1     0.193478     6B2     0.193478
      13A1     0.389372    14A1     0.494739    15A1     0.595159
       2A2     0.595160     7B1     0.729105     7B2     0.729105
      16A1     0.908450

    Final Occupation by Irrep:
             A1    A2    B1    B2
    DOCC [     5,    0,    1,    1 ]
    SOCC [     0,    0,    1,    1 ]
    NA   [     5,    0,    2,    2 ]
    NB   [     5,    0,    1,    1 ]

  @DF-UKS Final Energy:  -224.43038460952090

   => Energetics <=

    Nuclear Repulsion Energy =             15.8002303694526578
    One-Electron Energy =                -338.3937757559134525
    Two-Electron Energy =                 114.4885724675546612
    DFT Exchange-Correlation Energy =     -16.3254116906147857
    Empirical Dispersion Energy =           0.0000000000000000
    VV10 Nonlocal Energy =                  0.0000000000000000
    Total Energy =                       -224.4303846095208996

  UHF NO Occupations:
  HONO-2 :    5 A1 1.9882234
  HONO-1 :    2 B1 1.0000000
  HONO-0 :    2 B2 1.0000000
  LUNO+0 :    6 A1 0.0117766
  LUNO+1 :    7 A1 0.0000005
  LUNO+2 :    8 A1 0.0000001
  LUNO+3 :    3 B1 0.0000001

Computation Completed

Properties will be evaluated at   0.000000,   0.000000,   0.000000 [a0]

Properties computed using the SCF density matrix

 Multipole Moments:

 ------------------------------------------------------------------------------------
     Multipole            Electronic (a.u.)      Nuclear  (a.u.)        Total (a.u.)
 ------------------------------------------------------------------------------------

 L = 1.  Multiply by 2.5417464519 to convert [e a0] to [Debye]
 Dipole X            :          0.0000000            0.0000000            0.0000000
 Dipole Y            :          0.0000000            0.0000000            0.0000000
 Dipole Z            :         -0.5480623           -1.3224137           -1.8704761
 Magnitude           :                                                    1.8704761

 ------------------------------------------------------------------------------------

*** tstop() called on Joses-MacBook-Pro-2.local at Thu Jul 17 13:34:28 2025
Module time:
	user time   =       2.49 seconds =       0.04 minutes
	system time =       3.16 seconds =       0.05 minutes
	total time  =          1 seconds =       0.02 minutes
Total time:
	user time   =      38.31 seconds =       0.64 minutes
	system time =      78.60 seconds =       1.31 minutes
	total time  =         12 seconds =       0.20 minutes

*** tstart() called on Joses-MacBook-Pro-2.local
*** at Thu Jul 17 13:34:28 2025

         ------------------------------------------------------------
                                   SCF GRAD
                          Rob Parrish, Justin Turney,
                       Andy Simmonett, and Alex Sokolov
         ------------------------------------------------------------

  ==> Geometry <==

    Molecular point group: c2v
    Full point group: C_inf_v

    Geometry (in Angstrom), charge = 1, multiplicity = 3:

       Center              X                  Y                   Z               Mass
    ------------   -----------------  -----------------  -----------------  -----------------
         B            0.000000000000     0.000000000000     1.377309513360    11.009305360000
         MG           0.000000000000     0.000000000000    -0.632194898778    23.985041697000

  Nuclear repulsion =   15.800230369452658

  ==> Basis Set <==

  Basis Set: CC-PVDZ
    Blend: CC-PVDZ
    Number of shells: 14
    Number of basis functions: 32
    Number of Cartesian functions: 34
    Spherical Harmonics?: true
    Max angular momentum: 2

  ==> DFJKGrad: Density-Fitted SCF Gradients <==

    Gradient:                    1
    J tasked:                  Yes
    K tasked:                  Yes
    wK tasked:                  No
    OpenMP threads:              1
    Integrals threads:           1
    Memory [MiB]:              375
    Schwarz Cutoff:          1E-12
    Fitting Condition:       1E-10

   => Auxiliary Basis Set <=

  Basis Set: (CC-PVDZ AUX)
    Blend: CC-PVDZ-JKFIT + DEF2-UNIVERSAL-JKFIT
    Number of shells: 58
    Number of basis functions: 182
    Number of Cartesian functions: 218
    Spherical Harmonics?: true
    Max angular momentum: 4

  ==> DFT Potential <==

   => LibXC <=

    Version 6.2.2
    S. Lehtola, C. Steigemann, M. J.T. Oliveira, and M. A.L. Marques.,  SoftwareX 7, 1â€“5 (2018) (10.1016/j.softx.2017.11.002)

   => Composite Functional: B3LYP <=

    B3LYP Hyb-GGA Exchange-Correlation Functional

    P. J. Stephens, F. J. Devlin, C. F. Chabalowski, and M. J. Frisch.,  J. Phys. Chem. 98, 11623 (1994) (10.1021/j100096a001)

    Deriv               =              1
    GGA                 =           TRUE
    Meta                =          FALSE

    Exchange Hybrid     =           TRUE
    MP2 Hybrid          =          FALSE

   => Exchange Functionals <=

    0.0800   Slater exchange
    0.7200         Becke 88

   => Exact (HF) Exchange <=

    0.2000               HF

   => Correlation Functionals <=

    0.1900   Vosko, Wilk & Nusair (VWN5_RPA)
    0.8100   Lee, Yang & Parr

   => LibXC Density Thresholds  <==

    XC_HYB_GGA_XC_B3LYP:  1.00E-15

   => Molecular Quadrature <=

    Radial Scheme          =       TREUTLER
    Pruning Scheme         =           NONE
    Nuclear Scheme         =       TREUTLER

    Blocking Scheme        =         OCTREE
    BS radius alpha        =              1
    Pruning alpha          =              1
    Radial Points          =             75
    Spherical Points       =            302
    Total Points           =          43262
    Total Blocks           =            416
    Max Points             =            254
    Max Functions          =             32
    Weights Tolerance      =       1.00E-15

  -Total Gradient:
     Atom            X                  Y                   Z
    ------   -----------------  -----------------  -----------------
       1       -0.000000000000     0.000000000000    -0.000066948898
       2        0.000000000000     0.000000000000     0.000050079705

*** tstop() called on Joses-MacBook-Pro-2.local at Thu Jul 17 13:34:28 2025
Module time:
	user time   =       0.79 seconds =       0.01 minutes
	system time =       1.92 seconds =       0.03 minutes
	total time  =          0 seconds =       0.00 minutes
Total time:
	user time   =      39.11 seconds =       0.65 minutes
	system time =      80.53 seconds =       1.34 minutes
	total time  =         12 seconds =       0.20 minutes

    			-----------------------------------------

    			 OPTKING 3.0: for geometry optimizations

    			     By R.A. King, Bethel University

    			        with contributions from

    			    A.V. Copan, J. Cayton, A. Heide

    			-----------------------------------------

	                            ===> Fragment 1 <==

	 Z (Atomic Numbers)          Masses                          Geom
	       5.000000            11.009305          0.00000000  0.00000000  2.60273777
	      12.000000            23.985042          0.00000000  0.00000000 -1.19467522

	 - Coordinate -           - BOHR/RAD -       - ANG/DEG -
	 R(1,2)           =         3.797413           2.009504

	        --- Internal Coordinate Step in ANG or DEG, aJ/ANG or AJ/DEG ---
	-------------------------------------------------------------------------------
	           Coordinate      Previous         Force          Change          New
	           ----------      --------        ------          ------        ------
	               R(1,2)       2.00950        0.00048        0.00023       2.00973
	-------------------------------------------------------------------------------

	                                 ==> Convergence Check <==

	Measures of convergence in internal coordinates in au.

	Criteria marked as inactive (o), active & met (*), and active & unmet ( ).

	----------------------------------------------------------------------------------------------
	   Step    Total Energy     Delta E     Max Force     RMS Force      Max Disp      RMS Disp
	----------------------------------------------------------------------------------------------
	  Convergence Criteria     1.00e-06 *    3.00e-04 *             o    1.20e-03 *             o
	----------------------------------------------------------------------------------------------
	    11    -224.43038461   -3.90e-07 *    5.85e-05 *    5.85e-05 o    4.31e-04 *    4.31e-04 o  ~
	----------------------------------------------------------------------------------------------

Next Geometry in Ang
	Fragment 1 (Ang)

	    B   0.0000000000   0.0000000000   1.3774236252
	   Mg   0.0000000000   0.0000000000  -0.6323090106

    Final optimized geometry and variables:
    Molecular point group: c2v
    Full point group: C_inf_v

    Geometry (in Angstrom), charge = 1, multiplicity = 3:

    B            0.000000000000     0.000000000000     1.377309513360
    MG           0.000000000000     0.000000000000    -0.632194898778

    Psi4 stopped on: Thursday, 17 July 2025 01:34PM
    Psi4 wall time for execution: 0:00:13.03

*** Psi4 exiting successfully. Buy a developer a beer!
