                               Psi4 1.9.1 release

  ==> Input File <==

--------------------------------------------------------------------------
molecule {
1 3
Li   0.00000        0.60000        0.00000
O   0.00000       -0.60000        0.00000
}

set {
basis              cc-pvdz
reference          uks
maxiter            500
geom_maxiter       500
DAMPING_PERCENTAGE 1
guess              SAP
}

optimize('b3lyp')
--------------------------------------------------------------------------

    Molecular point group: c2v
  Charge       = 1
  Multiplicity = 3
  Basis Set: CC-PVDZ
    Blend: CC-PVDZ
  Basis Set: (CC-PVDZ AUX)
    Blend: CC-PVDZ-JKFIT + DEF2-UNIVERSAL-JKFIT
  @DF-UKS Final Energy:   -82.17497950170568
    Total Energy =                        -82.1749795017056783
 Dipole X            :          0.0000000            0.0000000            0.0000000
 Dipole Y            :          0.0000000            0.0000000            0.0000000
 Dipole Z            :          2.1476346           -0.8025013            1.3451334
 Magnitude           :                                                    1.3451334
    Molecular point group: c2v
  Basis Set: CC-PVDZ
    Blend: CC-PVDZ
  Basis Set: (CC-PVDZ AUX)
    Blend: CC-PVDZ-JKFIT + DEF2-UNIVERSAL-JKFIT
  Basis Set: CC-PVDZ
    Blend: CC-PVDZ
  Basis Set: (CC-PVDZ AUX)
    Blend: CC-PVDZ-JKFIT + DEF2-UNIVERSAL-JKFIT
  @DF-UKS Final Energy:   -82.28618699018610
    Total Energy =                        -82.2861869901860956
  Basis Set: CC-PVDZ
    Blend: CC-PVDZ
  Basis Set: (CC-PVDZ AUX)
    Blend: CC-PVDZ-JKFIT + DEF2-UNIVERSAL-JKFIT
  Basis Set: CC-PVDZ
    Blend: CC-PVDZ
  @DF-UKS Final Energy:   -82.32135975252976
    Total Energy =                        -82.3213597525297587
  @DF-UKS Final Energy:   -82.34191801969608
    Total Energy =                        -82.3419180196960667
  @DF-UKS Final Energy:   -82.35166026970381
    Total Energy =                        -82.3516602697037996
  @DF-UKS Final Energy:   -82.35644975321898
    Total Energy =                        -82.3564497532189819
  @DF-UKS Final Energy:   -82.35860562806221
    Total Energy =                        -82.3586056280622074
  @DF-UKS Final Energy:   -82.35928119332816
    Total Energy =                        -82.3592811933281581
  @DF-UKS Final Energy:   -82.35961085081414
    Total Energy =                        -82.3596108508141214
  @DF-UKS Final Energy:   -82.35972420035191
    Total Energy =                        -82.3597242003519057
  @DF-UKS Final Energy:   -82.35974453373144
    Total Energy =                        -82.3597445337314440
  @DF-UKS Final Energy:   -82.35974877391499
    Total Energy =                        -82.3597487739149869
  Basis Set: (CC-PVDZ AUX)
    Blend: CC-PVDZ-JKFIT + DEF2-UNIVERSAL-JKFIT
  Basis Set: CC-PVDZ
    Blend: CC-PVDZ
  Basis Set: (CC-PVDZ AUX)
    Blend: CC-PVDZ-JKFIT + DEF2-UNIVERSAL-JKFIT
  @DF-UKS Final Energy:   -82.35974995328692
    Total Energy =                        -82.3597499532869222
  Basis Set: CC-PVDZ
    Blend: CC-PVDZ
  Basis Set: (CC-PVDZ AUX)
    Blend: CC-PVDZ-JKFIT + DEF2-UNIVERSAL-JKFIT
  Charge       = 1
  Multiplicity = 3
  Basis Set: CC-PVDZ
    Blend: CC-PVDZ
  Basis Set: (CC-PVDZ AUX)
    Blend: CC-PVDZ-JKFIT + DEF2-UNIVERSAL-JKFIT

    Orbital Energies [Eh]
    ---------------------

    Alpha Occupied:

       1A1   -19.525518     2A1    -2.342555     3A1    -1.251694
       4A1    -0.696786     1B2    -0.685426     1B1    -0.609429

    Alpha Virtual:

       5A1    -0.245708     2B2    -0.181344     2B1    -0.181312
       6A1    -0.159557     7A1    -0.064592     3B1    -0.064411
       3B2    -0.063532     8A1    -0.045724     4B2     0.062024
       1A2     0.064525     4B1     0.065009     9A1     0.065046
      10A1     0.117506     5B2     0.680579    11A1     0.707317
       5B1     0.725076    12A1     1.277674    13A1     2.205894
       6B2     2.209817     2A2     2.258180     6B1     2.267230
      14A1     2.280421

    Beta Occupied:

       1A1   -19.475420     2A1    -2.342400     3A1    -1.094638
       1B1    -0.557247

    Beta Virtual:

       4A1    -0.428376     1B2    -0.405898     5A1    -0.239909
       2B1    -0.181170     2B2    -0.175499     6A1    -0.150118
       3B1    -0.065976     3B2    -0.064136     7A1    -0.055254
       8A1    -0.042726     1A2     0.063604     9A1     0.066773
       4B1     0.068036     4B2     0.074209    10A1     0.128472
       5B1     0.752610     5B2     0.785567    11A1     0.811748
      12A1     1.349888     2A2     2.349864     6B1     2.356891
      13A1     2.357400    14A1     2.377812     6B2     2.381502

    Final Occupation by Irrep:
             A1    A2    B1    B2
    DOCC [     3,    0,    1,    0 ]
    SOCC [     1,    0,    0,    1 ]
    NA   [     4,    0,    1,    1 ]
    NB   [     3,    0,    1,    0 ]

  @DF-UKS Final Energy:   -82.35975020557044

   => Energetics <=

    Nuclear Repulsion Energy =              5.4992386091228500
    One-Electron Energy =                -121.2356620230962108
    Two-Electron Energy =                  41.5770728020854037
    DFT Exchange-Correlation Energy =      -8.2003995936824783
    Empirical Dispersion Energy =           0.0000000000000000
    VV10 Nonlocal Energy =                  0.0000000000000000
    Total Energy =                        -82.3597502055704354

  UHF NO Occupations:
  HONO-2 :    3 A1 1.9991425
  HONO-1 :    4 A1 1.0000000
  HONO-0 :    1 B2 1.0000000
  LUNO+0 :    5 A1 0.0008575
  LUNO+1 :    2 B1 0.0004987
  LUNO+2 :    6 A1 0.0000002
  LUNO+3 :    7 A1 0.0000000

Computation Completed

Properties will be evaluated at   0.000000,   0.000000,   0.000000 [a0]

Properties computed using the SCF density matrix

 Multipole Moments:

 ------------------------------------------------------------------------------------
     Multipole            Electronic (a.u.)      Nuclear  (a.u.)        Total (a.u.)
 ------------------------------------------------------------------------------------

 L = 1.  Multiply by 2.5417464519 to convert [e a0] to [Debye]
 Dipole X            :          0.0000000            0.0000000            0.0000000
 Dipole Y            :          0.0000000            0.0000000            0.0000000
 Dipole Z            :          4.3234163           -1.5444516            2.7789648
 Magnitude           :                                                    2.7789648

 ------------------------------------------------------------------------------------

*** tstop() called on Joses-MacBook-Pro-2.local at Thu Jul 17 12:49:42 2025
Module time:
	user time   =       1.90 seconds =       0.03 minutes
	system time =       3.38 seconds =       0.06 minutes
	total time  =          1 seconds =       0.02 minutes
Total time:
	user time   =      57.11 seconds =       0.95 minutes
	system time =      59.47 seconds =       0.99 minutes
	total time  =         12 seconds =       0.20 minutes

*** tstart() called on Joses-MacBook-Pro-2.local
*** at Thu Jul 17 12:49:42 2025

         ------------------------------------------------------------
                                   SCF GRAD
                          Rob Parrish, Justin Turney,
                       Andy Simmonett, and Alex Sokolov
         ------------------------------------------------------------

  ==> Geometry <==

    Molecular point group: c2v
    Full point group: C_inf_v

    Geometry (in Angstrom), charge = 1, multiplicity = 3:

       Center              X                  Y                   Z               Mass
    ------------   -----------------  -----------------  -----------------  -----------------
         LI           0.000000000000     0.000000000000     1.605305859420     7.016003436600
         O            0.000000000000     0.000000000000    -0.704150768814    15.994914619570

  Nuclear repulsion =    5.499238609122850

  ==> Basis Set <==

  Basis Set: CC-PVDZ
    Blend: CC-PVDZ
    Number of shells: 12
    Number of basis functions: 28
    Number of Cartesian functions: 30
    Spherical Harmonics?: true
    Max angular momentum: 2

  ==> DFJKGrad: Density-Fitted SCF Gradients <==

    Gradient:                    1
    J tasked:                  Yes
    K tasked:                  Yes
    wK tasked:                  No
    OpenMP threads:              1
    Integrals threads:           1
    Memory [MiB]:              375
    Schwarz Cutoff:          1E-12
    Fitting Condition:       1E-10

   => Auxiliary Basis Set <=

  Basis Set: (CC-PVDZ AUX)
    Blend: CC-PVDZ-JKFIT + DEF2-UNIVERSAL-JKFIT
    Number of shells: 41
    Number of basis functions: 121
    Number of Cartesian functions: 141
    Spherical Harmonics?: true
    Max angular momentum: 3

  ==> DFT Potential <==

   => LibXC <=

    Version 6.2.2
    S. Lehtola, C. Steigemann, M. J.T. Oliveira, and M. A.L. Marques.,  SoftwareX 7, 1â€“5 (2018) (10.1016/j.softx.2017.11.002)

   => Composite Functional: B3LYP <=

    B3LYP Hyb-GGA Exchange-Correlation Functional

    P. J. Stephens, F. J. Devlin, C. F. Chabalowski, and M. J. Frisch.,  J. Phys. Chem. 98, 11623 (1994) (10.1021/j100096a001)

    Deriv               =              1
    GGA                 =           TRUE
    Meta                =          FALSE

    Exchange Hybrid     =           TRUE
    MP2 Hybrid          =          FALSE

   => Exchange Functionals <=

    0.0800   Slater exchange
    0.7200         Becke 88

   => Exact (HF) Exchange <=

    0.2000               HF

   => Correlation Functionals <=

    0.1900   Vosko, Wilk & Nusair (VWN5_RPA)
    0.8100   Lee, Yang & Parr

   => LibXC Density Thresholds  <==

    XC_HYB_GGA_XC_B3LYP:  1.00E-15

   => Molecular Quadrature <=

    Radial Scheme          =       TREUTLER
    Pruning Scheme         =           NONE
    Nuclear Scheme         =       TREUTLER

    Blocking Scheme        =         OCTREE
    BS radius alpha        =              1
    Pruning alpha          =              1
    Radial Points          =             75
    Spherical Points       =            302
    Total Points           =          44327
    Total Blocks           =            427
    Max Points             =            253
    Max Functions          =             28
    Weights Tolerance      =       1.00E-15

  -Total Gradient:
     Atom            X                  Y                   Z
    ------   -----------------  -----------------  -----------------
       1       -0.000000000000     0.000000000000    -0.000004486603
       2        0.000000000000     0.000000000000     0.000010149406

*** tstop() called on Joses-MacBook-Pro-2.local at Thu Jul 17 12:49:42 2025
Module time:
	user time   =       0.51 seconds =       0.01 minutes
	system time =       1.17 seconds =       0.02 minutes
	total time  =          0 seconds =       0.00 minutes
Total time:
	user time   =      57.62 seconds =       0.96 minutes
	system time =      60.65 seconds =       1.01 minutes
	total time  =         12 seconds =       0.20 minutes

    			-----------------------------------------

    			 OPTKING 3.0: for geometry optimizations

    			     By R.A. King, Bethel University

    			        with contributions from

    			    A.V. Copan, J. Cayton, A. Heide

    			-----------------------------------------

	                            ===> Fragment 1 <==

	 Z (Atomic Numbers)          Masses                          Geom
	       3.000000             7.016003          0.00000000  0.00000000  3.03358842
	       8.000000            15.994915          0.00000000  0.00000000 -1.33065210

	 - Coordinate -           - BOHR/RAD -       - ANG/DEG -
	 R(1,2)           =         4.364241           2.309457

	        --- Internal Coordinate Step in ANG or DEG, aJ/ANG or AJ/DEG ---
	-------------------------------------------------------------------------------
	           Coordinate      Previous         Force          Change          New
	           ----------      --------        ------          ------        ------
	               R(1,2)       2.30946        0.00006        0.00047       2.30993
	-------------------------------------------------------------------------------

	                                 ==> Convergence Check <==

	Measures of convergence in internal coordinates in au.

	Criteria marked as inactive (o), active & met (*), and active & unmet ( ).

	----------------------------------------------------------------------------------------------
	   Step    Total Energy     Delta E     Max Force     RMS Force      Max Disp      RMS Disp
	----------------------------------------------------------------------------------------------
	  Convergence Criteria     1.00e-06 *    3.00e-04 *             o    1.20e-03 *             o
	----------------------------------------------------------------------------------------------
	    14     -82.35975021   -2.52e-07 *    7.32e-06 *    7.32e-06 o    8.97e-04 *    8.97e-04 o  ~
	----------------------------------------------------------------------------------------------

Next Geometry in Ang
	Fragment 1 (Ang)

	   Li   0.0000000000   0.0000000000   1.6055433242
	    O   0.0000000000   0.0000000000  -0.7043882336

    Final optimized geometry and variables:
    Molecular point group: c2v
    Full point group: C_inf_v

    Geometry (in Angstrom), charge = 1, multiplicity = 3:

    LI           0.000000000000     0.000000000000     1.605305859420
    O            0.000000000000     0.000000000000    -0.704150768814

    Psi4 stopped on: Thursday, 17 July 2025 12:49PM
    Psi4 wall time for execution: 0:00:12.24

*** Psi4 exiting successfully. Buy a developer a beer!
