                               Psi4 1.9.1 release

  ==> Input File <==

--------------------------------------------------------------------------
molecule {
1 3
He   0.00000        0.60000        0.00000
Al   0.00000       -0.60000        0.00000
}

set {
basis              cc-pvdz
reference          uks
maxiter            500
geom_maxiter       500
DAMPING_PERCENTAGE 1
guess              SAP
}

optimize('b3lyp')
--------------------------------------------------------------------------

    Molecular point group: c2v
  Charge       = 1
  Multiplicity = 3
  Basis Set: CC-PVDZ
    Blend: CC-PVDZ
  Basis Set: (CC-PVDZ AUX)
    Blend: CC-PVDZ-JKFIT + DEF2-UNIVERSAL-JKFIT
  @DF-UKS Final Energy:  -244.77440352591327
    Total Energy =                       -244.7744035259132716
 Dipole X            :          0.0000000            0.0000000            0.0000000
 Dipole Y            :          0.0000000            0.0000000            0.0000000
 Dipole Z            :          0.1890803            0.1411971            0.3302774
 Magnitude           :                                                    0.3302774
    Molecular point group: c2v
  Basis Set: CC-PVDZ
    Blend: CC-PVDZ
  Basis Set: (CC-PVDZ AUX)
    Blend: CC-PVDZ-JKFIT + DEF2-UNIVERSAL-JKFIT
  Basis Set: CC-PVDZ
    Blend: CC-PVDZ
  Basis Set: (CC-PVDZ AUX)
    Blend: CC-PVDZ-JKFIT + DEF2-UNIVERSAL-JKFIT
  @DF-UKS Final Energy:  -244.86652288498234
    Total Energy =                       -244.8665228849823450
  Basis Set: CC-PVDZ
    Blend: CC-PVDZ
  Basis Set: (CC-PVDZ AUX)
    Blend: CC-PVDZ-JKFIT + DEF2-UNIVERSAL-JKFIT
  Basis Set: CC-PVDZ
    Blend: CC-PVDZ
  @DF-UKS Final Energy:  -244.88075087459293
    Total Energy =                       -244.8807508745929056
  @DF-UKS Final Energy:  -244.89198025775570
    Total Energy =                       -244.8919802577557050
  @DF-UKS Final Energy:  -244.89586831040580
    Total Energy =                       -244.8958683104058309
  @DF-UKS Final Energy:  -244.89797639987935
    Total Energy =                       -244.8979763998793544
  @DF-UKS Final Energy:  -244.89916470571481
    Total Energy =                       -244.8991647057148100
  @DF-UKS Final Energy:  -244.89966645141047
    Total Energy =                       -244.8996664514104680
  @DF-UKS Final Energy:  -244.89982304229477
    Total Energy =                       -244.8998230422947699
  @DF-UKS Final Energy:  -244.89989246499303
    Total Energy =                       -244.8998924649930302
  @DF-UKS Final Energy:  -244.89991218851765
    Total Energy =                       -244.8999121885176748
  @DF-UKS Final Energy:  -244.89991957767177
    Total Energy =                       -244.8999195776717670
  Basis Set: (CC-PVDZ AUX)
    Blend: CC-PVDZ-JKFIT + DEF2-UNIVERSAL-JKFIT
  Basis Set: CC-PVDZ
    Blend: CC-PVDZ
  Basis Set: (CC-PVDZ AUX)
    Blend: CC-PVDZ-JKFIT + DEF2-UNIVERSAL-JKFIT
  @DF-UKS Final Energy:  -244.89992116959877
    Total Energy =                       -244.8999211695987412
  Basis Set: CC-PVDZ
    Blend: CC-PVDZ
  Basis Set: (CC-PVDZ AUX)
    Blend: CC-PVDZ-JKFIT + DEF2-UNIVERSAL-JKFIT
  Charge       = 1
  Multiplicity = 3
  Basis Set: CC-PVDZ
    Blend: CC-PVDZ
  Basis Set: (CC-PVDZ AUX)
    Blend: CC-PVDZ-JKFIT + DEF2-UNIVERSAL-JKFIT

    Orbital Energies [Eh]
    ---------------------

    Alpha Occupied:

       1A1   -56.443155     2A1    -4.514555     1B2    -3.068617
       3A1    -3.068535     1B1    -3.063985     4A1    -0.950530
       5A1    -0.617860     2B1    -0.408183

    Alpha Virtual:

       2B2    -0.341518     6A1    -0.314500     7A1    -0.059408
       3B1    -0.024013     8A1    -0.023245     1A2    -0.018107
       4B1    -0.016105     3B2    -0.011304     9A1    -0.010096
       4B2    -0.005885    10A1     0.058927    11A1     1.069993
       5B2     1.921330     5B1     1.922267    12A1     2.027682

    Beta Occupied:

       1A1   -56.435037     2A1    -4.502226     1B2    -3.061072
       3A1    -3.060978     1B1    -3.046786     4A1    -0.944681

    Beta Virtual:

       5A1    -0.474786     2B2    -0.284682     6A1    -0.261024
       2B1    -0.252352     7A1    -0.029911     8A1     0.003068
       3B2     0.012948     3B1     0.032733     4B2     0.033390
       4B1     0.058947     9A1     0.065967     1A2     0.072301
      10A1     0.106766    11A1     1.074463     5B2     1.924336
       5B1     1.925934    12A1     2.033388

    Final Occupation by Irrep:
             A1    A2    B1    B2
    DOCC [     4,    0,    1,    1 ]
    SOCC [     1,    0,    1,    0 ]
    NA   [     5,    0,    2,    1 ]
    NB   [     4,    0,    1,    1 ]

  @DF-UKS Final Energy:  -244.89992131422079

   => Energetics <=

    Nuclear Repulsion Energy =              6.2332903972724489
    One-Electron Energy =                -347.8980641058257675
    Two-Electron Energy =                 112.4297654825139290
    DFT Exchange-Correlation Energy =     -15.6649130881814447
    Empirical Dispersion Energy =           0.0000000000000000
    VV10 Nonlocal Energy =                  0.0000000000000000
    Total Energy =                       -244.8999213142208191

  UHF NO Occupations:
  HONO-2 :    4 A1 1.9999754
  HONO-1 :    2 B1 1.0000000
  HONO-0 :    5 A1 1.0000000
  LUNO+0 :    6 A1 0.0000246
  LUNO+1 :    2 B2 0.0000012
  LUNO+2 :    7 A1 0.0000009
  LUNO+3 :    3 B1 0.0000002

Computation Completed

Properties will be evaluated at   0.000000,   0.000000,   0.000000 [a0]

Properties computed using the SCF density matrix

 Multipole Moments:

 ------------------------------------------------------------------------------------
     Multipole            Electronic (a.u.)      Nuclear  (a.u.)        Total (a.u.)
 ------------------------------------------------------------------------------------

 L = 1.  Multiply by 2.5417464519 to convert [e a0] to [Debye]
 Dipole X            :          0.0000000            0.0000000            0.0000000
 Dipole Y            :          0.0000000            0.0000000            0.0000000
 Dipole Z            :         -0.5516138            0.2597177           -0.2918961
 Magnitude           :                                                    0.2918961

 ------------------------------------------------------------------------------------

*** tstop() called on Joses-MacBook-Pro-2.local at Thu Jul 17 12:36:43 2025
Module time:
	user time   =       1.91 seconds =       0.03 minutes
	system time =       2.54 seconds =       0.04 minutes
	total time  =          1 seconds =       0.02 minutes
Total time:
	user time   =      44.22 seconds =       0.74 minutes
	system time =      60.42 seconds =       1.01 minutes
	total time  =         10 seconds =       0.17 minutes

*** tstart() called on Joses-MacBook-Pro-2.local
*** at Thu Jul 17 12:36:43 2025

         ------------------------------------------------------------
                                   SCF GRAD
                          Rob Parrish, Justin Turney,
                       Andy Simmonett, and Alex Sokolov
         ------------------------------------------------------------

  ==> Geometry <==

    Molecular point group: c2v
    Full point group: C_inf_v

    Geometry (in Angstrom), charge = 1, multiplicity = 3:

       Center              X                  Y                   Z               Mass
    ------------   -----------------  -----------------  -----------------  -----------------
         HE           0.000000000000     0.000000000000     1.922137091112     4.002603254130
         AL           0.000000000000     0.000000000000    -0.285141344598    26.981538530000

  Nuclear repulsion =    6.233290397272449

  ==> Basis Set <==

  Basis Set: CC-PVDZ
    Blend: CC-PVDZ
    Number of shells: 11
    Number of basis functions: 23
    Number of Cartesian functions: 24
    Spherical Harmonics?: true
    Max angular momentum: 2

  ==> DFJKGrad: Density-Fitted SCF Gradients <==

    Gradient:                    1
    J tasked:                  Yes
    K tasked:                  Yes
    wK tasked:                  No
    OpenMP threads:              1
    Integrals threads:           1
    Memory [MiB]:              375
    Schwarz Cutoff:          1E-12
    Fitting Condition:       1E-10

   => Auxiliary Basis Set <=

  Basis Set: (CC-PVDZ AUX)
    Blend: CC-PVDZ-JKFIT + DEF2-UNIVERSAL-JKFIT
    Number of shells: 45
    Number of basis functions: 135
    Number of Cartesian functions: 155
    Spherical Harmonics?: true
    Max angular momentum: 3

  ==> DFT Potential <==

   => LibXC <=

    Version 6.2.2
    S. Lehtola, C. Steigemann, M. J.T. Oliveira, and M. A.L. Marques.,  SoftwareX 7, 1â€“5 (2018) (10.1016/j.softx.2017.11.002)

   => Composite Functional: B3LYP <=

    B3LYP Hyb-GGA Exchange-Correlation Functional

    P. J. Stephens, F. J. Devlin, C. F. Chabalowski, and M. J. Frisch.,  J. Phys. Chem. 98, 11623 (1994) (10.1021/j100096a001)

    Deriv               =              1
    GGA                 =           TRUE
    Meta                =          FALSE

    Exchange Hybrid     =           TRUE
    MP2 Hybrid          =          FALSE

   => Exchange Functionals <=

    0.0800   Slater exchange
    0.7200         Becke 88

   => Exact (HF) Exchange <=

    0.2000               HF

   => Correlation Functionals <=

    0.1900   Vosko, Wilk & Nusair (VWN5_RPA)
    0.8100   Lee, Yang & Parr

   => LibXC Density Thresholds  <==

    XC_HYB_GGA_XC_B3LYP:  1.00E-15

   => Molecular Quadrature <=

    Radial Scheme          =       TREUTLER
    Pruning Scheme         =           NONE
    Nuclear Scheme         =       TREUTLER

    Blocking Scheme        =         OCTREE
    BS radius alpha        =              1
    Pruning alpha          =              1
    Radial Points          =             75
    Spherical Points       =            302
    Total Points           =          43470
    Total Blocks           =            396
    Max Points             =            256
    Max Functions          =             23
    Weights Tolerance      =       1.00E-15

  -Total Gradient:
     Atom            X                  Y                   Z
    ------   -----------------  -----------------  -----------------
       1        0.000000000000    -0.000000000000    -0.000004623708
       2        0.000000000000     0.000000000000     0.000016762031

*** tstop() called on Joses-MacBook-Pro-2.local at Thu Jul 17 12:36:43 2025
Module time:
	user time   =       0.60 seconds =       0.01 minutes
	system time =       1.17 seconds =       0.02 minutes
	total time  =          0 seconds =       0.00 minutes
Total time:
	user time   =      44.82 seconds =       0.75 minutes
	system time =      61.60 seconds =       1.03 minutes
	total time  =         10 seconds =       0.17 minutes

    			-----------------------------------------

    			 OPTKING 3.0: for geometry optimizations

    			     By R.A. King, Bethel University

    			        with contributions from

    			    A.V. Copan, J. Cayton, A. Heide

    			-----------------------------------------

	                            ===> Fragment 1 <==

	 Z (Atomic Numbers)          Masses                          Geom
	       2.000000             4.002603          0.00000000  0.00000000  3.63231268
	      13.000000            26.981539          0.00000000  0.00000000 -0.53883905

	 - Coordinate -           - BOHR/RAD -       - ANG/DEG -
	 R(1,2)           =         4.171152           2.207278

	        --- Internal Coordinate Step in ANG or DEG, aJ/ANG or AJ/DEG ---
	-------------------------------------------------------------------------------
	           Coordinate      Previous         Force          Change          New
	           ----------      --------        ------          ------        ------
	               R(1,2)       2.20728        0.00009        0.00077       2.20804
	-------------------------------------------------------------------------------

	                                 ==> Convergence Check <==

	Measures of convergence in internal coordinates in au.

	Criteria marked as inactive (o), active & met (*), and active & unmet ( ).

	----------------------------------------------------------------------------------------------
	   Step    Total Energy     Delta E     Max Force     RMS Force      Max Disp      RMS Disp
	----------------------------------------------------------------------------------------------
	  Convergence Criteria     1.00e-06 *    3.00e-04 *             o    1.20e-03 *             o
	----------------------------------------------------------------------------------------------
	    14    -244.89992131   -1.45e-07 *    1.07e-05 *    1.07e-05 o    1.45e-03      1.45e-03 o  ~
	----------------------------------------------------------------------------------------------

Next Geometry in Ang
	Fragment 1 (Ang)

	   He   0.0000000000   0.0000000000   1.9225198582
	   Al   0.0000000000   0.0000000000  -0.2855241117

    Final optimized geometry and variables:
    Molecular point group: c2v
    Full point group: C_inf_v

    Geometry (in Angstrom), charge = 1, multiplicity = 3:

    HE           0.000000000000     0.000000000000     1.922137091112
    AL           0.000000000000     0.000000000000    -0.285141344598

    Psi4 stopped on: Thursday, 17 July 2025 12:36PM
    Psi4 wall time for execution: 0:00:10.60

*** Psi4 exiting successfully. Buy a developer a beer!
