                               Psi4 1.9.1 release

  ==> Input File <==

--------------------------------------------------------------------------
molecule {
1 3
N   0.00000        0.60000        0.00000
Ar   0.00000       -0.60000        0.00000
}

set {
basis              cc-pvdz
reference          uks
maxiter            500
geom_maxiter       500
DAMPING_PERCENTAGE 1
guess              SAP
}

optimize('b3lyp')
--------------------------------------------------------------------------

    Molecular point group: c2v
  Charge       = 1
  Multiplicity = 3
  Basis Set: CC-PVDZ
    Blend: CC-PVDZ
  Basis Set: (CC-PVDZ AUX)
    Blend: CC-PVDZ-JKFIT
  @DF-UKS Final Energy:  -581.37122295038455
    Total Energy =                       -581.3712229503845492
 Dipole X            :          0.0000000            0.0000000            0.0000000
 Dipole Y            :          0.0000000            0.0000000            0.0000000
 Dipole Z            :         -2.0107891            1.1631923           -0.8475968
 Magnitude           :                                                    0.8475968
    Molecular point group: c2v
  Basis Set: CC-PVDZ
    Blend: CC-PVDZ
  Basis Set: (CC-PVDZ AUX)
    Blend: CC-PVDZ-JKFIT
  Basis Set: CC-PVDZ
    Blend: CC-PVDZ
  Basis Set: (CC-PVDZ AUX)
    Blend: CC-PVDZ-JKFIT
  @DF-UKS Final Energy:  -581.52778455464238
    Total Energy =                       -581.5277845546423805
  Basis Set: CC-PVDZ
    Blend: CC-PVDZ
  Basis Set: (CC-PVDZ AUX)
    Blend: CC-PVDZ-JKFIT
  Basis Set: CC-PVDZ
    Blend: CC-PVDZ
  @DF-UKS Final Energy:  -581.61452215750762
    Total Energy =                       -581.6145221575076221
  @DF-UKS Final Energy:  -581.64892097366419
    Total Energy =                       -581.6489209736641897
  @DF-UKS Final Energy:  -581.67081508693639
    Total Energy =                       -581.6708150869363863
  @DF-UKS Final Energy:  -581.68260530193902
    Total Energy =                       -581.6826053019390201
  @DF-UKS Final Energy:  -581.68717463342534
    Total Energy =                       -581.6871746334253430
  @DF-UKS Final Energy:  -581.68840368015526
    Total Energy =                       -581.6884036801552611
  @DF-UKS Final Energy:  -581.68884376349706
    Total Energy =                       -581.6888437634970614
  @DF-UKS Final Energy:  -581.68893313581839
    Total Energy =                       -581.6889331358183881
  @DF-UKS Final Energy:  -581.68895523287040
    Total Energy =                       -581.6889552328705122
  Basis Set: (CC-PVDZ AUX)
    Blend: CC-PVDZ-JKFIT
  Basis Set: CC-PVDZ
    Blend: CC-PVDZ
  Basis Set: (CC-PVDZ AUX)
    Blend: CC-PVDZ-JKFIT
  @DF-UKS Final Energy:  -581.68895779927664
    Total Energy =                       -581.6889577992766363
  Basis Set: CC-PVDZ
    Blend: CC-PVDZ
  Basis Set: (CC-PVDZ AUX)
    Blend: CC-PVDZ-JKFIT
  Charge       = 1
  Multiplicity = 3
  Basis Set: CC-PVDZ
    Blend: CC-PVDZ
  Basis Set: (CC-PVDZ AUX)
    Blend: CC-PVDZ-JKFIT

    Orbital Energies [Eh]
    ---------------------

    Alpha Occupied:

       1A1  -115.501632     2A1   -14.872987     3A1   -11.536557
       4A1    -9.091829     1B1    -9.083566     1B2    -9.083566
       5A1    -1.377579     6A1    -1.164910     7A1    -0.824514
       2B2    -0.801673     2B1    -0.801673     3B2    -0.701416
       3B1    -0.701416

    Alpha Virtual:

       8A1    -0.488049     9A1     0.234395     4B1     0.253645
       4B2     0.253645     5B1     0.327313     5B2     0.327313
      10A1     0.392091    11A1     0.413690     1A2     0.469863
      12A1     0.469864     6B2     0.520755     6B1     0.520755
      13A1     0.526748    14A1     0.843398    15A1     1.311144
       2A2     1.311154     7B2     1.374453     7B1     1.374453
      16A1     1.769416

    Beta Occupied:

       1A1  -115.501570     2A1   -14.829943     3A1   -11.536505
       4A1    -9.093653     1B2    -9.082535     1B1    -9.082535
       5A1    -1.367599     6A1    -1.050460     7A1    -0.796033
       2B2    -0.784659     2B1    -0.784659

    Beta Virtual:

       3B2    -0.462593     3B1    -0.462593     8A1    -0.444009
       9A1     0.235177     4B1     0.278763     4B2     0.278763
       5B2     0.363251     5B1     0.363251    10A1     0.391756
      11A1     0.453421     1A2     0.473921    12A1     0.473921
       6B2     0.555826     6B1     0.555826    13A1     0.556138
      14A1     0.877843    15A1     1.454323     2A2     1.454341
       7B2     1.458864     7B1     1.458864    16A1     1.826197

    Final Occupation by Irrep:
             A1    A2    B1    B2
    DOCC [     7,    0,    2,    2 ]
    SOCC [     0,    0,    1,    1 ]
    NA   [     7,    0,    3,    3 ]
    NB   [     7,    0,    2,    2 ]

  @DF-UKS Final Energy:  -581.68895789813860

   => Energetics <=

    Nuclear Repulsion Energy =             35.4728181402332012
    One-Electron Energy =                -863.4708373786820630
    Two-Electron Energy =                 276.3739573670307550
    DFT Exchange-Correlation Energy =     -30.0648960267206427
    Empirical Dispersion Energy =           0.0000000000000000
    VV10 Nonlocal Energy =                  0.0000000000000000
    Total Energy =                       -581.6889578981385966

  UHF NO Occupations:
  HONO-2 :    7 A1 1.9964468
  HONO-1 :    3 B1 1.0000000
  HONO-0 :    3 B2 1.0000000
  LUNO+0 :    8 A1 0.0035532
  LUNO+1 :    9 A1 0.0009156
  LUNO+2 :    4 B1 0.0000756
  LUNO+3 :    4 B2 0.0000756

Computation Completed

Properties will be evaluated at   0.000000,   0.000000,   0.000000 [a0]

Properties computed using the SCF density matrix

 Multipole Moments:

 ------------------------------------------------------------------------------------
     Multipole            Electronic (a.u.)      Nuclear  (a.u.)        Total (a.u.)
 ------------------------------------------------------------------------------------

 L = 1.  Multiply by 2.5417464519 to convert [e a0] to [Debye]
 Dipole X            :          0.0000000            0.0000000            0.0000000
 Dipole Y            :          0.0000000            0.0000000            0.0000000
 Dipole Z            :         -1.3279635            1.8219911            0.4940276
 Magnitude           :                                                    0.4940276

 ------------------------------------------------------------------------------------

*** tstop() called on Joses-MacBook-Pro-2.local at Thu Jul 17 13:58:54 2025
Module time:
	user time   =       3.08 seconds =       0.05 minutes
	system time =       4.25 seconds =       0.07 minutes
	total time  =          1 seconds =       0.02 minutes
Total time:
	user time   =      46.29 seconds =       0.77 minutes
	system time =     106.24 seconds =       1.77 minutes
	total time  =         16 seconds =       0.27 minutes

*** tstart() called on Joses-MacBook-Pro-2.local
*** at Thu Jul 17 13:58:54 2025

         ------------------------------------------------------------
                                   SCF GRAD
                          Rob Parrish, Justin Turney,
                       Andy Simmonett, and Alex Sokolov
         ------------------------------------------------------------

  ==> Geometry <==

    Molecular point group: c2v
    Full point group: C_inf_v

    Geometry (in Angstrom), charge = 1, multiplicity = 3:

       Center              X                  Y                   Z               Mass
    ------------   -----------------  -----------------  -----------------  -----------------
         N            0.000000000000     0.000000000000     1.391911119871    14.003074004430
         AR           0.000000000000     0.000000000000    -0.487734536722    39.962383123700

  Nuclear repulsion =   35.472818140233201

  ==> Basis Set <==

  Basis Set: CC-PVDZ
    Blend: CC-PVDZ
    Number of shells: 14
    Number of basis functions: 32
    Number of Cartesian functions: 34
    Spherical Harmonics?: true
    Max angular momentum: 2

  ==> DFJKGrad: Density-Fitted SCF Gradients <==

    Gradient:                    1
    J tasked:                  Yes
    K tasked:                  Yes
    wK tasked:                  No
    OpenMP threads:              1
    Integrals threads:           1
    Memory [MiB]:              375
    Schwarz Cutoff:          1E-12
    Fitting Condition:       1E-10

   => Auxiliary Basis Set <=

  Basis Set: (CC-PVDZ AUX)
    Blend: CC-PVDZ-JKFIT
    Number of shells: 60
    Number of basis functions: 182
    Number of Cartesian functions: 211
    Spherical Harmonics?: true
    Max angular momentum: 3

  ==> DFT Potential <==

   => LibXC <=

    Version 6.2.2
    S. Lehtola, C. Steigemann, M. J.T. Oliveira, and M. A.L. Marques.,  SoftwareX 7, 1â€“5 (2018) (10.1016/j.softx.2017.11.002)

   => Composite Functional: B3LYP <=

    B3LYP Hyb-GGA Exchange-Correlation Functional

    P. J. Stephens, F. J. Devlin, C. F. Chabalowski, and M. J. Frisch.,  J. Phys. Chem. 98, 11623 (1994) (10.1021/j100096a001)

    Deriv               =              1
    GGA                 =           TRUE
    Meta                =          FALSE

    Exchange Hybrid     =           TRUE
    MP2 Hybrid          =          FALSE

   => Exchange Functionals <=

    0.0800   Slater exchange
    0.7200         Becke 88

   => Exact (HF) Exchange <=

    0.2000               HF

   => Correlation Functionals <=

    0.1900   Vosko, Wilk & Nusair (VWN5_RPA)
    0.8100   Lee, Yang & Parr

   => LibXC Density Thresholds  <==

    XC_HYB_GGA_XC_B3LYP:  1.00E-15

   => Molecular Quadrature <=

    Radial Scheme          =       TREUTLER
    Pruning Scheme         =           NONE
    Nuclear Scheme         =       TREUTLER

    Blocking Scheme        =         OCTREE
    BS radius alpha        =              1
    Pruning alpha          =              1
    Radial Points          =             75
    Spherical Points       =            302
    Total Points           =          40782
    Total Blocks           =            363
    Max Points             =            254
    Max Functions          =             32
    Weights Tolerance      =       1.00E-15

  -Total Gradient:
     Atom            X                  Y                   Z
    ------   -----------------  -----------------  -----------------
       1        0.000000000000    -0.000000000000    -0.000019789394
       2        0.000000000000     0.000000000000     0.000016006995

*** tstop() called on Joses-MacBook-Pro-2.local at Thu Jul 17 13:58:54 2025
Module time:
	user time   =       0.60 seconds =       0.01 minutes
	system time =       1.80 seconds =       0.03 minutes
	total time  =          0 seconds =       0.00 minutes
Total time:
	user time   =      46.89 seconds =       0.78 minutes
	system time =     108.05 seconds =       1.80 minutes
	total time  =         16 seconds =       0.27 minutes

    			-----------------------------------------

    			 OPTKING 3.0: for geometry optimizations

    			     By R.A. King, Bethel University

    			        with contributions from

    			    A.V. Copan, J. Cayton, A. Heide

    			-----------------------------------------

	                            ===> Fragment 1 <==

	 Z (Atomic Numbers)          Masses                          Geom
	       7.000000            14.003074          0.00000000  0.00000000  2.63033081
	      18.000000            39.962383          0.00000000  0.00000000 -0.92168470

	 - Coordinate -           - BOHR/RAD -       - ANG/DEG -
	 R(1,2)           =         3.552016           1.879646

	        --- Internal Coordinate Step in ANG or DEG, aJ/ANG or AJ/DEG ---
	-------------------------------------------------------------------------------
	           Coordinate      Previous         Force          Change          New
	           ----------      --------        ------          ------        ------
	               R(1,2)       1.87965        0.00015        0.00009       1.87974
	-------------------------------------------------------------------------------

	                                 ==> Convergence Check <==

	Measures of convergence in internal coordinates in au.

	Criteria marked as inactive (o), active & met (*), and active & unmet ( ).

	----------------------------------------------------------------------------------------------
	   Step    Total Energy     Delta E     Max Force     RMS Force      Max Disp      RMS Disp
	----------------------------------------------------------------------------------------------
	  Convergence Criteria     1.00e-06 *    3.00e-04 *             o    1.20e-03 *             o
	----------------------------------------------------------------------------------------------
	    13    -581.68895790   -9.89e-08 *    1.79e-05 *    1.79e-05 o    1.74e-04 *    1.74e-04 o  ~
	----------------------------------------------------------------------------------------------

Next Geometry in Ang
	Fragment 1 (Ang)

	    N   0.0000000000   0.0000000000   1.3919571501
	   Ar   0.0000000000   0.0000000000  -0.4877805670

    Final optimized geometry and variables:
    Molecular point group: c2v
    Full point group: C_inf_v

    Geometry (in Angstrom), charge = 1, multiplicity = 3:

    N            0.000000000000     0.000000000000     1.391911119871
    AR           0.000000000000     0.000000000000    -0.487734536722

    Psi4 stopped on: Thursday, 17 July 2025 01:58PM
    Psi4 wall time for execution: 0:00:16.81

*** Psi4 exiting successfully. Buy a developer a beer!
