                               Psi4 1.9.1 release

  ==> Input File <==

--------------------------------------------------------------------------
molecule {
1 3
N   0.00000        0.60000        0.00000
Mg   0.00000       -0.60000        0.00000
}

set {
basis              cc-pvdz
reference          uks
maxiter            500
geom_maxiter       500
DAMPING_PERCENTAGE 1
guess              SAP
}

optimize('b3lyp')
--------------------------------------------------------------------------

    Molecular point group: c2v
  Charge       = 1
  Multiplicity = 3
  Basis Set: CC-PVDZ
    Blend: CC-PVDZ
  Basis Set: (CC-PVDZ AUX)
    Blend: CC-PVDZ-JKFIT + DEF2-UNIVERSAL-JKFIT
  @DF-UKS Final Energy:  -253.94365459901536
    Total Energy =                       -253.9436545990153604
 Dipole X            :          0.0000000            0.0000000            0.0000000
 Dipole Y            :          0.0000000            0.0000000            0.0000000
 Dipole Z            :         -2.1149847           -0.0084525           -2.1234372
 Magnitude           :                                                    2.1234372
    Molecular point group: c2v
  Basis Set: CC-PVDZ
    Blend: CC-PVDZ
  Basis Set: (CC-PVDZ AUX)
    Blend: CC-PVDZ-JKFIT + DEF2-UNIVERSAL-JKFIT
  Basis Set: CC-PVDZ
    Blend: CC-PVDZ
  Basis Set: (CC-PVDZ AUX)
    Blend: CC-PVDZ-JKFIT + DEF2-UNIVERSAL-JKFIT
  @DF-UKS Final Energy:  -254.16925088228746
    Total Energy =                       -254.1692508822874572
  Basis Set: CC-PVDZ
    Blend: CC-PVDZ
  Basis Set: (CC-PVDZ AUX)
    Blend: CC-PVDZ-JKFIT + DEF2-UNIVERSAL-JKFIT
  Basis Set: CC-PVDZ
    Blend: CC-PVDZ
  @DF-UKS Final Energy:  -254.29812187363967
    Total Energy =                       -254.2981218736396727
  @DF-UKS Final Energy:  -254.34956939079447
    Total Energy =                       -254.3495693907944712
  @DF-UKS Final Energy:  -254.36937813446525
    Total Energy =                       -254.3693781344652507
  @DF-UKS Final Energy:  -254.37433121630323
    Total Energy =                       -254.3743312163032328
  @DF-UKS Final Energy:  -254.37608128565373
    Total Energy =                       -254.3760812856537257
  @DF-UKS Final Energy:  -254.37636465179293
    Total Energy =                       -254.3763646517929260
  @DF-UKS Final Energy:  -254.37641422770432
    Total Energy =                       -254.3764142277043163
  Basis Set: (CC-PVDZ AUX)
    Blend: CC-PVDZ-JKFIT + DEF2-UNIVERSAL-JKFIT
  Basis Set: CC-PVDZ
    Blend: CC-PVDZ
  Basis Set: (CC-PVDZ AUX)
    Blend: CC-PVDZ-JKFIT + DEF2-UNIVERSAL-JKFIT
  @DF-UKS Final Energy:  -254.37642445464024
    Total Energy =                       -254.3764244546402438
  Basis Set: CC-PVDZ
    Blend: CC-PVDZ
  Basis Set: (CC-PVDZ AUX)
    Blend: CC-PVDZ-JKFIT + DEF2-UNIVERSAL-JKFIT
  Charge       = 1
  Multiplicity = 3
  Basis Set: CC-PVDZ
    Blend: CC-PVDZ
  Basis Set: (CC-PVDZ AUX)
    Blend: CC-PVDZ-JKFIT + DEF2-UNIVERSAL-JKFIT

    Orbital Energies [Eh]
    ---------------------

    Alpha Occupied:

       1A1   -47.203039     2A1   -14.573852     3A1    -3.476208
       1B2    -2.220665     4A1    -2.219614     1B1    -2.218406
       5A1    -0.956455     6A1    -0.545051     2B2    -0.511740
       2B1    -0.458625

    Alpha Virtual:

       7A1    -0.371446     3B2    -0.230285     3B1    -0.224978
       8A1    -0.158077     9A1    -0.084679     4B2    -0.034913
       4B1    -0.034570    10A1     0.010380     1A2     0.059621
      11A1     0.059703     5B2     0.102530     5B1     0.114948
      12A1     0.318675     6B2     0.587548    13A1     0.622706
       6B1     0.622778    14A1     1.130416    15A1     1.561839
       2A2     1.562287     7B2     1.606119     7B1     1.646881
      16A1     1.814107

    Beta Occupied:

       1A1   -47.201740     2A1   -14.538650     3A1    -3.474021
       1B2    -2.218727     1B1    -2.217459     4A1    -2.217316
       5A1    -0.839498     2B1    -0.416405

    Beta Virtual:

       6A1    -0.399099     2B2    -0.311777     7A1    -0.303228
       3B1    -0.219736     3B2    -0.199750     8A1    -0.145861
       9A1    -0.082779     4B1    -0.034210     4B2    -0.031188
      10A1     0.028783     1A2     0.063313    11A1     0.066389
       5B1     0.127815     5B2     0.138468    12A1     0.346005
       6B1     0.648346     6B2     0.673495    13A1     0.707504
      14A1     1.195074     2A2     1.638676    15A1     1.646613
       7B1     1.713591     7B2     1.733547    16A1     1.903116

    Final Occupation by Irrep:
             A1    A2    B1    B2
    DOCC [     5,    0,    2,    1 ]
    SOCC [     1,    0,    0,    1 ]
    NA   [     6,    0,    2,    2 ]
    NB   [     5,    0,    2,    1 ]

  @DF-UKS Final Energy:  -254.37642516322632

   => Energetics <=

    Nuclear Repulsion Energy =             23.9837870921556870
    One-Electron Energy =                -395.8646213546100512
    Two-Electron Energy =                 136.1546970983254141
    DFT Exchange-Correlation Energy =     -18.6502879990973724
    Empirical Dispersion Energy =           0.0000000000000000
    VV10 Nonlocal Energy =                  0.0000000000000000
    Total Energy =                       -254.3764251632263154

  UHF NO Occupations:
  HONO-2 :    2 B1 1.9957349
  HONO-1 :    2 B2 1.0000000
  HONO-0 :    6 A1 1.0000000
  LUNO+0 :    3 B1 0.0042651
  LUNO+1 :    7 A1 0.0007863
  LUNO+2 :    8 A1 0.0000007
  LUNO+3 :    9 A1 0.0000002

Computation Completed

Properties will be evaluated at   0.000000,   0.000000,   0.000000 [a0]

Properties computed using the SCF density matrix

 Multipole Moments:

 ------------------------------------------------------------------------------------
     Multipole            Electronic (a.u.)      Nuclear  (a.u.)        Total (a.u.)
 ------------------------------------------------------------------------------------

 L = 1.  Multiply by 2.5417464519 to convert [e a0] to [Debye]
 Dipole X            :          0.0000000            0.0000000            0.0000000
 Dipole Y            :          0.0000000            0.0000000            0.0000000
 Dipole Z            :         -2.9080928           -0.0130547           -2.9211475
 Magnitude           :                                                    2.9211475

 ------------------------------------------------------------------------------------

*** tstop() called on Joses-MacBook-Pro-2.local at Thu Jul 17 13:54:17 2025
Module time:
	user time   =       2.29 seconds =       0.04 minutes
	system time =       3.94 seconds =       0.07 minutes
	total time  =          0 seconds =       0.00 minutes
Total time:
	user time   =      37.58 seconds =       0.63 minutes
	system time =      95.70 seconds =       1.59 minutes
	total time  =         14 seconds =       0.23 minutes

*** tstart() called on Joses-MacBook-Pro-2.local
*** at Thu Jul 17 13:54:17 2025

         ------------------------------------------------------------
                                   SCF GRAD
                          Rob Parrish, Justin Turney,
                       Andy Simmonett, and Alex Sokolov
         ------------------------------------------------------------

  ==> Geometry <==

    Molecular point group: c2v
    Full point group: C_inf_v

    Geometry (in Angstrom), charge = 1, multiplicity = 3:

       Center              X                  Y                   Z               Mass
    ------------   -----------------  -----------------  -----------------  -----------------
         N            0.000000000000     0.000000000000     1.170187310565    14.003074004430
         MG           0.000000000000     0.000000000000    -0.683184949849    23.985041697000

  Nuclear repulsion =   23.983787092155687

  ==> Basis Set <==

  Basis Set: CC-PVDZ
    Blend: CC-PVDZ
    Number of shells: 14
    Number of basis functions: 32
    Number of Cartesian functions: 34
    Spherical Harmonics?: true
    Max angular momentum: 2

  ==> DFJKGrad: Density-Fitted SCF Gradients <==

    Gradient:                    1
    J tasked:                  Yes
    K tasked:                  Yes
    wK tasked:                  No
    OpenMP threads:              1
    Integrals threads:           1
    Memory [MiB]:              375
    Schwarz Cutoff:          1E-12
    Fitting Condition:       1E-10

   => Auxiliary Basis Set <=

  Basis Set: (CC-PVDZ AUX)
    Blend: CC-PVDZ-JKFIT + DEF2-UNIVERSAL-JKFIT
    Number of shells: 58
    Number of basis functions: 182
    Number of Cartesian functions: 218
    Spherical Harmonics?: true
    Max angular momentum: 4

  ==> DFT Potential <==

   => LibXC <=

    Version 6.2.2
    S. Lehtola, C. Steigemann, M. J.T. Oliveira, and M. A.L. Marques.,  SoftwareX 7, 1â€“5 (2018) (10.1016/j.softx.2017.11.002)

   => Composite Functional: B3LYP <=

    B3LYP Hyb-GGA Exchange-Correlation Functional

    P. J. Stephens, F. J. Devlin, C. F. Chabalowski, and M. J. Frisch.,  J. Phys. Chem. 98, 11623 (1994) (10.1021/j100096a001)

    Deriv               =              1
    GGA                 =           TRUE
    Meta                =          FALSE

    Exchange Hybrid     =           TRUE
    MP2 Hybrid          =          FALSE

   => Exchange Functionals <=

    0.0800   Slater exchange
    0.7200         Becke 88

   => Exact (HF) Exchange <=

    0.2000               HF

   => Correlation Functionals <=

    0.1900   Vosko, Wilk & Nusair (VWN5_RPA)
    0.8100   Lee, Yang & Parr

   => LibXC Density Thresholds  <==

    XC_HYB_GGA_XC_B3LYP:  1.00E-15

   => Molecular Quadrature <=

    Radial Scheme          =       TREUTLER
    Pruning Scheme         =           NONE
    Nuclear Scheme         =       TREUTLER

    Blocking Scheme        =         OCTREE
    BS radius alpha        =              1
    Pruning alpha          =              1
    Radial Points          =             75
    Spherical Points       =            302
    Total Points           =          43437
    Total Blocks           =            412
    Max Points             =            256
    Max Functions          =             32
    Weights Tolerance      =       1.00E-15

  -Total Gradient:
     Atom            X                  Y                   Z
    ------   -----------------  -----------------  -----------------
       1        0.000000000000    -0.000000000000    -0.000114489666
       2        0.000000000000     0.000000000000     0.000050871253

*** tstop() called on Joses-MacBook-Pro-2.local at Thu Jul 17 13:54:18 2025
Module time:
	user time   =       1.08 seconds =       0.02 minutes
	system time =       2.43 seconds =       0.04 minutes
	total time  =          1 seconds =       0.02 minutes
Total time:
	user time   =      38.66 seconds =       0.64 minutes
	system time =      98.14 seconds =       1.64 minutes
	total time  =         15 seconds =       0.25 minutes

    			-----------------------------------------

    			 OPTKING 3.0: for geometry optimizations

    			     By R.A. King, Bethel University

    			        with contributions from

    			    A.V. Copan, J. Cayton, A. Heide

    			-----------------------------------------

	                            ===> Fragment 1 <==

	 Z (Atomic Numbers)          Masses                          Geom
	       7.000000            14.003074          0.00000000  0.00000000  2.21133353
	      12.000000            23.985042          0.00000000  0.00000000 -1.29103245

	 - Coordinate -           - BOHR/RAD -       - ANG/DEG -
	 R(1,2)           =         3.502366           1.853372

	        --- Internal Coordinate Step in ANG or DEG, aJ/ANG or AJ/DEG ---
	-------------------------------------------------------------------------------
	           Coordinate      Previous         Force          Change          New
	           ----------      --------        ------          ------        ------
	               R(1,2)       1.85337        0.00068        0.00023       1.85360
	-------------------------------------------------------------------------------

	                                 ==> Convergence Check <==

	Measures of convergence in internal coordinates in au.

	Criteria marked as inactive (o), active & met (*), and active & unmet ( ).

	----------------------------------------------------------------------------------------------
	   Step    Total Energy     Delta E     Max Force     RMS Force      Max Disp      RMS Disp
	----------------------------------------------------------------------------------------------
	  Convergence Criteria     1.00e-06 *    3.00e-04 *             o    1.20e-03 *             o
	----------------------------------------------------------------------------------------------
	    11    -254.37642516   -7.09e-07 *    8.27e-05 *    8.27e-05 o    4.37e-04 *    4.37e-04 o  ~
	----------------------------------------------------------------------------------------------

Next Geometry in Ang
	Fragment 1 (Ang)

	    N   0.0000000000   0.0000000000   1.1703028825
	   Mg   0.0000000000   0.0000000000  -0.6833005218

    Final optimized geometry and variables:
    Molecular point group: c2v
    Full point group: C_inf_v

    Geometry (in Angstrom), charge = 1, multiplicity = 3:

    N            0.000000000000     0.000000000000     1.170187310565
    MG           0.000000000000     0.000000000000    -0.683184949849

    Psi4 stopped on: Thursday, 17 July 2025 01:54PM
    Psi4 wall time for execution: 0:00:15.20

*** Psi4 exiting successfully. Buy a developer a beer!
