                               Psi4 1.9.1 release

  ==> Input File <==

--------------------------------------------------------------------------
molecule {
1 3
P   0.00000        0.60000        0.00000
S   0.00000       -0.60000        0.00000
}

set {
basis              cc-pvdz
reference          uks
maxiter            500
geom_maxiter       500
DAMPING_PERCENTAGE 1
guess              SAP
}

optimize('b3lyp')
--------------------------------------------------------------------------

    Molecular point group: c2v
  Charge       = 1
  Multiplicity = 3
  Basis Set: CC-PVDZ
    Blend: CC-PVDZ
  Basis Set: (CC-PVDZ AUX)
    Blend: CC-PVDZ-JKFIT
  @DF-UKS Final Energy:  -737.98526050471696
    Total Energy =                       -737.9852605047169618
 Dipole X            :          0.0000000            0.0000000            0.0000000
 Dipole Y            :          0.0000000            0.0000000            0.0000000
 Dipole Z            :          0.8005425           -0.5763806            0.2241619
 Magnitude           :                                                    0.2241619
    Molecular point group: c2v
  Basis Set: CC-PVDZ
    Blend: CC-PVDZ
  Basis Set: (CC-PVDZ AUX)
    Blend: CC-PVDZ-JKFIT
  Basis Set: CC-PVDZ
    Blend: CC-PVDZ
  Basis Set: (CC-PVDZ AUX)
    Blend: CC-PVDZ-JKFIT
  @DF-UKS Final Energy:  -738.02267084039943
    Total Energy =                       -738.0226708403994280
  Basis Set: CC-PVDZ
    Blend: CC-PVDZ
  Basis Set: (CC-PVDZ AUX)
    Blend: CC-PVDZ-JKFIT
  Basis Set: CC-PVDZ
    Blend: CC-PVDZ
  @DF-UKS Final Energy:  -738.09247807698489
    Total Energy =                       -738.0924780769848894
  @DF-UKS Final Energy:  -738.32264892749856
    Total Energy =                       -738.3226489274985624
  @DF-UKS Final Energy:  -738.83543885772917
    Total Energy =                       -738.8354388577292866
  @DF-UKS Final Energy:  -738.99005783604616
    Total Energy =                       -738.9900578360461623
  @DF-UKS Final Energy:  -739.07572709210444
    Total Energy =                       -739.0757270921043300
  @DF-UKS Final Energy:  -739.10248516473712
    Total Energy =                       -739.1024851647371179
  @DF-UKS Final Energy:  -739.11413041847607
    Total Energy =                       -739.1141304184760656
  @DF-UKS Final Energy:  -739.11831569601418
    Total Energy =                       -739.1183156960141787
  @DF-UKS Final Energy:  -739.11909922896837
    Total Energy =                       -739.1190992289683663
  @DF-UKS Final Energy:  -739.11926585436424
    Total Energy =                       -739.1192658543642438
  @DF-UKS Final Energy:  -739.11930882190518
    Total Energy =                       -739.1193088219050651
  Basis Set: (CC-PVDZ AUX)
    Blend: CC-PVDZ-JKFIT
  Basis Set: CC-PVDZ
    Blend: CC-PVDZ
  Basis Set: (CC-PVDZ AUX)
    Blend: CC-PVDZ-JKFIT
  @DF-UKS Final Energy:  -739.11931475585163
    Total Energy =                       -739.1193147558516330
  Basis Set: CC-PVDZ
    Blend: CC-PVDZ
  Basis Set: (CC-PVDZ AUX)
    Blend: CC-PVDZ-JKFIT
  Charge       = 1
  Multiplicity = 3
  Basis Set: CC-PVDZ
    Blend: CC-PVDZ
  Basis Set: (CC-PVDZ AUX)
    Blend: CC-PVDZ-JKFIT

    Orbital Energies [Eh]
    ---------------------

    Alpha Occupied:

       1A1   -89.228058     2A1   -77.474819     3A1    -8.286677
       4A1    -6.937908     5A1    -6.256448     1B2    -6.244870
       1B1    -6.241934     6A1    -5.103943     2B2    -5.099700
       2B1    -5.096539     7A1    -1.077322     8A1    -0.853848
       9A1    -0.667631     3B1    -0.615392     3B2    -0.604561
       4B1    -0.485032

    Alpha Virtual:

       4B2    -0.421781    10A1    -0.255224    11A1    -0.012734
       5B1     0.056548     5B2     0.058130    12A1     0.100334
       1A2     0.136093    13A1     0.138136     6B1     0.158227
       6B2     0.160003    14A1     0.164858     7B2     0.252055
       7B1     0.252613     2A2     0.320863    15A1     0.321796
      16A1     0.391788    17A1     0.472693     8B1     0.514979
       8B2     0.515363    18A1     0.886195

    Beta Occupied:

       1A1   -89.223111     2A1   -77.467767     3A1    -8.281647
       4A1    -6.930101     5A1    -6.244830     1B2    -6.242649
       1B1    -6.233425     2B2    -5.094603     6A1    -5.092327
       2B1    -5.081413     7A1    -1.040392     8A1    -0.783633
       3B2    -0.594091     3B1    -0.571527

    Beta Virtual:

       9A1    -0.542602     4B2    -0.397243     4B1    -0.368352
      10A1    -0.213211    11A1     0.012897     5B2     0.089038
       5B1     0.109189    12A1     0.132928     6B2     0.175609
      13A1     0.178189     1A2     0.178821    14A1     0.194692
       6B1     0.197197     7B2     0.256040     7B1     0.270829
      15A1     0.344434     2A2     0.344524    16A1     0.411782
      17A1     0.505897     8B2     0.543802     8B1     0.564823
      18A1     0.918175

    Final Occupation by Irrep:
             A1    A2    B1    B2
    DOCC [     8,    0,    3,    3 ]
    SOCC [     1,    0,    1,    0 ]
    NA   [     9,    0,    4,    3 ]
    NB   [     8,    0,    3,    3 ]

  @DF-UKS Final Energy:  -739.11931508899454

   => Energetics <=

    Nuclear Repulsion Energy =             65.3744165067524818
    One-Electron Energy =               -1141.9918818619119065
    Two-Electron Energy =                 376.6253309306156893
    DFT Exchange-Correlation Energy =     -39.1271806644508970
    Empirical Dispersion Energy =           0.0000000000000000
    VV10 Nonlocal Energy =                  0.0000000000000000
    Total Energy =                       -739.1193150889944263

  UHF NO Occupations:
  HONO-2 :    8 A1 1.9980855
  HONO-1 :    9 A1 1.0000000
  HONO-0 :    4 B1 1.0000000
  LUNO+0 :   10 A1 0.0019145
  LUNO+1 :    4 B2 0.0013076
  LUNO+2 :    5 B1 0.0011220
  LUNO+3 :   11 A1 0.0002771

Computation Completed

Properties will be evaluated at   0.000000,   0.000000,   0.000000 [a0]

Properties computed using the SCF density matrix

 Multipole Moments:

 ------------------------------------------------------------------------------------
     Multipole            Electronic (a.u.)      Nuclear  (a.u.)        Total (a.u.)
 ------------------------------------------------------------------------------------

 L = 1.  Multiply by 2.5417464519 to convert [e a0] to [Debye]
 Dipole X            :          0.0000000            0.0000000            0.0000000
 Dipole Y            :          0.0000000            0.0000000            0.0000000
 Dipole Z            :          1.5533382           -0.9331096            0.6202287
 Magnitude           :                                                    0.6202287

 ------------------------------------------------------------------------------------

*** tstop() called on Joses-MacBook-Pro-2.local at Thu Jul 17 15:46:18 2025
Module time:
	user time   =       8.05 seconds =       0.13 minutes
	system time =       1.69 seconds =       0.03 minutes
	total time  =          1 seconds =       0.02 minutes
Total time:
	user time   =     185.02 seconds =       3.08 minutes
	system time =      44.28 seconds =       0.74 minutes
	total time  =         22 seconds =       0.37 minutes

*** tstart() called on Joses-MacBook-Pro-2.local
*** at Thu Jul 17 15:46:18 2025

         ------------------------------------------------------------
                                   SCF GRAD
                          Rob Parrish, Justin Turney,
                       Andy Simmonett, and Alex Sokolov
         ------------------------------------------------------------

  ==> Geometry <==

    Molecular point group: c2v
    Full point group: C_inf_v

    Geometry (in Angstrom), charge = 1, multiplicity = 3:

       Center              X                  Y                   Z               Mass
    ------------   -----------------  -----------------  -----------------  -----------------
         P            0.000000000000     0.000000000000     0.986752723053    30.973761998420
         S            0.000000000000     0.000000000000    -0.955941947846    31.972071174400

  Nuclear repulsion =   65.374416506752482

  ==> Basis Set <==

  Basis Set: CC-PVDZ
    Blend: CC-PVDZ
    Number of shells: 16
    Number of basis functions: 36
    Number of Cartesian functions: 38
    Spherical Harmonics?: true
    Max angular momentum: 2

  ==> DFJKGrad: Density-Fitted SCF Gradients <==

    Gradient:                    1
    J tasked:                  Yes
    K tasked:                  Yes
    wK tasked:                  No
    OpenMP threads:              1
    Integrals threads:           1
    Memory [MiB]:              375
    Schwarz Cutoff:          1E-12
    Fitting Condition:       1E-10

   => Auxiliary Basis Set <=

  Basis Set: (CC-PVDZ AUX)
    Blend: CC-PVDZ-JKFIT
    Number of shells: 72
    Number of basis functions: 224
    Number of Cartesian functions: 260
    Spherical Harmonics?: true
    Max angular momentum: 3

  ==> DFT Potential <==

   => LibXC <=

    Version 6.2.2
    S. Lehtola, C. Steigemann, M. J.T. Oliveira, and M. A.L. Marques.,  SoftwareX 7, 1â€“5 (2018) (10.1016/j.softx.2017.11.002)

   => Composite Functional: B3LYP <=

    B3LYP Hyb-GGA Exchange-Correlation Functional

    P. J. Stephens, F. J. Devlin, C. F. Chabalowski, and M. J. Frisch.,  J. Phys. Chem. 98, 11623 (1994) (10.1021/j100096a001)

    Deriv               =              1
    GGA                 =           TRUE
    Meta                =          FALSE

    Exchange Hybrid     =           TRUE
    MP2 Hybrid          =          FALSE

   => Exchange Functionals <=

    0.0800   Slater exchange
    0.7200         Becke 88

   => Exact (HF) Exchange <=

    0.2000               HF

   => Correlation Functionals <=

    0.1900   Vosko, Wilk & Nusair (VWN5_RPA)
    0.8100   Lee, Yang & Parr

   => LibXC Density Thresholds  <==

    XC_HYB_GGA_XC_B3LYP:  1.00E-15

   => Molecular Quadrature <=

    Radial Scheme          =       TREUTLER
    Pruning Scheme         =           NONE
    Nuclear Scheme         =       TREUTLER

    Blocking Scheme        =         OCTREE
    BS radius alpha        =              1
    Pruning alpha          =              1
    Radial Points          =             75
    Spherical Points       =            302
    Total Points           =          40800
    Total Blocks           =            366
    Max Points             =            256
    Max Functions          =             36
    Weights Tolerance      =       1.00E-15

  -Total Gradient:
     Atom            X                  Y                   Z
    ------   -----------------  -----------------  -----------------
       1        0.000000000000    -0.000000000000    -0.000043349429
       2       -0.000000000000     0.000000000000     0.000051328662

*** tstop() called on Joses-MacBook-Pro-2.local at Thu Jul 17 15:46:18 2025
Module time:
	user time   =       2.93 seconds =       0.05 minutes
	system time =       0.92 seconds =       0.02 minutes
	total time  =          0 seconds =       0.00 minutes
Total time:
	user time   =     187.95 seconds =       3.13 minutes
	system time =      45.20 seconds =       0.75 minutes
	total time  =         22 seconds =       0.37 minutes

    			-----------------------------------------

    			 OPTKING 3.0: for geometry optimizations

    			     By R.A. King, Bethel University

    			        with contributions from

    			    A.V. Copan, J. Cayton, A. Heide

    			-----------------------------------------

	                            ===> Fragment 1 <==

	 Z (Atomic Numbers)          Masses                          Geom
	      15.000000            30.973762          0.00000000  0.00000000  1.86469240
	      16.000000            31.972071          0.00000000  0.00000000 -1.80646847

	 - Coordinate -           - BOHR/RAD -       - ANG/DEG -
	 R(1,2)           =         3.671161           1.942695

	        --- Internal Coordinate Step in ANG or DEG, aJ/ANG or AJ/DEG ---
	-------------------------------------------------------------------------------
	           Coordinate      Previous         Force          Change          New
	           ----------      --------        ------          ------        ------
	               R(1,2)       1.94269        0.00039        0.00009       1.94279
	-------------------------------------------------------------------------------

	                                 ==> Convergence Check <==

	Measures of convergence in internal coordinates in au.

	Criteria marked as inactive (o), active & met (*), and active & unmet ( ).

	----------------------------------------------------------------------------------------------
	   Step    Total Energy     Delta E     Max Force     RMS Force      Max Disp      RMS Disp
	----------------------------------------------------------------------------------------------
	  Convergence Criteria     1.00e-06 *    3.00e-04 *             o    1.20e-03 *             o
	----------------------------------------------------------------------------------------------
	    15    -739.11931509   -3.33e-07 *    4.73e-05 *    4.73e-05 o    1.72e-04 *    1.72e-04 o  ~
	----------------------------------------------------------------------------------------------

Next Geometry in Ang
	Fragment 1 (Ang)

	    P   0.0000000000   0.0000000000   0.9867981966
	    S   0.0000000000   0.0000000000  -0.9559874214

    Final optimized geometry and variables:
    Molecular point group: c2v
    Full point group: C_inf_v

    Geometry (in Angstrom), charge = 1, multiplicity = 3:

    P            0.000000000000     0.000000000000     0.986752723053
    S            0.000000000000     0.000000000000    -0.955941947846

    Psi4 stopped on: Thursday, 17 July 2025 03:46PM
    Psi4 wall time for execution: 0:00:22.62

*** Psi4 exiting successfully. Buy a developer a beer!
