                               Psi4 1.9.1 release

  ==> Input File <==

--------------------------------------------------------------------------
molecule {
1 3
Be   0.00000        0.60000        0.00000
F   0.00000       -0.60000        0.00000
}

set {
basis              cc-pvdz
reference          uks
maxiter            500
geom_maxiter       500
DAMPING_PERCENTAGE 1
guess              SAP
}

optimize('b3lyp')
--------------------------------------------------------------------------

    Molecular point group: c2v
  Charge       = 1
  Multiplicity = 3
  Basis Set: CC-PVDZ
    Blend: CC-PVDZ
  Basis Set: (CC-PVDZ AUX)
    Blend: CC-PVDZ-JKFIT + DEF2-UNIVERSAL-JKFIT
  @DF-UKS Final Energy:  -113.94920572432326
    Total Energy =                       -113.9492057243232637
 Dipole X            :          0.0000000            0.0000000            0.0000000
 Dipole Y            :          0.0000000            0.0000000            0.0000000
 Dipole Z            :          0.7163864           -0.4141822            0.3022043
 Magnitude           :                                                    0.3022043
    Molecular point group: c2v
  Basis Set: CC-PVDZ
    Blend: CC-PVDZ
  Basis Set: (CC-PVDZ AUX)
    Blend: CC-PVDZ-JKFIT + DEF2-UNIVERSAL-JKFIT
  Basis Set: CC-PVDZ
    Blend: CC-PVDZ
  Basis Set: (CC-PVDZ AUX)
    Blend: CC-PVDZ-JKFIT + DEF2-UNIVERSAL-JKFIT
  @DF-UKS Final Energy:  -114.03823097261647
    Total Energy =                       -114.0382309726165033
  Basis Set: CC-PVDZ
    Blend: CC-PVDZ
  Basis Set: (CC-PVDZ AUX)
    Blend: CC-PVDZ-JKFIT + DEF2-UNIVERSAL-JKFIT
  Basis Set: CC-PVDZ
    Blend: CC-PVDZ
  @DF-UKS Final Energy:  -114.06341380612730
    Total Energy =                       -114.0634138061273006
  @DF-UKS Final Energy:  -114.07769580091845
    Total Energy =                       -114.0776958009184483
  @DF-UKS Final Energy:  -114.08225759591606
    Total Energy =                       -114.0822575959160758
  @DF-UKS Final Energy:  -114.08459158169389
    Total Energy =                       -114.0845915816938856
  @DF-UKS Final Energy:  -114.08561585861243
    Total Energy =                       -114.0856158586124280
  @DF-UKS Final Energy:  -114.08586402769451
    Total Energy =                       -114.0858640276945124
  @DF-UKS Final Energy:  -114.08593335016033
    Total Energy =                       -114.0859333501603317
  @DF-UKS Final Energy:  -114.08595791958753
    Total Energy =                       -114.0859579195875284
  Basis Set: (CC-PVDZ AUX)
    Blend: CC-PVDZ-JKFIT + DEF2-UNIVERSAL-JKFIT
  Basis Set: CC-PVDZ
    Blend: CC-PVDZ
  Basis Set: (CC-PVDZ AUX)
    Blend: CC-PVDZ-JKFIT + DEF2-UNIVERSAL-JKFIT
  @DF-UKS Final Energy:  -114.08596345469638
    Total Energy =                       -114.0859634546963832
  Basis Set: CC-PVDZ
    Blend: CC-PVDZ
  Basis Set: (CC-PVDZ AUX)
    Blend: CC-PVDZ-JKFIT + DEF2-UNIVERSAL-JKFIT
  Charge       = 1
  Multiplicity = 3
  Basis Set: CC-PVDZ
    Blend: CC-PVDZ
  Basis Set: (CC-PVDZ AUX)
    Blend: CC-PVDZ-JKFIT + DEF2-UNIVERSAL-JKFIT

    Orbital Energies [Eh]
    ---------------------

    Alpha Occupied:

       1A1   -25.164316     2A1    -4.474344     3A1    -1.585805
       1B1    -0.900183     4A1    -0.846230     1B2    -0.810689
       5A1    -0.510768

    Alpha Virtual:

       2B1    -0.328949     2B2    -0.325089     6A1    -0.263629
       7A1    -0.046148     3B1    -0.039032     3B2    -0.037276
       8A1    -0.027249     1A2     0.187805     9A1     0.187827
       4B1     0.189631     4B2     0.197593    10A1     0.295046
       5B1     0.826409     5B2     0.877214    11A1     0.933891
      12A1     1.614665    13A1     3.091451     2A2     3.102914
       6B1     3.120785     6B2     3.189423    14A1     3.227479

    Beta Occupied:

       1A1   -25.130742     2A1    -4.459687     3A1    -1.490272
       4A1    -0.807041     1B2    -0.776797

    Beta Virtual:

       1B1    -0.602745     5A1    -0.378149     2B2    -0.271651
       2B1    -0.268440     6A1    -0.212841     7A1    -0.037512
       3B2    -0.023461     3B1    -0.021012     8A1     0.007165
       1A2     0.245045     9A1     0.245311     4B2     0.253243
       4B1     0.255262    10A1     0.355069     5B2     0.898869
       5B1     0.931088    11A1     0.957249    12A1     1.662851
       2A2     3.199798    13A1     3.208792     6B2     3.209426
       6B1     3.221326    14A1     3.270097

    Final Occupation by Irrep:
             A1    A2    B1    B2
    DOCC [     4,    0,    0,    1 ]
    SOCC [     1,    0,    1,    0 ]
    NA   [     5,    0,    1,    1 ]
    NB   [     4,    0,    0,    1 ]

  @DF-UKS Final Energy:  -114.08596410198572

   => Energetics <=

    Nuclear Repulsion Energy =             10.0081504447634391
    One-Electron Energy =                -173.7364680422301433
    Two-Electron Energy =                  60.0669018520934586
    DFT Exchange-Correlation Energy =     -10.4245483566124602
    Empirical Dispersion Energy =           0.0000000000000000
    VV10 Nonlocal Energy =                  0.0000000000000000
    Total Energy =                       -114.0859641019857236

  UHF NO Occupations:
  HONO-2 :    4 A1 1.9995196
  HONO-1 :    1 B1 1.0000000
  HONO-0 :    5 A1 1.0000000
  LUNO+0 :    6 A1 0.0004804
  LUNO+1 :    7 A1 0.0002151
  LUNO+2 :    2 B2 0.0000949
  LUNO+3 :    8 A1 0.0000001

Computation Completed

Properties will be evaluated at   0.000000,   0.000000,   0.000000 [a0]

Properties computed using the SCF density matrix

 Multipole Moments:

 ------------------------------------------------------------------------------------
     Multipole            Electronic (a.u.)      Nuclear  (a.u.)        Total (a.u.)
 ------------------------------------------------------------------------------------

 L = 1.  Multiply by 2.5417464519 to convert [e a0] to [Debye]
 Dipole X            :          0.0000000            0.0000000            0.0000000
 Dipole Y            :          0.0000000            0.0000000            0.0000000
 Dipole Z            :          2.1190455           -0.6569918            1.4620536
 Magnitude           :                                                    1.4620536

 ------------------------------------------------------------------------------------

*** tstop() called on Joses-MacBook-Pro-2.local at Thu Jul 17 13:19:36 2025
Module time:
	user time   =       3.53 seconds =       0.06 minutes
	system time =       4.19 seconds =       0.07 minutes
	total time  =          1 seconds =       0.02 minutes
Total time:
	user time   =      47.53 seconds =       0.79 minutes
	system time =      75.48 seconds =       1.26 minutes
	total time  =         14 seconds =       0.23 minutes

*** tstart() called on Joses-MacBook-Pro-2.local
*** at Thu Jul 17 13:19:36 2025

         ------------------------------------------------------------
                                   SCF GRAD
                          Rob Parrish, Justin Turney,
                       Andy Simmonett, and Alex Sokolov
         ------------------------------------------------------------

  ==> Geometry <==

    Molecular point group: c2v
    Full point group: C_inf_v

    Geometry (in Angstrom), charge = 1, multiplicity = 3:

       Center              X                  Y                   Z               Mass
    ------------   -----------------  -----------------  -----------------  -----------------
         BE           0.000000000000     0.000000000000     1.291054898319     9.012183065000
         F            0.000000000000     0.000000000000    -0.612431633909    18.998403162730

  Nuclear repulsion =   10.008150444763439

  ==> Basis Set <==

  Basis Set: CC-PVDZ
    Blend: CC-PVDZ
    Number of shells: 12
    Number of basis functions: 28
    Number of Cartesian functions: 30
    Spherical Harmonics?: true
    Max angular momentum: 2

  ==> DFJKGrad: Density-Fitted SCF Gradients <==

    Gradient:                    1
    J tasked:                  Yes
    K tasked:                  Yes
    wK tasked:                  No
    OpenMP threads:              1
    Integrals threads:           1
    Memory [MiB]:              375
    Schwarz Cutoff:          1E-12
    Fitting Condition:       1E-10

   => Auxiliary Basis Set <=

  Basis Set: (CC-PVDZ AUX)
    Blend: CC-PVDZ-JKFIT + DEF2-UNIVERSAL-JKFIT
    Number of shells: 41
    Number of basis functions: 121
    Number of Cartesian functions: 141
    Spherical Harmonics?: true
    Max angular momentum: 3

  ==> DFT Potential <==

   => LibXC <=

    Version 6.2.2
    S. Lehtola, C. Steigemann, M. J.T. Oliveira, and M. A.L. Marques.,  SoftwareX 7, 1â€“5 (2018) (10.1016/j.softx.2017.11.002)

   => Composite Functional: B3LYP <=

    B3LYP Hyb-GGA Exchange-Correlation Functional

    P. J. Stephens, F. J. Devlin, C. F. Chabalowski, and M. J. Frisch.,  J. Phys. Chem. 98, 11623 (1994) (10.1021/j100096a001)

    Deriv               =              1
    GGA                 =           TRUE
    Meta                =          FALSE

    Exchange Hybrid     =           TRUE
    MP2 Hybrid          =          FALSE

   => Exchange Functionals <=

    0.0800   Slater exchange
    0.7200         Becke 88

   => Exact (HF) Exchange <=

    0.2000               HF

   => Correlation Functionals <=

    0.1900   Vosko, Wilk & Nusair (VWN5_RPA)
    0.8100   Lee, Yang & Parr

   => LibXC Density Thresholds  <==

    XC_HYB_GGA_XC_B3LYP:  1.00E-15

   => Molecular Quadrature <=

    Radial Scheme          =       TREUTLER
    Pruning Scheme         =           NONE
    Nuclear Scheme         =       TREUTLER

    Blocking Scheme        =         OCTREE
    BS radius alpha        =              1
    Pruning alpha          =              1
    Radial Points          =             75
    Spherical Points       =            302
    Total Points           =          43604
    Total Blocks           =            401
    Max Points             =            256
    Max Functions          =             28
    Weights Tolerance      =       1.00E-15

  -Total Gradient:
     Atom            X                  Y                   Z
    ------   -----------------  -----------------  -----------------
       1       -0.000000000000    -0.000000000000    -0.000012093631
       2        0.000000000000    -0.000000000000     0.000060971937

*** tstop() called on Joses-MacBook-Pro-2.local at Thu Jul 17 13:19:36 2025
Module time:
	user time   =       0.57 seconds =       0.01 minutes
	system time =       1.25 seconds =       0.02 minutes
	total time  =          0 seconds =       0.00 minutes
Total time:
	user time   =      48.14 seconds =       0.80 minutes
	system time =      76.73 seconds =       1.28 minutes
	total time  =         14 seconds =       0.23 minutes

    			-----------------------------------------

    			 OPTKING 3.0: for geometry optimizations

    			     By R.A. King, Bethel University

    			        with contributions from

    			    A.V. Copan, J. Cayton, A. Heide

    			-----------------------------------------

	                            ===> Fragment 1 <==

	 Z (Atomic Numbers)          Masses                          Geom
	       4.000000             9.012183          0.00000000  0.00000000  2.43974017
	       9.000000            18.998403          0.00000000  0.00000000 -1.15732806

	 - Coordinate -           - BOHR/RAD -       - ANG/DEG -
	 R(1,2)           =         3.597068           1.903487

	        --- Internal Coordinate Step in ANG or DEG, aJ/ANG or AJ/DEG ---
	-------------------------------------------------------------------------------
	           Coordinate      Previous         Force          Change          New
	           ----------      --------        ------          ------        ------
	               R(1,2)       1.90349        0.00030        0.00055       1.90404
	-------------------------------------------------------------------------------

	                                 ==> Convergence Check <==

	Measures of convergence in internal coordinates in au.

	Criteria marked as inactive (o), active & met (*), and active & unmet ( ).

	----------------------------------------------------------------------------------------------
	   Step    Total Energy     Delta E     Max Force     RMS Force      Max Disp      RMS Disp
	----------------------------------------------------------------------------------------------
	  Convergence Criteria     1.00e-06 *    3.00e-04 *             o    1.20e-03 *             o
	----------------------------------------------------------------------------------------------
	    12    -114.08596410   -6.47e-07 *    3.65e-05 *    3.65e-05 o    1.04e-03 *    1.04e-03 o  ~
	----------------------------------------------------------------------------------------------

Next Geometry in Ang
	Fragment 1 (Ang)

	   Be   0.0000000000   0.0000000000   1.2913300420
	    F   0.0000000000   0.0000000000  -0.6127067775

    Final optimized geometry and variables:
    Molecular point group: c2v
    Full point group: C_inf_v

    Geometry (in Angstrom), charge = 1, multiplicity = 3:

    BE           0.000000000000     0.000000000000     1.291054898319
    F            0.000000000000     0.000000000000    -0.612431633909

    Psi4 stopped on: Thursday, 17 July 2025 01:19PM
    Psi4 wall time for execution: 0:00:15.29

*** Psi4 exiting successfully. Buy a developer a beer!
