                               Psi4 1.9.1 release

  ==> Input File <==

--------------------------------------------------------------------------
molecule {
1 3
N   0.00000        0.60000        0.00000
Ne   0.00000       -0.60000        0.00000
}

set {
basis              cc-pvdz
reference          uks
maxiter            500
geom_maxiter       500
DAMPING_PERCENTAGE 1
guess              SAP
}

optimize('b3lyp')
--------------------------------------------------------------------------

    Molecular point group: c2v
  Charge       = 1
  Multiplicity = 3
  Basis Set: CC-PVDZ
    Blend: CC-PVDZ
  Basis Set: (CC-PVDZ AUX)
    Blend: CC-PVDZ-JKFIT
  @DF-UKS Final Energy:  -182.88992763716340
    Total Energy =                       -182.8899276371633960
 Dipole X            :          0.0000000            0.0000000            0.0000000
 Dipole Y            :          0.0000000            0.0000000            0.0000000
 Dipole Z            :         -0.1469334           -0.0055805           -0.1525139
 Magnitude           :                                                    0.1525139
    Molecular point group: c2v
  Basis Set: CC-PVDZ
    Blend: CC-PVDZ
  Basis Set: (CC-PVDZ AUX)
    Blend: CC-PVDZ-JKFIT
  Basis Set: CC-PVDZ
    Blend: CC-PVDZ
  Basis Set: (CC-PVDZ AUX)
    Blend: CC-PVDZ-JKFIT
  @DF-UKS Final Energy:  -182.96168502530105
    Total Energy =                       -182.9616850253010512
  Basis Set: CC-PVDZ
    Blend: CC-PVDZ
  Basis Set: (CC-PVDZ AUX)
    Blend: CC-PVDZ-JKFIT
  Basis Set: CC-PVDZ
    Blend: CC-PVDZ
  @DF-UKS Final Energy:  -182.98701284899875
    Total Energy =                       -182.9870128489987451
  @DF-UKS Final Energy:  -182.99845283388140
    Total Energy =                       -182.9984528338814016
  @DF-UKS Final Energy:  -183.00134311812747
    Total Energy =                       -183.0013431181274655
  @DF-UKS Final Energy:  -183.00244227576380
    Total Energy =                       -183.0024422757637979
  @DF-UKS Final Energy:  -183.00267936883864
    Total Energy =                       -183.0026793688386135
  @DF-UKS Final Energy:  -183.00273703822867
    Total Energy =                       -183.0027370382286733
  @DF-UKS Final Energy:  -183.00275503580468
    Total Energy =                       -183.0027550358046824
  Basis Set: (CC-PVDZ AUX)
    Blend: CC-PVDZ-JKFIT
  Basis Set: CC-PVDZ
    Blend: CC-PVDZ
  Basis Set: (CC-PVDZ AUX)
    Blend: CC-PVDZ-JKFIT
  @DF-UKS Final Energy:  -183.00275739007927
    Total Energy =                       -183.0027573900792675
  Basis Set: CC-PVDZ
    Blend: CC-PVDZ
  Basis Set: (CC-PVDZ AUX)
    Blend: CC-PVDZ-JKFIT
  Charge       = 1
  Multiplicity = 3
  Basis Set: CC-PVDZ
    Blend: CC-PVDZ
  Basis Set: (CC-PVDZ AUX)
    Blend: CC-PVDZ-JKFIT

    Orbital Energies [Eh]
    ---------------------

    Alpha Occupied:

       1A1   -31.411699     2A1   -15.004857     3A1    -1.857055
       4A1    -1.262935     5A1    -0.964777     1B2    -0.953868
       1B1    -0.953868     2B1    -0.805086     2B2    -0.805086

    Alpha Virtual:

       6A1    -0.614713     3B2     0.272307     3B1     0.272307
       7A1     0.333561     8A1     0.439740     4B2     0.963903
       4B1     0.963903     9A1     1.024416    10A1     1.230268
       1A2     1.230268    11A1     1.266602     5B1     1.322934
       5B2     1.322934    12A1     2.134143     6B2     4.306675
       6B1     4.306675     2A2     4.313480    13A1     4.313489
      14A1     4.371540

    Beta Occupied:

       1A1   -31.412155     2A1   -14.959847     3A1    -1.858177
       4A1    -1.133179     1B2    -0.949333     1B1    -0.949333
       5A1    -0.948549

    Beta Virtual:

       6A1    -0.564096     2B1    -0.541593     2B2    -0.541593
       3B2     0.359797     3B1     0.359797     7A1     0.361727
       8A1     0.498458     4B2     0.981335     4B1     0.981335
       9A1     1.045405    10A1     1.288881     1A2     1.377620
      11A1     1.377622     5B1     1.398574     5B2     1.398574
      12A1     2.155386     6B2     4.304103     6B1     4.304103
       2A2     4.315206    13A1     4.315215    14A1     4.368858

    Final Occupation by Irrep:
             A1    A2    B1    B2
    DOCC [     5,    0,    1,    1 ]
    SOCC [     0,    0,    1,    1 ]
    NA   [     5,    0,    2,    2 ]
    NB   [     5,    0,    1,    1 ]

  @DF-UKS Final Energy:  -183.00275753999699

   => Energetics <=

    Nuclear Repulsion Energy =             21.1289305888547965
    One-Electron Energy =                -291.1144291518900218
    Two-Electron Energy =                 102.1993561323558311
    DFT Exchange-Correlation Energy =     -15.2166151093176065
    Empirical Dispersion Energy =           0.0000000000000000
    VV10 Nonlocal Energy =                  0.0000000000000000
    Total Energy =                       -183.0027575399969919

  UHF NO Occupations:
  HONO-2 :    5 A1 1.9982993
  HONO-1 :    2 B1 1.0000000
  HONO-0 :    2 B2 1.0000000
  LUNO+0 :    6 A1 0.0017007
  LUNO+1 :    7 A1 0.0009280
  LUNO+2 :    3 B2 0.0000104
  LUNO+3 :    3 B1 0.0000104

Computation Completed

Properties will be evaluated at   0.000000,   0.000000,   0.000000 [a0]

Properties computed using the SCF density matrix

 Multipole Moments:

 ------------------------------------------------------------------------------------
     Multipole            Electronic (a.u.)      Nuclear  (a.u.)        Total (a.u.)
 ------------------------------------------------------------------------------------

 L = 1.  Multiply by 2.5417464519 to convert [e a0] to [Debye]
 Dipole X            :          0.0000000            0.0000000            0.0000000
 Dipole Y            :          0.0000000            0.0000000            0.0000000
 Dipole Z            :          1.0887281           -0.0081529            1.0805752
 Magnitude           :                                                    1.0805752

 ------------------------------------------------------------------------------------

*** tstop() called on Joses-MacBook-Pro-2.local at Thu Jul 17 13:52:31 2025
Module time:
	user time   =       1.62 seconds =       0.03 minutes
	system time =       4.56 seconds =       0.08 minutes
	total time  =          0 seconds =       0.00 minutes
Total time:
	user time   =      35.52 seconds =       0.59 minutes
	system time =      76.09 seconds =       1.27 minutes
	total time  =         11 seconds =       0.18 minutes

*** tstart() called on Joses-MacBook-Pro-2.local
*** at Thu Jul 17 13:52:31 2025

         ------------------------------------------------------------
                                   SCF GRAD
                          Rob Parrish, Justin Turney,
                       Andy Simmonett, and Alex Sokolov
         ------------------------------------------------------------

  ==> Geometry <==

    Molecular point group: c2v
    Full point group: C_inf_v

    Geometry (in Angstrom), charge = 1, multiplicity = 3:

       Center              X                  Y                   Z               Mass
    ------------   -----------------  -----------------  -----------------  -----------------
         N            0.000000000000     0.000000000000     1.031017049947    14.003074004430
         NE           0.000000000000     0.000000000000    -0.722143366342    19.992440176200

  Nuclear repulsion =   21.128930588854796

  ==> Basis Set <==

  Basis Set: CC-PVDZ
    Blend: CC-PVDZ
    Number of shells: 12
    Number of basis functions: 28
    Number of Cartesian functions: 30
    Spherical Harmonics?: true
    Max angular momentum: 2

  ==> DFJKGrad: Density-Fitted SCF Gradients <==

    Gradient:                    1
    J tasked:                  Yes
    K tasked:                  Yes
    wK tasked:                  No
    OpenMP threads:              1
    Integrals threads:           1
    Memory [MiB]:              375
    Schwarz Cutoff:          1E-12
    Fitting Condition:       1E-10

   => Auxiliary Basis Set <=

  Basis Set: (CC-PVDZ AUX)
    Blend: CC-PVDZ-JKFIT
    Number of shells: 48
    Number of basis functions: 140
    Number of Cartesian functions: 162
    Spherical Harmonics?: true
    Max angular momentum: 3

  ==> DFT Potential <==

   => LibXC <=

    Version 6.2.2
    S. Lehtola, C. Steigemann, M. J.T. Oliveira, and M. A.L. Marques.,  SoftwareX 7, 1â€“5 (2018) (10.1016/j.softx.2017.11.002)

   => Composite Functional: B3LYP <=

    B3LYP Hyb-GGA Exchange-Correlation Functional

    P. J. Stephens, F. J. Devlin, C. F. Chabalowski, and M. J. Frisch.,  J. Phys. Chem. 98, 11623 (1994) (10.1021/j100096a001)

    Deriv               =              1
    GGA                 =           TRUE
    Meta                =          FALSE

    Exchange Hybrid     =           TRUE
    MP2 Hybrid          =          FALSE

   => Exchange Functionals <=

    0.0800   Slater exchange
    0.7200         Becke 88

   => Exact (HF) Exchange <=

    0.2000               HF

   => Correlation Functionals <=

    0.1900   Vosko, Wilk & Nusair (VWN5_RPA)
    0.8100   Lee, Yang & Parr

   => LibXC Density Thresholds  <==

    XC_HYB_GGA_XC_B3LYP:  1.00E-15

   => Molecular Quadrature <=

    Radial Scheme          =       TREUTLER
    Pruning Scheme         =           NONE
    Nuclear Scheme         =       TREUTLER

    Blocking Scheme        =         OCTREE
    BS radius alpha        =              1
    Pruning alpha          =              1
    Radial Points          =             75
    Spherical Points       =            302
    Total Points           =          42774
    Total Blocks           =            374
    Max Points             =            256
    Max Functions          =             28
    Weights Tolerance      =       1.00E-15

  -Total Gradient:
     Atom            X                  Y                   Z
    ------   -----------------  -----------------  -----------------
       1        0.000000000000    -0.000000000000    -0.000008465135
       2       -0.000000000000     0.000000000000     0.000023289845

*** tstop() called on Joses-MacBook-Pro-2.local at Thu Jul 17 13:52:31 2025
Module time:
	user time   =       0.36 seconds =       0.01 minutes
	system time =       1.16 seconds =       0.02 minutes
	total time  =          0 seconds =       0.00 minutes
Total time:
	user time   =      35.88 seconds =       0.60 minutes
	system time =      77.26 seconds =       1.29 minutes
	total time  =         11 seconds =       0.18 minutes

    			-----------------------------------------

    			 OPTKING 3.0: for geometry optimizations

    			     By R.A. King, Bethel University

    			        with contributions from

    			    A.V. Copan, J. Cayton, A. Heide

    			-----------------------------------------

	                            ===> Fragment 1 <==

	 Z (Atomic Numbers)          Masses                          Geom
	       7.000000            14.003074          0.00000000  0.00000000  1.94833986
	      10.000000            19.992440          0.00000000  0.00000000 -1.36465319

	 - Coordinate -           - BOHR/RAD -       - ANG/DEG -
	 R(1,2)           =         3.312993           1.753160

	        --- Internal Coordinate Step in ANG or DEG, aJ/ANG or AJ/DEG ---
	-------------------------------------------------------------------------------
	           Coordinate      Previous         Force          Change          New
	           ----------      --------        ------          ------        ------
	               R(1,2)       1.75316        0.00013        0.00011       1.75327
	-------------------------------------------------------------------------------

	                                 ==> Convergence Check <==

	Measures of convergence in internal coordinates in au.

	Criteria marked as inactive (o), active & met (*), and active & unmet ( ).

	----------------------------------------------------------------------------------------------
	   Step    Total Energy     Delta E     Max Force     RMS Force      Max Disp      RMS Disp
	----------------------------------------------------------------------------------------------
	  Convergence Criteria     1.00e-06 *    3.00e-04 *             o    1.20e-03 *             o
	----------------------------------------------------------------------------------------------
	    11    -183.00275754   -1.50e-07 *    1.59e-05 *    1.59e-05 o    2.11e-04 *    2.11e-04 o  ~
	----------------------------------------------------------------------------------------------

Next Geometry in Ang
	Fragment 1 (Ang)

	    N   0.0000000000   0.0000000000   1.0310727497
	   Ne   0.0000000000   0.0000000000  -0.7221990661

    Final optimized geometry and variables:
    Molecular point group: c2v
    Full point group: C_inf_v

    Geometry (in Angstrom), charge = 1, multiplicity = 3:

    N            0.000000000000     0.000000000000     1.031017049947
    NE           0.000000000000     0.000000000000    -0.722143366342

    Psi4 stopped on: Thursday, 17 July 2025 01:52PM
    Psi4 wall time for execution: 0:00:12.23

*** Psi4 exiting successfully. Buy a developer a beer!
