                               Psi4 1.9.1 release

  ==> Input File <==

--------------------------------------------------------------------------
molecule {
1 3
Mg   0.00000        0.60000        0.00000
Al   0.00000       -0.60000        0.00000
}

set {
basis              cc-pvdz
reference          uks
maxiter            500
geom_maxiter       500
DAMPING_PERCENTAGE 1
guess              SAP
}

optimize('b3lyp')
--------------------------------------------------------------------------

    Molecular point group: c2v
  Charge       = 1
  Multiplicity = 3
  Basis Set: CC-PVDZ
    Blend: CC-PVDZ
  Basis Set: (CC-PVDZ AUX)
    Blend: CC-PVDZ-JKFIT + DEF2-UNIVERSAL-JKFIT
  @DF-UKS Final Energy:  -441.32293386039618
    Total Energy =                       -441.3229338603961764
 Dipole X            :          0.0000000            0.0000000            0.0000000
 Dipole Y            :          0.0000000            0.0000000            0.0000000
 Dipole Z            :          0.1749696            0.5327147            0.7076843
 Magnitude           :                                                    0.7076843
    Molecular point group: c2v
  Basis Set: CC-PVDZ
    Blend: CC-PVDZ
  Basis Set: (CC-PVDZ AUX)
    Blend: CC-PVDZ-JKFIT + DEF2-UNIVERSAL-JKFIT
  Basis Set: CC-PVDZ
    Blend: CC-PVDZ
  Basis Set: (CC-PVDZ AUX)
    Blend: CC-PVDZ-JKFIT + DEF2-UNIVERSAL-JKFIT
  @DF-UKS Final Energy:  -441.33184788464422
    Total Energy =                       -441.3318478846442190
  Basis Set: CC-PVDZ
    Blend: CC-PVDZ
  Basis Set: (CC-PVDZ AUX)
    Blend: CC-PVDZ-JKFIT + DEF2-UNIVERSAL-JKFIT
  Basis Set: CC-PVDZ
    Blend: CC-PVDZ
  @DF-UKS Final Energy:  -441.34911972377375
    Total Energy =                       -441.3491197237737538
  @DF-UKS Final Energy:  -441.41245072066420
    Total Energy =                       -441.4124507206641965
  @DF-UKS Final Energy:  -441.71428639954809
    Total Energy =                       -441.7142863995480866
  @DF-UKS Final Energy:  -441.91033758871470
    Total Energy =                       -441.9103375887146399
  @DF-UKS Final Energy:  -442.04072074381588
    Total Energy =                       -442.0407207438158821
  @DF-UKS Final Energy:  -442.14778209035097
    Total Energy =                       -442.1477820903509723
  @DF-UKS Final Energy:  -442.20195994697383
    Total Energy =                       -442.2019599469738864
  @DF-UKS Final Energy:  -442.20547270635183
    Total Energy =                       -442.2054727063517703
  @DF-UKS Final Energy:  -442.21476654225296
    Total Energy =                       -442.2147665422529599
  @DF-UKS Final Energy:  -442.21663862730082
    Total Energy =                       -442.2166386273008243
  @DF-UKS Final Energy:  -442.21716427552968
    Total Energy =                       -442.2171642755296830
  @DF-UKS Final Energy:  -442.21720932737566
    Total Energy =                       -442.2172093273756559
  Basis Set: (CC-PVDZ AUX)
    Blend: CC-PVDZ-JKFIT + DEF2-UNIVERSAL-JKFIT
  Basis Set: CC-PVDZ
    Blend: CC-PVDZ
  Basis Set: (CC-PVDZ AUX)
    Blend: CC-PVDZ-JKFIT + DEF2-UNIVERSAL-JKFIT
  @DF-UKS Final Energy:  -442.21721358089064
    Total Energy =                       -442.2172135808906432
  Basis Set: CC-PVDZ
    Blend: CC-PVDZ
  Basis Set: (CC-PVDZ AUX)
    Blend: CC-PVDZ-JKFIT + DEF2-UNIVERSAL-JKFIT
  Charge       = 1
  Multiplicity = 3
  Basis Set: CC-PVDZ
    Blend: CC-PVDZ
  Basis Set: (CC-PVDZ AUX)
    Blend: CC-PVDZ-JKFIT + DEF2-UNIVERSAL-JKFIT

    Orbital Energies [Eh]
    ---------------------

    Alpha Occupied:

       1A1   -56.283004     2A1   -47.104392     3A1    -4.360981
       4A1    -3.379469     1B1    -2.914677     5A1    -2.913586
       1B2    -2.911902     2B1    -2.123242     6A1    -2.122325
       2B2    -2.122186     7A1    -0.542565     8A1    -0.416819
       3B2    -0.327026

    Alpha Virtual:

       9A1    -0.280185     3B1    -0.274331     4B2    -0.211135
       4B1    -0.201843    10A1    -0.129011    11A1    -0.079243
      12A1    -0.028609     5B2    -0.024507     5B1    -0.020492
      13A1     0.026234     6B2     0.026962     6B1     0.033197
       1A2     0.050151    14A1     0.053028     7B2     0.064847
       7B1     0.071170     2A2     0.116336    15A1     0.118334
      16A1     0.121533    17A1     0.202767     8B2     0.235975
       8B1     0.240444    18A1     0.421913

    Beta Occupied:

       1A1   -56.279935     2A1   -47.101652     3A1    -4.356706
       4A1    -3.374578     1B1    -2.912302     5A1    -2.910239
       1B2    -2.903729     2B1    -2.120097     6A1    -2.119320
       2B2    -2.117635     7A1    -0.507772

    Beta Virtual:

       8A1    -0.338643     3B1    -0.260664     9A1    -0.248288
       3B2    -0.242170     4B1    -0.178196     4B2    -0.167270
      10A1    -0.113996    11A1    -0.065249    12A1    -0.015971
       5B1    -0.012712     5B2    -0.006149    13A1     0.044595
       6B1     0.050537     6B2     0.062003     7B1     0.078672
       1A2     0.085686    14A1     0.085774     7B2     0.092852
      15A1     0.133253     2A2     0.151934    16A1     0.152581
      17A1     0.224913     8B1     0.260936     8B2     0.273850
      18A1     0.442878

    Final Occupation by Irrep:
             A1    A2    B1    B2
    DOCC [     7,    0,    2,    2 ]
    SOCC [     1,    0,    0,    1 ]
    NA   [     8,    0,    2,    3 ]
    NB   [     7,    0,    2,    2 ]

  @DF-UKS Final Energy:  -442.21721399131934

   => Energetics <=

    Nuclear Repulsion Energy =             30.0942068645020875
    One-Electron Energy =                -670.3412464279425649
    Two-Electron Energy =                 226.1304034969149939
    DFT Exchange-Correlation Energy =     -28.1005779247938392
    Empirical Dispersion Energy =           0.0000000000000000
    VV10 Nonlocal Energy =                  0.0000000000000000
    Total Energy =                       -442.2172139913193405

  UHF NO Occupations:
  HONO-2 :    7 A1 1.9958455
  HONO-1 :    3 B2 1.0000000
  HONO-0 :    8 A1 1.0000000
  LUNO+0 :    9 A1 0.0041545
  LUNO+1 :    4 B2 0.0000008
  LUNO+2 :    3 B1 0.0000008
  LUNO+3 :   10 A1 0.0000007

Computation Completed

Properties will be evaluated at   0.000000,   0.000000,   0.000000 [a0]

Properties computed using the SCF density matrix

 Multipole Moments:

 ------------------------------------------------------------------------------------
     Multipole            Electronic (a.u.)      Nuclear  (a.u.)        Total (a.u.)
 ------------------------------------------------------------------------------------

 L = 1.  Multiply by 2.5417464519 to convert [e a0] to [Debye]
 Dipole X            :          0.0000000            0.0000000            0.0000000
 Dipole Y            :          0.0000000            0.0000000            0.0000000
 Dipole Z            :         -0.1167394            1.2177448            1.1010054
 Magnitude           :                                                    1.1010054

 ------------------------------------------------------------------------------------

*** tstop() called on Joses-MacBook-Pro-2.local at Thu Jul 17 15:05:04 2025
Module time:
	user time   =       7.43 seconds =       0.12 minutes
	system time =       1.94 seconds =       0.03 minutes
	total time  =          1 seconds =       0.02 minutes
Total time:
	user time   =     185.50 seconds =       3.09 minutes
	system time =      53.78 seconds =       0.90 minutes
	total time  =         23 seconds =       0.38 minutes

*** tstart() called on Joses-MacBook-Pro-2.local
*** at Thu Jul 17 15:05:04 2025

         ------------------------------------------------------------
                                   SCF GRAD
                          Rob Parrish, Justin Turney,
                       Andy Simmonett, and Alex Sokolov
         ------------------------------------------------------------

  ==> Geometry <==

    Molecular point group: c2v
    Full point group: C_inf_v

    Geometry (in Angstrom), charge = 1, multiplicity = 3:

       Center              X                  Y                   Z               Mass
    ------------   -----------------  -----------------  -----------------  -----------------
         MG           0.000000000000     0.000000000000     1.452192017782    23.985041697000
         AL           0.000000000000     0.000000000000    -1.290915492451    26.981538530000

  Nuclear repulsion =   30.094206864502087

  ==> Basis Set <==

  Basis Set: CC-PVDZ
    Blend: CC-PVDZ
    Number of shells: 16
    Number of basis functions: 36
    Number of Cartesian functions: 38
    Spherical Harmonics?: true
    Max angular momentum: 2

  ==> DFJKGrad: Density-Fitted SCF Gradients <==

    Gradient:                    1
    J tasked:                  Yes
    K tasked:                  Yes
    wK tasked:                  No
    OpenMP threads:              1
    Integrals threads:           1
    Memory [MiB]:              375
    Schwarz Cutoff:          1E-12
    Fitting Condition:       1E-10

   => Auxiliary Basis Set <=

  Basis Set: (CC-PVDZ AUX)
    Blend: CC-PVDZ-JKFIT + DEF2-UNIVERSAL-JKFIT
    Number of shells: 70
    Number of basis functions: 224
    Number of Cartesian functions: 267
    Spherical Harmonics?: true
    Max angular momentum: 4

  ==> DFT Potential <==

   => LibXC <=

    Version 6.2.2
    S. Lehtola, C. Steigemann, M. J.T. Oliveira, and M. A.L. Marques.,  SoftwareX 7, 1â€“5 (2018) (10.1016/j.softx.2017.11.002)

   => Composite Functional: B3LYP <=

    B3LYP Hyb-GGA Exchange-Correlation Functional

    P. J. Stephens, F. J. Devlin, C. F. Chabalowski, and M. J. Frisch.,  J. Phys. Chem. 98, 11623 (1994) (10.1021/j100096a001)

    Deriv               =              1
    GGA                 =           TRUE
    Meta                =          FALSE

    Exchange Hybrid     =           TRUE
    MP2 Hybrid          =          FALSE

   => Exchange Functionals <=

    0.0800   Slater exchange
    0.7200         Becke 88

   => Exact (HF) Exchange <=

    0.2000               HF

   => Correlation Functionals <=

    0.1900   Vosko, Wilk & Nusair (VWN5_RPA)
    0.8100   Lee, Yang & Parr

   => LibXC Density Thresholds  <==

    XC_HYB_GGA_XC_B3LYP:  1.00E-15

   => Molecular Quadrature <=

    Radial Scheme          =       TREUTLER
    Pruning Scheme         =           NONE
    Nuclear Scheme         =       TREUTLER

    Blocking Scheme        =         OCTREE
    BS radius alpha        =              1
    Pruning alpha          =              1
    Radial Points          =             75
    Spherical Points       =            302
    Total Points           =          42931
    Total Blocks           =            422
    Max Points             =            255
    Max Functions          =             36
    Weights Tolerance      =       1.00E-15

  -Total Gradient:
     Atom            X                  Y                   Z
    ------   -----------------  -----------------  -----------------
       1       -0.000000000000     0.000000000000    -0.000049890790
       2        0.000000000000     0.000000000000     0.000054494388

*** tstop() called on Joses-MacBook-Pro-2.local at Thu Jul 17 15:05:04 2025
Module time:
	user time   =       2.49 seconds =       0.04 minutes
	system time =       1.20 seconds =       0.02 minutes
	total time  =          0 seconds =       0.00 minutes
Total time:
	user time   =     188.00 seconds =       3.13 minutes
	system time =      54.98 seconds =       0.92 minutes
	total time  =         23 seconds =       0.38 minutes

    			-----------------------------------------

    			 OPTKING 3.0: for geometry optimizations

    			     By R.A. King, Bethel University

    			        with contributions from

    			    A.V. Copan, J. Cayton, A. Heide

    			-----------------------------------------

	                            ===> Fragment 1 <==

	 Z (Atomic Numbers)          Masses                          Geom
	      12.000000            23.985042          0.00000000  0.00000000  2.74424520
	      13.000000            26.981539          0.00000000  0.00000000 -2.43947673

	 - Coordinate -           - BOHR/RAD -       - ANG/DEG -
	 R(1,2)           =         5.183722           2.743108

	        --- Internal Coordinate Step in ANG or DEG, aJ/ANG or AJ/DEG ---
	-------------------------------------------------------------------------------
	           Coordinate      Previous         Force          Change          New
	           ----------      --------        ------          ------        ------
	               R(1,2)       2.74311        0.00043        0.00082       2.74392
	-------------------------------------------------------------------------------

	                                 ==> Convergence Check <==

	Measures of convergence in internal coordinates in au.

	Criteria marked as inactive (o), active & met (*), and active & unmet ( ).

	----------------------------------------------------------------------------------------------
	   Step    Total Energy     Delta E     Max Force     RMS Force      Max Disp      RMS Disp
	----------------------------------------------------------------------------------------------
	  Convergence Criteria     1.00e-06 *    3.00e-04 *             o    1.20e-03 *             o
	----------------------------------------------------------------------------------------------
	    16    -442.21721399   -4.10e-07 *    5.22e-05 *    5.22e-05 o    1.54e-03      1.54e-03 o  ~
	----------------------------------------------------------------------------------------------

Next Geometry in Ang
	Fragment 1 (Ang)

	   Mg   0.0000000000   0.0000000000   1.4525998808
	   Al   0.0000000000   0.0000000000  -1.2913233555

    Final optimized geometry and variables:
    Molecular point group: c2v
    Full point group: C_inf_v

    Geometry (in Angstrom), charge = 1, multiplicity = 3:

    MG           0.000000000000     0.000000000000     1.452192017782
    AL           0.000000000000     0.000000000000    -1.290915492451

    Psi4 stopped on: Thursday, 17 July 2025 03:05PM
    Psi4 wall time for execution: 0:00:23.43

*** Psi4 exiting successfully. Buy a developer a beer!
