                               Psi4 1.9.1 release

  ==> Input File <==

--------------------------------------------------------------------------
molecule {
1 3
Li   0.00000        0.60000        0.00000
Si   0.00000       -0.60000        0.00000
}

set {
basis              cc-pvdz
reference          uks
maxiter            500
geom_maxiter       500
DAMPING_PERCENTAGE 1
guess              SAP
}

optimize('b3lyp')
--------------------------------------------------------------------------

    Molecular point group: c2v
  Charge       = 1
  Multiplicity = 3
  Basis Set: CC-PVDZ
    Blend: CC-PVDZ
  Basis Set: (CC-PVDZ AUX)
    Blend: CC-PVDZ-JKFIT + DEF2-UNIVERSAL-JKFIT
  @DF-UKS Final Energy:  -296.25790017719959
    Total Energy =                       -296.2579001771995877
 Dipole X            :          0.0000000            0.0000000            0.0000000
 Dipole Y            :          0.0000000            0.0000000            0.0000000
 Dipole Z            :          1.6324023           -0.9262567            0.7061456
 Magnitude           :                                                    0.7061456
    Molecular point group: c2v
  Basis Set: CC-PVDZ
    Blend: CC-PVDZ
  Basis Set: (CC-PVDZ AUX)
    Blend: CC-PVDZ-JKFIT + DEF2-UNIVERSAL-JKFIT
  Basis Set: CC-PVDZ
    Blend: CC-PVDZ
  Basis Set: (CC-PVDZ AUX)
    Blend: CC-PVDZ-JKFIT + DEF2-UNIVERSAL-JKFIT
  @DF-UKS Final Energy:  -296.34343659642184
    Total Energy =                       -296.3434365964218387
  Basis Set: CC-PVDZ
    Blend: CC-PVDZ
  Basis Set: (CC-PVDZ AUX)
    Blend: CC-PVDZ-JKFIT + DEF2-UNIVERSAL-JKFIT
  Basis Set: CC-PVDZ
    Blend: CC-PVDZ
  @DF-UKS Final Energy:  -296.44312537572995
    Total Energy =                       -296.4431253757299487
  @DF-UKS Final Energy:  -296.55575137338292
    Total Energy =                       -296.5557513733829182
  @DF-UKS Final Energy:  -296.61460074075734
    Total Energy =                       -296.6146007407573961
  @DF-UKS Final Energy:  -296.64368533120705
    Total Energy =                       -296.6436853312070525
  @DF-UKS Final Energy:  -296.65820807300764
    Total Energy =                       -296.6582080730076427
  @DF-UKS Final Energy:  -296.66536259863989
    Total Energy =                       -296.6653625986398879
  @DF-UKS Final Energy:  -296.66876286336628
    Total Energy =                       -296.6687628633662825
  @DF-UKS Final Energy:  -296.67030073197890
    Total Energy =                       -296.6703007319788981
  @DF-UKS Final Energy:  -296.67094253945299
    Total Energy =                       -296.6709425394529944
  @DF-UKS Final Energy:  -296.67118064597764
    Total Energy =                       -296.6711806459776426
  @DF-UKS Final Energy:  -296.67123918485271
    Total Energy =                       -296.6712391848526522
  @DF-UKS Final Energy:  -296.67126173016936
    Total Energy =                       -296.6712617301693058
  @DF-UKS Final Energy:  -296.67126648064828
    Total Energy =                       -296.6712664806482849
  Basis Set: (CC-PVDZ AUX)
    Blend: CC-PVDZ-JKFIT + DEF2-UNIVERSAL-JKFIT
  Basis Set: CC-PVDZ
    Blend: CC-PVDZ
  Basis Set: (CC-PVDZ AUX)
    Blend: CC-PVDZ-JKFIT + DEF2-UNIVERSAL-JKFIT
  @DF-UKS Final Energy:  -296.67126751361997
    Total Energy =                       -296.6712675136199664
  Basis Set: CC-PVDZ
    Blend: CC-PVDZ
  Basis Set: (CC-PVDZ AUX)
    Blend: CC-PVDZ-JKFIT + DEF2-UNIVERSAL-JKFIT
  Charge       = 1
  Multiplicity = 3
  Basis Set: CC-PVDZ
    Blend: CC-PVDZ
  Basis Set: (CC-PVDZ AUX)
    Blend: CC-PVDZ-JKFIT + DEF2-UNIVERSAL-JKFIT

    Orbital Energies [Eh]
    ---------------------

    Alpha Occupied:

       1A1   -66.346541     2A1    -5.488128     3A1    -3.849941
       1B1    -3.845937     1B2    -3.845937     4A1    -2.337454
       5A1    -0.628048     2B2    -0.357973     2B1    -0.357973

    Alpha Virtual:

       6A1    -0.327707     7A1    -0.227712     3B2    -0.181307
       3B1    -0.181307     8A1    -0.139636     9A1    -0.077892
       4B1    -0.064564     4B2    -0.064564    10A1    -0.048136
       5B2     0.040060     5B1     0.040060    11A1     0.058829
       1A2     0.058829    12A1     0.071656     6B2     0.162543
       6B1     0.162543    13A1     0.177402     2A2     0.177407
      14A1     0.188027    15A1     0.208066     7B1     0.253631
       7B2     0.253631    16A1     0.399566

    Beta Occupied:

       1A1   -66.340388     2A1    -5.481189     3A1    -3.846453
       1B1    -3.832791     1B2    -3.832791     4A1    -2.337418
       5A1    -0.564320

    Beta Virtual:

       6A1    -0.314479     2B2    -0.246508     2B1    -0.246508
       7A1    -0.227387     3B2    -0.173938     3B1    -0.173938
       8A1    -0.135747     9A1    -0.072869     4B2    -0.062100
       4B1    -0.062100    10A1    -0.044726     5B1     0.049514
       5B2     0.049514     1A2     0.061466    11A1     0.061479
      12A1     0.077189     6B1     0.201057     6B2     0.201057
      13A1     0.206876    14A1     0.218185    15A1     0.254926
       2A2     0.254931     7B1     0.287208     7B2     0.287208
      16A1     0.419835

    Final Occupation by Irrep:
             A1    A2    B1    B2
    DOCC [     5,    0,    1,    1 ]
    SOCC [     0,    0,    1,    1 ]
    NA   [     5,    0,    2,    2 ]
    NB   [     5,    0,    1,    1 ]

  @DF-UKS Final Energy:  -296.67126771566626

   => Energetics <=

    Nuclear Repulsion Energy =              7.0438963044007172
    One-Electron Energy =                -421.1999239383005715
    Two-Electron Energy =                 135.6162986966346580
    DFT Exchange-Correlation Energy =     -18.1315387784010547
    Empirical Dispersion Energy =           0.0000000000000000
    VV10 Nonlocal Energy =                  0.0000000000000000
    Total Energy =                       -296.6712677156662608

  UHF NO Occupations:
  HONO-2 :    5 A1 1.9971737
  HONO-1 :    2 B1 1.0000000
  HONO-0 :    2 B2 1.0000000
  LUNO+0 :    6 A1 0.0028263
  LUNO+1 :    7 A1 0.0000001
  LUNO+2 :    8 A1 0.0000000
  LUNO+3 :    3 B1 0.0000000

Computation Completed

Properties will be evaluated at   0.000000,   0.000000,   0.000000 [a0]

Properties computed using the SCF density matrix

 Multipole Moments:

 ------------------------------------------------------------------------------------
     Multipole            Electronic (a.u.)      Nuclear  (a.u.)        Total (a.u.)
 ------------------------------------------------------------------------------------

 L = 1.  Multiply by 2.5417464519 to convert [e a0] to [Debye]
 Dipole X            :          0.0000000            0.0000000            0.0000000
 Dipole Y            :          0.0000000            0.0000000            0.0000000
 Dipole Z            :          6.3259455           -2.4354969            3.8904486
 Magnitude           :                                                    3.8904486

 ------------------------------------------------------------------------------------

*** tstop() called on Joses-MacBook-Pro-2.local at Thu Jul 17 12:54:11 2025
Module time:
	user time   =       3.50 seconds =       0.06 minutes
	system time =       2.58 seconds =       0.04 minutes
	total time  =          1 seconds =       0.02 minutes
Total time:
	user time   =      75.12 seconds =       1.25 minutes
	system time =      92.94 seconds =       1.55 minutes
	total time  =         16 seconds =       0.27 minutes

*** tstart() called on Joses-MacBook-Pro-2.local
*** at Thu Jul 17 12:54:11 2025

         ------------------------------------------------------------
                                   SCF GRAD
                          Rob Parrish, Justin Turney,
                       Andy Simmonett, and Alex Sokolov
         ------------------------------------------------------------

  ==> Geometry <==

    Molecular point group: c2v
    Full point group: C_inf_v

    Geometry (in Angstrom), charge = 1, multiplicity = 3:

       Center              X                  Y                   Z               Mass
    ------------   -----------------  -----------------  -----------------  -----------------
         LI           0.000000000000     0.000000000000     2.522650956190     7.016003436600
         SI           0.000000000000     0.000000000000    -0.632625880332    27.976926534650

  Nuclear repulsion =    7.043896304400717

  ==> Basis Set <==

  Basis Set: CC-PVDZ
    Blend: CC-PVDZ
    Number of shells: 14
    Number of basis functions: 32
    Number of Cartesian functions: 34
    Spherical Harmonics?: true
    Max angular momentum: 2

  ==> DFJKGrad: Density-Fitted SCF Gradients <==

    Gradient:                    1
    J tasked:                  Yes
    K tasked:                  Yes
    wK tasked:                  No
    OpenMP threads:              1
    Integrals threads:           1
    Memory [MiB]:              375
    Schwarz Cutoff:          1E-12
    Fitting Condition:       1E-10

   => Auxiliary Basis Set <=

  Basis Set: (CC-PVDZ AUX)
    Blend: CC-PVDZ-JKFIT + DEF2-UNIVERSAL-JKFIT
    Number of shells: 53
    Number of basis functions: 163
    Number of Cartesian functions: 190
    Spherical Harmonics?: true
    Max angular momentum: 3

  ==> DFT Potential <==

   => LibXC <=

    Version 6.2.2
    S. Lehtola, C. Steigemann, M. J.T. Oliveira, and M. A.L. Marques.,  SoftwareX 7, 1â€“5 (2018) (10.1016/j.softx.2017.11.002)

   => Composite Functional: B3LYP <=

    B3LYP Hyb-GGA Exchange-Correlation Functional

    P. J. Stephens, F. J. Devlin, C. F. Chabalowski, and M. J. Frisch.,  J. Phys. Chem. 98, 11623 (1994) (10.1021/j100096a001)

    Deriv               =              1
    GGA                 =           TRUE
    Meta                =          FALSE

    Exchange Hybrid     =           TRUE
    MP2 Hybrid          =          FALSE

   => Exchange Functionals <=

    0.0800   Slater exchange
    0.7200         Becke 88

   => Exact (HF) Exchange <=

    0.2000               HF

   => Correlation Functionals <=

    0.1900   Vosko, Wilk & Nusair (VWN5_RPA)
    0.8100   Lee, Yang & Parr

   => LibXC Density Thresholds  <==

    XC_HYB_GGA_XC_B3LYP:  1.00E-15

   => Molecular Quadrature <=

    Radial Scheme          =       TREUTLER
    Pruning Scheme         =           NONE
    Nuclear Scheme         =       TREUTLER

    Blocking Scheme        =         OCTREE
    BS radius alpha        =              1
    Pruning alpha          =              1
    Radial Points          =             75
    Spherical Points       =            302
    Total Points           =          44151
    Total Blocks           =            447
    Max Points             =            253
    Max Functions          =             32
    Weights Tolerance      =       1.00E-15

  -Total Gradient:
     Atom            X                  Y                   Z
    ------   -----------------  -----------------  -----------------
       1        0.000000000000    -0.000000000000    -0.000001990890
       2       -0.000000000000     0.000000000000     0.000025408110

*** tstop() called on Joses-MacBook-Pro-2.local at Thu Jul 17 12:54:11 2025
Module time:
	user time   =       0.82 seconds =       0.01 minutes
	system time =       1.32 seconds =       0.02 minutes
	total time  =          0 seconds =       0.00 minutes
Total time:
	user time   =      75.96 seconds =       1.27 minutes
	system time =      94.26 seconds =       1.57 minutes
	total time  =         16 seconds =       0.27 minutes

    			-----------------------------------------

    			 OPTKING 3.0: for geometry optimizations

    			     By R.A. King, Bethel University

    			        with contributions from

    			    A.V. Copan, J. Cayton, A. Heide

    			-----------------------------------------

	                            ===> Fragment 1 <==

	 Z (Atomic Numbers)          Masses                          Geom
	       3.000000             7.016003          0.00000000  0.00000000  4.76711942
	      14.000000            27.976927          0.00000000  0.00000000 -1.19548965

	 - Coordinate -           - BOHR/RAD -       - ANG/DEG -
	 R(1,2)           =         5.962609           3.155277

	        --- Internal Coordinate Step in ANG or DEG, aJ/ANG or AJ/DEG ---
	-------------------------------------------------------------------------------
	           Coordinate      Previous         Force          Change          New
	           ----------      --------        ------          ------        ------
	               R(1,2)       3.15528        0.00011        0.00379       3.15907
	-------------------------------------------------------------------------------

	                                 ==> Convergence Check <==

	Measures of convergence in internal coordinates in au.

	Criteria marked as inactive (o), active & met (*), and active & unmet ( ).

	----------------------------------------------------------------------------------------------
	   Step    Total Energy     Delta E     Max Force     RMS Force      Max Disp      RMS Disp
	----------------------------------------------------------------------------------------------
	  Convergence Criteria     1.00e-06 *    3.00e-04 *             o    1.20e-03 *             o
	----------------------------------------------------------------------------------------------
	    17    -296.67126772   -2.02e-07 *    1.37e-05 *    1.37e-05 o    7.17e-03      7.17e-03 o  ~
	----------------------------------------------------------------------------------------------

Next Geometry in Ang
	Fragment 1 (Ang)

	   Li   0.0000000000   0.0000000000   2.5245483654
	   Si   0.0000000000   0.0000000000  -0.6345232896

    Final optimized geometry and variables:
    Molecular point group: c2v
    Full point group: C_inf_v

    Geometry (in Angstrom), charge = 1, multiplicity = 3:

    LI           0.000000000000     0.000000000000     2.522650956190
    SI           0.000000000000     0.000000000000    -0.632625880332

    Psi4 stopped on: Thursday, 17 July 2025 12:54PM
    Psi4 wall time for execution: 0:00:17.30

*** Psi4 exiting successfully. Buy a developer a beer!
