                               Psi4 1.9.1 release

  ==> Input File <==

--------------------------------------------------------------------------
molecule {
1 3
Li   0.00000        0.60000        0.00000
Ar   0.00000       -0.60000        0.00000
}

set {
basis              cc-pvdz
reference          uks
maxiter            500
geom_maxiter       500
DAMPING_PERCENTAGE 1
guess              SAP
}

optimize('b3lyp')
--------------------------------------------------------------------------

    Molecular point group: c2v
  Charge       = 1
  Multiplicity = 3
  Basis Set: CC-PVDZ
    Blend: CC-PVDZ
  Basis Set: (CC-PVDZ AUX)
    Blend: CC-PVDZ-JKFIT + DEF2-UNIVERSAL-JKFIT
  @DF-UKS Final Energy:  -533.90147002015669
    Total Energy =                       -533.9014700201566939
 Dipole X            :          0.0000000            0.0000000            0.0000000
 Dipole Y            :          0.0000000            0.0000000            0.0000000
 Dipole Z            :         -0.6850339           -0.3089754           -0.9940093
 Magnitude           :                                                    0.9940093
    Molecular point group: c2v
  Basis Set: CC-PVDZ
    Blend: CC-PVDZ
  Basis Set: (CC-PVDZ AUX)
    Blend: CC-PVDZ-JKFIT + DEF2-UNIVERSAL-JKFIT
  Basis Set: CC-PVDZ
    Blend: CC-PVDZ
  Basis Set: (CC-PVDZ AUX)
    Blend: CC-PVDZ-JKFIT + DEF2-UNIVERSAL-JKFIT
  @DF-UKS Final Energy:  -534.04407969016734
    Total Energy =                       -534.0440796901673366
  Basis Set: CC-PVDZ
    Blend: CC-PVDZ
  Basis Set: (CC-PVDZ AUX)
    Blend: CC-PVDZ-JKFIT + DEF2-UNIVERSAL-JKFIT
  Basis Set: CC-PVDZ
    Blend: CC-PVDZ
  @DF-UKS Final Energy:  -534.16535707195385
    Total Energy =                       -534.1653570719539630
  @DF-UKS Final Energy:  -534.24969595311404
    Total Energy =                       -534.2496959531140419
  @DF-UKS Final Energy:  -534.31551093524808
    Total Energy =                       -534.3155109352480849
  @DF-UKS Final Energy:  -534.36423319439598
    Total Energy =                       -534.3642331943959789
  @DF-UKS Final Energy:  -534.40858532097081
    Total Energy =                       -534.4085853209708148
  @DF-UKS Final Energy:  -534.41798271527534
    Total Energy =                       -534.4179827152753433
  @DF-UKS Final Energy:  -534.44779181832848
    Total Energy =                       -534.4477918183284828
  @DF-UKS Final Energy:  -534.45095476506776
    Total Energy =                       -534.4509547650677632
  @DF-UKS Final Energy:  -534.46279693577321
    Total Energy =                       -534.4627969357732127
  @DF-UKS Final Energy:  -534.46355047304701
    Total Energy =                       -534.4635504730470075
  @DF-UKS Final Energy:  -534.46782895690717
    Total Energy =                       -534.4678289569071694
  @DF-UKS Final Energy:  -534.46795525024675
    Total Energy =                       -534.4679552502467459
  @DF-UKS Final Energy:  -534.46906515995659
    Total Energy =                       -534.4690651599565854
  @DF-UKS Final Energy:  -534.46919388693482
    Total Energy =                       -534.4691938869348178
  Basis Set: (CC-PVDZ AUX)
    Blend: CC-PVDZ-JKFIT + DEF2-UNIVERSAL-JKFIT
  Basis Set: CC-PVDZ
    Blend: CC-PVDZ
  Basis Set: (CC-PVDZ AUX)
    Blend: CC-PVDZ-JKFIT + DEF2-UNIVERSAL-JKFIT
  @DF-UKS Final Energy:  -534.46920483226131
    Total Energy =                       -534.4692048322613118
  Basis Set: CC-PVDZ
    Blend: CC-PVDZ
  Basis Set: (CC-PVDZ AUX)
    Blend: CC-PVDZ-JKFIT + DEF2-UNIVERSAL-JKFIT
  Charge       = 1
  Multiplicity = 3
  Basis Set: CC-PVDZ
    Blend: CC-PVDZ
  Basis Set: (CC-PVDZ AUX)
    Blend: CC-PVDZ-JKFIT + DEF2-UNIVERSAL-JKFIT

    Orbital Energies [Eh]
    ---------------------

    Alpha Occupied:

       1A1  -115.592322     2A1   -11.618596     3A1    -9.191297
       1B1    -9.161221     1B2    -9.161221     4A1    -2.178843
       5A1    -1.415197     6A1    -0.892620     2B1    -0.827841
       2B2    -0.827841     7A1    -0.282208

    Alpha Virtual:

       8A1    -0.156934     3B1    -0.152186     3B2    -0.152186
       9A1    -0.084587     4B2    -0.038824     4B1    -0.038824
      10A1    -0.012499    11A1     0.066801     5B1     0.080049
       5B2     0.080049     1A2     0.098299    12A1     0.098299
      13A1     0.269940     6B2     0.272234     6B1     0.272234
      14A1     0.371755     7B2     0.380459     7B1     0.380459
      15A1     0.427904     2A2     0.427950    16A1     0.495555

    Beta Occupied:

       1A1  -115.583143     2A1   -11.609784     3A1    -9.162606
       1B2    -9.155870     1B1    -9.155870     4A1    -2.172745
       5A1    -1.351654     2B2    -0.807771     2B1    -0.807771

    Beta Virtual:

       6A1    -0.700379     7A1    -0.194766     8A1    -0.141051
       3B1    -0.120647     3B2    -0.120647     9A1    -0.052463
       4B2    -0.028719     4B1    -0.028719    10A1    -0.007033
      11A1     0.100612     5B1     0.117145     5B2     0.117145
       1A2     0.132241    12A1     0.132246     6B2     0.280527
       6B1     0.280527    13A1     0.312120    14A1     0.438518
       2A2     0.438564     7B1     0.447720     7B2     0.447720
      15A1     0.462425    16A1     0.524374

    Final Occupation by Irrep:
             A1    A2    B1    B2
    DOCC [     5,    0,    2,    2 ]
    SOCC [     2,    0,    0,    0 ]
    NA   [     7,    0,    2,    2 ]
    NB   [     5,    0,    2,    2 ]

  @DF-UKS Final Energy:  -534.46920496307780

   => Energetics <=

    Nuclear Repulsion Energy =              7.4565553225459373
    One-Electron Energy =                -744.3648896705116158
    Two-Electron Energy =                 228.5074034499413074
    DFT Exchange-Correlation Energy =     -26.0682740650534477
    Empirical Dispersion Energy =           0.0000000000000000
    VV10 Nonlocal Energy =                  0.0000000000000000
    Total Energy =                       -534.4692049630778001

  UHF NO Occupations:
  HONO-2 :    5 A1 1.9991755
  HONO-1 :    6 A1 1.0000000
  HONO-0 :    7 A1 1.0000000
  LUNO+0 :    8 A1 0.0008245
  LUNO+1 :    3 B2 0.0000303
  LUNO+2 :    3 B1 0.0000303
  LUNO+3 :    9 A1 0.0000007

Computation Completed

Properties will be evaluated at   0.000000,   0.000000,   0.000000 [a0]

Properties computed using the SCF density matrix

 Multipole Moments:

 ------------------------------------------------------------------------------------
     Multipole            Electronic (a.u.)      Nuclear  (a.u.)        Total (a.u.)
 ------------------------------------------------------------------------------------

 L = 1.  Multiply by 2.5417464519 to convert [e a0] to [Debye]
 Dipole X            :          0.0000000            0.0000000            0.0000000
 Dipole Y            :          0.0000000            0.0000000            0.0000000
 Dipole Z            :          1.8716690           -0.9867322            0.8849368
 Magnitude           :                                                    0.8849368

 ------------------------------------------------------------------------------------

*** tstop() called on Joses-MacBook-Pro-2.local at Thu Jul 17 12:58:38 2025
Module time:
	user time   =       2.30 seconds =       0.04 minutes
	system time =       3.29 seconds =       0.05 minutes
	total time  =          0 seconds =       0.00 minutes
Total time:
	user time   =      78.66 seconds =       1.31 minutes
	system time =      95.49 seconds =       1.59 minutes
	total time  =         16 seconds =       0.27 minutes

*** tstart() called on Joses-MacBook-Pro-2.local
*** at Thu Jul 17 12:58:38 2025

         ------------------------------------------------------------
                                   SCF GRAD
                          Rob Parrish, Justin Turney,
                       Andy Simmonett, and Alex Sokolov
         ------------------------------------------------------------

  ==> Geometry <==

    Molecular point group: c2v
    Full point group: C_inf_v

    Geometry (in Angstrom), charge = 1, multiplicity = 3:

       Center              X                  Y                   Z               Mass
    ------------   -----------------  -----------------  -----------------  -----------------
         LI           0.000000000000     0.000000000000     3.259942427031     7.016003436600
         AR           0.000000000000     0.000000000000    -0.572332415721    39.962383123700

  Nuclear repulsion =    7.456555322545937

  ==> Basis Set <==

  Basis Set: CC-PVDZ
    Blend: CC-PVDZ
    Number of shells: 14
    Number of basis functions: 32
    Number of Cartesian functions: 34
    Spherical Harmonics?: true
    Max angular momentum: 2

  ==> DFJKGrad: Density-Fitted SCF Gradients <==

    Gradient:                    1
    J tasked:                  Yes
    K tasked:                  Yes
    wK tasked:                  No
    OpenMP threads:              1
    Integrals threads:           1
    Memory [MiB]:              375
    Schwarz Cutoff:          1E-12
    Fitting Condition:       1E-10

   => Auxiliary Basis Set <=

  Basis Set: (CC-PVDZ AUX)
    Blend: CC-PVDZ-JKFIT + DEF2-UNIVERSAL-JKFIT
    Number of shells: 53
    Number of basis functions: 163
    Number of Cartesian functions: 190
    Spherical Harmonics?: true
    Max angular momentum: 3

  ==> DFT Potential <==

   => LibXC <=

    Version 6.2.2
    S. Lehtola, C. Steigemann, M. J.T. Oliveira, and M. A.L. Marques.,  SoftwareX 7, 1â€“5 (2018) (10.1016/j.softx.2017.11.002)

   => Composite Functional: B3LYP <=

    B3LYP Hyb-GGA Exchange-Correlation Functional

    P. J. Stephens, F. J. Devlin, C. F. Chabalowski, and M. J. Frisch.,  J. Phys. Chem. 98, 11623 (1994) (10.1021/j100096a001)

    Deriv               =              1
    GGA                 =           TRUE
    Meta                =          FALSE

    Exchange Hybrid     =           TRUE
    MP2 Hybrid          =          FALSE

   => Exchange Functionals <=

    0.0800   Slater exchange
    0.7200         Becke 88

   => Exact (HF) Exchange <=

    0.2000               HF

   => Correlation Functionals <=

    0.1900   Vosko, Wilk & Nusair (VWN5_RPA)
    0.8100   Lee, Yang & Parr

   => LibXC Density Thresholds  <==

    XC_HYB_GGA_XC_B3LYP:  1.00E-15

   => Molecular Quadrature <=

    Radial Scheme          =       TREUTLER
    Pruning Scheme         =           NONE
    Nuclear Scheme         =       TREUTLER

    Blocking Scheme        =         OCTREE
    BS radius alpha        =              1
    Pruning alpha          =              1
    Radial Points          =             75
    Spherical Points       =            302
    Total Points           =          44387
    Total Blocks           =            452
    Max Points             =            256
    Max Functions          =             32
    Weights Tolerance      =       1.00E-15

  -Total Gradient:
     Atom            X                  Y                   Z
    ------   -----------------  -----------------  -----------------
       1        0.000000000000     0.000000000000    -0.000006094069
       2       -0.000000000000     0.000000000000     0.000003746710

*** tstop() called on Joses-MacBook-Pro-2.local at Thu Jul 17 12:58:39 2025
Module time:
	user time   =       0.94 seconds =       0.02 minutes
	system time =       1.53 seconds =       0.03 minutes
	total time  =          1 seconds =       0.02 minutes
Total time:
	user time   =      79.60 seconds =       1.33 minutes
	system time =      97.02 seconds =       1.62 minutes
	total time  =         17 seconds =       0.28 minutes

    			-----------------------------------------

    			 OPTKING 3.0: for geometry optimizations

    			     By R.A. King, Bethel University

    			        with contributions from

    			    A.V. Copan, J. Cayton, A. Heide

    			-----------------------------------------

	                            ===> Fragment 1 <==

	 Z (Atomic Numbers)          Masses                          Geom
	       3.000000             7.016003          0.00000000  0.00000000  6.16039837
	      18.000000            39.962383          0.00000000  0.00000000 -1.08155152

	 - Coordinate -           - BOHR/RAD -       - ANG/DEG -
	 R(1,2)           =         7.241950           3.832275

	        --- Internal Coordinate Step in ANG or DEG, aJ/ANG or AJ/DEG ---
	-------------------------------------------------------------------------------
	           Coordinate      Previous         Force          Change          New
	           ----------      --------        ------          ------        ------
	               R(1,2)       3.83227        0.00004        0.00039       3.83267
	-------------------------------------------------------------------------------

	                                 ==> Convergence Check <==

	Measures of convergence in internal coordinates in au.

	Criteria marked as inactive (o), active & met (*), and active & unmet ( ).

	----------------------------------------------------------------------------------------------
	   Step    Total Energy     Delta E     Max Force     RMS Force      Max Disp      RMS Disp
	----------------------------------------------------------------------------------------------
	  Convergence Criteria     1.00e-06 *    3.00e-04 *             o    1.20e-03 *             o
	----------------------------------------------------------------------------------------------
	    18    -534.46920496   -1.31e-07 *    4.92e-06 *    4.92e-06 o    7.38e-04 *    7.38e-04 o  ~
	----------------------------------------------------------------------------------------------

Next Geometry in Ang
	Fragment 1 (Ang)

	   Li   0.0000000000   0.0000000000   3.2601376301
	   Ar   0.0000000000   0.0000000000  -0.5725276188

    Final optimized geometry and variables:
    Molecular point group: c2v
    Full point group: C_inf_v

    Geometry (in Angstrom), charge = 1, multiplicity = 3:

    LI           0.000000000000     0.000000000000     3.259942427031
    AR           0.000000000000     0.000000000000    -0.572332415721

    Psi4 stopped on: Thursday, 17 July 2025 12:58PM
    Psi4 wall time for execution: 0:00:17.65

*** Psi4 exiting successfully. Buy a developer a beer!
