                               Psi4 1.9.1 release

  ==> Input File <==

--------------------------------------------------------------------------
molecule {
1 3
Ne   0.00000        0.60000        0.00000
P   0.00000       -0.60000        0.00000
}

set {
basis              cc-pvdz
reference          uks
maxiter            500
geom_maxiter       500
DAMPING_PERCENTAGE 1
guess              SAP
}

optimize('b3lyp')
--------------------------------------------------------------------------

    Molecular point group: c2v
  Charge       = 1
  Multiplicity = 3
  Basis Set: CC-PVDZ
    Blend: CC-PVDZ
  Basis Set: (CC-PVDZ AUX)
    Blend: CC-PVDZ-JKFIT
  @DF-UKS Final Energy:  -469.34907059875138
    Total Energy =                       -469.3490705987513820
 Dipole X            :          0.0000000            0.0000000            0.0000000
 Dipole Y            :          0.0000000            0.0000000            0.0000000
 Dipole Z            :          0.1647325            0.4383075            0.6030400
 Magnitude           :                                                    0.6030400
    Molecular point group: c2v
  Basis Set: CC-PVDZ
    Blend: CC-PVDZ
  Basis Set: (CC-PVDZ AUX)
    Blend: CC-PVDZ-JKFIT
  Basis Set: CC-PVDZ
    Blend: CC-PVDZ
  Basis Set: (CC-PVDZ AUX)
    Blend: CC-PVDZ-JKFIT
  @DF-UKS Final Energy:  -469.57366398681955
    Total Energy =                       -469.5736639868195539
  Basis Set: CC-PVDZ
    Blend: CC-PVDZ
  Basis Set: (CC-PVDZ AUX)
    Blend: CC-PVDZ-JKFIT
  Basis Set: CC-PVDZ
    Blend: CC-PVDZ
  @DF-UKS Final Energy:  -469.69719527311571
    Total Energy =                       -469.6971952731157103
  @DF-UKS Final Energy:  -469.76197564992015
    Total Energy =                       -469.7619756499201458
  @DF-UKS Final Energy:  -469.79447273702328
    Total Energy =                       -469.7944727370232840
  @DF-UKS Final Energy:  -469.80962713725376
    Total Energy =                       -469.8096271372537558
  @DF-UKS Final Energy:  -469.81608733546307
    Total Energy =                       -469.8160873354631235
  @DF-UKS Final Energy:  -469.81801387215052
    Total Energy =                       -469.8180138721505159
  @DF-UKS Final Energy:  -469.81892073820683
    Total Energy =                       -469.8189207382068275
  @DF-UKS Final Energy:  -469.81916434854907
    Total Energy =                       -469.8191643485490090
  @DF-UKS Final Energy:  -469.81925723291846
    Total Energy =                       -469.8192572329185168
  @DF-UKS Final Energy:  -469.81927368980990
    Total Energy =                       -469.8192736898098474
  Basis Set: (CC-PVDZ AUX)
    Blend: CC-PVDZ-JKFIT
  Basis Set: CC-PVDZ
    Blend: CC-PVDZ
  Basis Set: (CC-PVDZ AUX)
    Blend: CC-PVDZ-JKFIT
  @DF-UKS Final Energy:  -469.81927717796083
    Total Energy =                       -469.8192771779608279
  Basis Set: CC-PVDZ
    Blend: CC-PVDZ
  Basis Set: (CC-PVDZ AUX)
    Blend: CC-PVDZ-JKFIT
  Charge       = 1
  Multiplicity = 3
  Basis Set: CC-PVDZ
    Blend: CC-PVDZ
  Basis Set: (CC-PVDZ AUX)
    Blend: CC-PVDZ-JKFIT

    Orbital Energies [Eh]
    ---------------------

    Alpha Occupied:

       1A1   -77.514824     2A1   -31.283380     3A1    -6.973052
       4A1    -5.139443     1B2    -5.134543     1B1    -5.134543
       5A1    -1.740120     6A1    -0.936607     2B2    -0.841429
       2B1    -0.841429     7A1    -0.838704     3B1    -0.569679
       3B2    -0.569679

    Alpha Virtual:

       8A1    -0.464996     9A1     0.064216    10A1     0.105985
       1A2     0.111758    11A1     0.111758     4B2     0.114961
       4B1     0.114961     5B2     0.126324     5B1     0.126324
      12A1     0.194602     6B2     1.111122     6B1     1.111122
      13A1     1.208724    14A1     1.809991     7B2     4.417214
       7B1     4.417214    15A1     4.423548    16A1     4.423978
       2A2     4.424138

    Beta Occupied:

       1A1   -77.505040     2A1   -31.283155     3A1    -6.962752
       4A1    -5.133935     1B2    -5.114470     1B1    -5.114470
       5A1    -1.739853     6A1    -0.889786     2B2    -0.840058
       2B1    -0.840058     7A1    -0.798672

    Beta Virtual:

       8A1    -0.437951     3B1    -0.418917     3B2    -0.418917
       9A1     0.091203    10A1     0.127826     4B2     0.167050
       4B1     0.167050     5B2     0.174932     5B1     0.174932
       1A2     0.212026    11A1     0.212026    12A1     0.219638
       6B2     1.112413     6B1     1.112413    13A1     1.209416
      14A1     1.813342     7B2     4.417189     7B1     4.417189
      15A1     4.423306    16A1     4.424878     2A2     4.425039

    Final Occupation by Irrep:
             A1    A2    B1    B2
    DOCC [     7,    0,    2,    2 ]
    SOCC [     0,    0,    1,    1 ]
    NA   [     7,    0,    3,    3 ]
    NB   [     7,    0,    2,    2 ]

  @DF-UKS Final Energy:  -469.81927757905402

   => Energetics <=

    Nuclear Repulsion Energy =             35.4077035425286297
    One-Electron Energy =                -716.3666392751501917
    Two-Electron Energy =                 239.6621049332952396
    DFT Exchange-Correlation Energy =     -28.5224467797277867
    Empirical Dispersion Energy =           0.0000000000000000
    VV10 Nonlocal Energy =                  0.0000000000000000
    Total Energy =                       -469.8192775790540168

  UHF NO Occupations:
  HONO-2 :    7 A1 1.9985204
  HONO-1 :    3 B2 1.0000000
  HONO-0 :    3 B1 1.0000000
  LUNO+0 :    8 A1 0.0014796
  LUNO+1 :    9 A1 0.0000706
  LUNO+2 :    4 B2 0.0000020
  LUNO+3 :    4 B1 0.0000020

Computation Completed

Properties will be evaluated at   0.000000,   0.000000,   0.000000 [a0]

Properties computed using the SCF density matrix

 Multipole Moments:

 ------------------------------------------------------------------------------------
     Multipole            Electronic (a.u.)      Nuclear  (a.u.)        Total (a.u.)
 ------------------------------------------------------------------------------------

 L = 1.  Multiply by 2.5417464519 to convert [e a0] to [Debye]
 Dipole X            :          0.0000000            0.0000000            0.0000000
 Dipole Y            :          0.0000000            0.0000000            0.0000000
 Dipole Z            :         -2.0107949            0.8188273           -1.1919676
 Magnitude           :                                                    1.1919676

 ------------------------------------------------------------------------------------

*** tstop() called on Joses-MacBook-Pro-2.local at Thu Jul 17 14:41:35 2025
Module time:
	user time   =       3.38 seconds =       0.06 minutes
	system time =       3.52 seconds =       0.06 minutes
	total time  =          1 seconds =       0.02 minutes
Total time:
	user time   =      61.17 seconds =       1.02 minutes
	system time =      79.59 seconds =       1.33 minutes
	total time  =         14 seconds =       0.23 minutes

*** tstart() called on Joses-MacBook-Pro-2.local
*** at Thu Jul 17 14:41:35 2025

         ------------------------------------------------------------
                                   SCF GRAD
                          Rob Parrish, Justin Turney,
                       Andy Simmonett, and Alex Sokolov
         ------------------------------------------------------------

  ==> Geometry <==

    Molecular point group: c2v
    Full point group: C_inf_v

    Geometry (in Angstrom), charge = 1, multiplicity = 3:

       Center              X                  Y                   Z               Mass
    ------------   -----------------  -----------------  -----------------  -----------------
         NE           0.000000000000     0.000000000000     1.362405272540    19.992440176200
         P            0.000000000000     0.000000000000    -0.879383198863    30.973761998420

  Nuclear repulsion =   35.407703542528630

  ==> Basis Set <==

  Basis Set: CC-PVDZ
    Blend: CC-PVDZ
    Number of shells: 14
    Number of basis functions: 32
    Number of Cartesian functions: 34
    Spherical Harmonics?: true
    Max angular momentum: 2

  ==> DFJKGrad: Density-Fitted SCF Gradients <==

    Gradient:                    1
    J tasked:                  Yes
    K tasked:                  Yes
    wK tasked:                  No
    OpenMP threads:              1
    Integrals threads:           1
    Memory [MiB]:              375
    Schwarz Cutoff:          1E-12
    Fitting Condition:       1E-10

   => Auxiliary Basis Set <=

  Basis Set: (CC-PVDZ AUX)
    Blend: CC-PVDZ-JKFIT
    Number of shells: 60
    Number of basis functions: 182
    Number of Cartesian functions: 211
    Spherical Harmonics?: true
    Max angular momentum: 3

  ==> DFT Potential <==

   => LibXC <=

    Version 6.2.2
    S. Lehtola, C. Steigemann, M. J.T. Oliveira, and M. A.L. Marques.,  SoftwareX 7, 1â€“5 (2018) (10.1016/j.softx.2017.11.002)

   => Composite Functional: B3LYP <=

    B3LYP Hyb-GGA Exchange-Correlation Functional

    P. J. Stephens, F. J. Devlin, C. F. Chabalowski, and M. J. Frisch.,  J. Phys. Chem. 98, 11623 (1994) (10.1021/j100096a001)

    Deriv               =              1
    GGA                 =           TRUE
    Meta                =          FALSE

    Exchange Hybrid     =           TRUE
    MP2 Hybrid          =          FALSE

   => Exchange Functionals <=

    0.0800   Slater exchange
    0.7200         Becke 88

   => Exact (HF) Exchange <=

    0.2000               HF

   => Correlation Functionals <=

    0.1900   Vosko, Wilk & Nusair (VWN5_RPA)
    0.8100   Lee, Yang & Parr

   => LibXC Density Thresholds  <==

    XC_HYB_GGA_XC_B3LYP:  1.00E-15

   => Molecular Quadrature <=

    Radial Scheme          =       TREUTLER
    Pruning Scheme         =           NONE
    Nuclear Scheme         =       TREUTLER

    Blocking Scheme        =         OCTREE
    BS radius alpha        =              1
    Pruning alpha          =              1
    Radial Points          =             75
    Spherical Points       =            302
    Total Points           =          42759
    Total Blocks           =            384
    Max Points             =            254
    Max Functions          =             32
    Weights Tolerance      =       1.00E-15

  -Total Gradient:
     Atom            X                  Y                   Z
    ------   -----------------  -----------------  -----------------
       1        0.000000000000    -0.000000000000    -0.000004914784
       2        0.000000000000     0.000000000000     0.000049291721

*** tstop() called on Joses-MacBook-Pro-2.local at Thu Jul 17 14:41:35 2025
Module time:
	user time   =       1.35 seconds =       0.02 minutes
	system time =       1.18 seconds =       0.02 minutes
	total time  =          0 seconds =       0.00 minutes
Total time:
	user time   =      62.52 seconds =       1.04 minutes
	system time =      80.78 seconds =       1.35 minutes
	total time  =         14 seconds =       0.23 minutes

    			-----------------------------------------

    			 OPTKING 3.0: for geometry optimizations

    			     By R.A. King, Bethel University

    			        with contributions from

    			    A.V. Copan, J. Cayton, A. Heide

    			-----------------------------------------

	                            ===> Fragment 1 <==

	 Z (Atomic Numbers)          Masses                          Geom
	      10.000000            19.992440          0.00000000  0.00000000  2.57457284
	      15.000000            30.973762          0.00000000  0.00000000 -1.66179341

	 - Coordinate -           - BOHR/RAD -       - ANG/DEG -
	 R(1,2)           =         4.236366           2.241788

	        --- Internal Coordinate Step in ANG or DEG, aJ/ANG or AJ/DEG ---
	-------------------------------------------------------------------------------
	           Coordinate      Previous         Force          Change          New
	           ----------      --------        ------          ------        ------
	               R(1,2)       2.24179        0.00022        0.00051       2.24230
	-------------------------------------------------------------------------------

	                                 ==> Convergence Check <==

	Measures of convergence in internal coordinates in au.

	Criteria marked as inactive (o), active & met (*), and active & unmet ( ).

	----------------------------------------------------------------------------------------------
	   Step    Total Energy     Delta E     Max Force     RMS Force      Max Disp      RMS Disp
	----------------------------------------------------------------------------------------------
	  Convergence Criteria     1.00e-06 *    3.00e-04 *             o    1.20e-03 *             o
	----------------------------------------------------------------------------------------------
	    14    -469.81927758   -4.01e-07 *    2.71e-05 *    2.71e-05 o    9.60e-04 *    9.60e-04 o  ~
	----------------------------------------------------------------------------------------------

Next Geometry in Ang
	Fragment 1 (Ang)

	   Ne   0.0000000000   0.0000000000   1.3626592273
	    P   0.0000000000   0.0000000000  -0.8796371536

    Final optimized geometry and variables:
    Molecular point group: c2v
    Full point group: C_inf_v

    Geometry (in Angstrom), charge = 1, multiplicity = 3:

    NE           0.000000000000     0.000000000000     1.362405272540
    P            0.000000000000     0.000000000000    -0.879383198863

    Psi4 stopped on: Thursday, 17 July 2025 02:41PM
    Psi4 wall time for execution: 0:00:15.05

*** Psi4 exiting successfully. Buy a developer a beer!
