                               Psi4 1.9.1 release

  ==> Input File <==

--------------------------------------------------------------------------
molecule {
1 3
Be   0.00000        0.60000        0.00000
Cl   0.00000       -0.60000        0.00000
}

set {
basis              cc-pvdz
reference          uks
maxiter            500
geom_maxiter       500
DAMPING_PERCENTAGE 1
guess              SAP
}

optimize('b3lyp')
--------------------------------------------------------------------------

    Molecular point group: c2v
  Charge       = 1
  Multiplicity = 3
  Basis Set: CC-PVDZ
    Blend: CC-PVDZ
  Basis Set: (CC-PVDZ AUX)
    Blend: CC-PVDZ-JKFIT + DEF2-UNIVERSAL-JKFIT
  @DF-UKS Final Energy:  -474.02690026906947
    Total Energy =                       -474.0269002690695288
 Dipole X            :          0.0000000            0.0000000            0.0000000
 Dipole Y            :          0.0000000            0.0000000            0.0000000
 Dipole Z            :         -0.0407761           -0.6873853           -0.7281614
 Magnitude           :                                                    0.7281614
    Molecular point group: c2v
  Basis Set: CC-PVDZ
    Blend: CC-PVDZ
  Basis Set: (CC-PVDZ AUX)
    Blend: CC-PVDZ-JKFIT + DEF2-UNIVERSAL-JKFIT
  Basis Set: CC-PVDZ
    Blend: CC-PVDZ
  Basis Set: (CC-PVDZ AUX)
    Blend: CC-PVDZ-JKFIT + DEF2-UNIVERSAL-JKFIT
  @DF-UKS Final Energy:  -474.21270598816994
    Total Energy =                       -474.2127059881699438
  Basis Set: CC-PVDZ
    Blend: CC-PVDZ
  Basis Set: (CC-PVDZ AUX)
    Blend: CC-PVDZ-JKFIT + DEF2-UNIVERSAL-JKFIT
  Basis Set: CC-PVDZ
    Blend: CC-PVDZ
  @DF-UKS Final Energy:  -474.33683069037704
    Total Energy =                       -474.3368306903770417
  @DF-UKS Final Energy:  -474.40738779037201
    Total Energy =                       -474.4073877903720131
  @DF-UKS Final Energy:  -474.44366803516635
    Total Energy =                       -474.4436680351663540
  @DF-UKS Final Energy:  -474.46333433109356
    Total Energy =                       -474.4633343310936198
  @DF-UKS Final Energy:  -474.47447884002008
    Total Energy =                       -474.4744788400200832
  @DF-UKS Final Energy:  -474.48122262256726
    Total Energy =                       -474.4812226225672589
  @DF-UKS Final Energy:  -474.48546891010608
    Total Energy =                       -474.4854689101060217
  @DF-UKS Final Energy:  -474.48802431151853
    Total Energy =                       -474.4880243115185294
  @DF-UKS Final Energy:  -474.48937423432812
    Total Energy =                       -474.4893742343280678
  @DF-UKS Final Energy:  -474.49004908339009
    Total Energy =                       -474.4900490833900903
  @DF-UKS Final Energy:  -474.49042344486224
    Total Energy =                       -474.4904234448623015
  @DF-UKS Final Energy:  -474.49068535896009
    Total Energy =                       -474.4906853589600928
  @DF-UKS Final Energy:  -474.49093875644064
    Total Energy =                       -474.4909387564406416
  @DF-UKS Final Energy:  -474.49093951769083
    Total Energy =                       -474.4909395176908333
  @DF-UKS Final Energy:  -474.49094027885781
    Total Energy =                       -474.4909402788578063
  @DF-UKS Final Energy:  -474.49094103950335
    Total Energy =                       -474.4909410395033547
  @DF-UKS Final Energy:  -474.49094179965618
    Total Energy =                       -474.4909417996561842
  @DF-UKS Final Energy:  -474.49094255927446
    Total Energy =                       -474.4909425592744583
  @DF-UKS Final Energy:  -474.49127364990795
    Total Energy =                       -474.4912736499079529
  @DF-UKS Final Energy:  -474.49127429994462
    Total Energy =                       -474.4912742999446209
  @DF-UKS Final Energy:  -474.49127494977239
    Total Energy =                       -474.4912749497723894
  @DF-UKS Final Energy:  -474.49127559942468
    Total Energy =                       -474.4912755994246254
  @DF-UKS Final Energy:  -474.49127624887183
    Total Energy =                       -474.4912762488718272
  @DF-UKS Final Energy:  -474.49127689812877
    Total Energy =                       -474.4912768981287741
  @DF-UKS Final Energy:  -474.49127754718944
    Total Energy =                       -474.4912775471894406
  @DF-UKS Final Energy:  -474.49127819601642
    Total Energy =                       -474.4912781960164807
  @DF-UKS Final Energy:  -474.49127884466344
    Total Energy =                       -474.4912788446633840
  @DF-UKS Final Energy:  -474.49127949310713
    Total Energy =                       -474.4912794931071289
  @DF-UKS Final Energy:  -474.49128014136443
    Total Energy =                       -474.4912801413644274
  @DF-UKS Final Energy:  -474.49128078940453
    Total Energy =                       -474.4912807894044704
  @DF-UKS Final Energy:  -474.49128143725892
    Total Energy =                       -474.4912814372589764
  @DF-UKS Final Energy:  -474.49128208492414
    Total Energy =                       -474.4912820849241939
  @DF-UKS Final Energy:  -474.49128273238910
    Total Energy =                       -474.4912827323890383
  @DF-UKS Final Energy:  -474.49128337965135
    Total Energy =                       -474.4912833796512928
  @DF-UKS Final Energy:  -474.49128402670590
    Total Energy =                       -474.4912840267059551
  @DF-UKS Final Energy:  -474.49128467358281
    Total Energy =                       -474.4912846735827543
  Basis Set: (CC-PVDZ AUX)
    Blend: CC-PVDZ-JKFIT + DEF2-UNIVERSAL-JKFIT
  Basis Set: CC-PVDZ
    Blend: CC-PVDZ
  Basis Set: (CC-PVDZ AUX)
    Blend: CC-PVDZ-JKFIT + DEF2-UNIVERSAL-JKFIT
  @DF-UKS Final Energy:  -474.49157474523332
    Total Energy =                       -474.4915747452333221
  Basis Set: CC-PVDZ
    Blend: CC-PVDZ
  Basis Set: (CC-PVDZ AUX)
    Blend: CC-PVDZ-JKFIT + DEF2-UNIVERSAL-JKFIT
  Charge       = 1
  Multiplicity = 3
  Basis Set: CC-PVDZ
    Blend: CC-PVDZ
  Basis Set: (CC-PVDZ AUX)
    Blend: CC-PVDZ-JKFIT + DEF2-UNIVERSAL-JKFIT

    Orbital Energies [Eh]
    ---------------------

    Alpha Occupied:

       1A1  -101.701274     2A1    -9.615420     3A1    -7.389332
       1B2    -7.365537     1B1    -7.365537     4A1    -4.523043
       5A1    -0.952899     6A1    -0.561438     7A1    -0.516708
       2B1    -0.458457     2B2    -0.458457

    Alpha Virtual:

       8A1    -0.354353     3B1    -0.354001     3B2    -0.354001
       9A1    -0.047875     4B2    -0.046671     4B1    -0.046671
      10A1    -0.044620    11A1     0.169977     5B2     0.170983
       5B1     0.170983     1A2     0.171340    12A1     0.171343
      13A1     0.405042     6B1     0.422685     6B2     0.422685
      14A1     0.476527    15A1     0.544900     7B2     0.557051
       7B1     0.557051     2A2     0.602503    16A1     0.602510

    Beta Occupied:

       1A1  -101.694608     2A1    -9.608833     3A1    -7.367580
       1B1    -7.361588     1B2    -7.361588     4A1    -4.507112
       5A1    -0.899719     2B2    -0.442601     2B1    -0.442601

    Beta Virtual:

       6A1    -0.423849     7A1    -0.356235     3B2    -0.286658
       3B1    -0.286658     8A1    -0.283356     9A1    -0.028643
       4B1    -0.026816     4B2    -0.026816    10A1    -0.013746
      11A1     0.242102     1A2     0.242105     5B2     0.245013
       5B1     0.245013    12A1     0.245279     6B1     0.429968
       6B2     0.429968    13A1     0.450695    14A1     0.497687
       2A2     0.610771    15A1     0.610776     7B2     0.614441
       7B1     0.614441    16A1     0.623817

    Final Occupation by Irrep:
             A1    A2    B1    B2
    DOCC [     5,    0,    2,    2 ]
    SOCC [     2,    0,    0,    0 ]
    NA   [     7,    0,    2,    2 ]
    NB   [     5,    0,    2,    2 ]

  @DF-UKS Final Energy:  -474.49157531780565

   => Energetics <=

    Nuclear Repulsion Energy =              7.4679884648484709
    One-Electron Energy =                -665.6906289568441935
    Two-Electron Energy =                 208.5044998363281650
    DFT Exchange-Correlation Energy =     -24.7734346621380972
    Empirical Dispersion Energy =           0.0000000000000000
    VV10 Nonlocal Energy =                  0.0000000000000000
    Total Energy =                       -474.4915753178057116

  UHF NO Occupations:
  HONO-2 :    5 A1 1.9991467
  HONO-1 :    6 A1 1.0000000
  HONO-0 :    7 A1 1.0000000
  LUNO+0 :    8 A1 0.0008533
  LUNO+1 :    3 B1 0.0000288
  LUNO+2 :    3 B2 0.0000288
  LUNO+3 :    9 A1 0.0000001

Computation Completed

Properties will be evaluated at   0.000000,   0.000000,   0.000000 [a0]

Properties computed using the SCF density matrix

 Multipole Moments:

 ------------------------------------------------------------------------------------
     Multipole            Electronic (a.u.)      Nuclear  (a.u.)        Total (a.u.)
 ------------------------------------------------------------------------------------

 L = 1.  Multiply by 2.5417464519 to convert [e a0] to [Debye]
 Dipole X            :          0.0000000            0.0000000            0.0000000
 Dipole Y            :          0.0000000            0.0000000            0.0000000
 Dipole Z            :          9.9152029           -2.7601037            7.1550992
 Magnitude           :                                                    7.1550992

 ------------------------------------------------------------------------------------

*** tstop() called on Joses-MacBook-Pro-2.local at Thu Jul 17 13:28:11 2025
Module time:
	user time   =       2.92 seconds =       0.05 minutes
	system time =       3.31 seconds =       0.06 minutes
	total time  =          1 seconds =       0.02 minutes
Total time:
	user time   =     186.26 seconds =       3.10 minutes
	system time =     343.08 seconds =       5.72 minutes
	total time  =        176 seconds =       2.93 minutes

*** tstart() called on Joses-MacBook-Pro-2.local
*** at Thu Jul 17 13:28:11 2025

         ------------------------------------------------------------
                                   SCF GRAD
                          Rob Parrish, Justin Turney,
                       Andy Simmonett, and Alex Sokolov
         ------------------------------------------------------------

  ==> Geometry <==

    Molecular point group: c2v
    Full point group: C_inf_v

    Geometry (in Angstrom), charge = 1, multiplicity = 3:

       Center              X                  Y                   Z               Mass
    ------------   -----------------  -----------------  -----------------  -----------------
         BE           0.000000000000     0.000000000000     3.831089851895     9.012183065000
         CL           0.000000000000     0.000000000000    -0.987349610744    34.968852682000

  Nuclear repulsion =    7.467988464848471

  ==> Basis Set <==

  Basis Set: CC-PVDZ
    Blend: CC-PVDZ
    Number of shells: 14
    Number of basis functions: 32
    Number of Cartesian functions: 34
    Spherical Harmonics?: true
    Max angular momentum: 2

  ==> DFJKGrad: Density-Fitted SCF Gradients <==

    Gradient:                    1
    J tasked:                  Yes
    K tasked:                  Yes
    wK tasked:                  No
    OpenMP threads:              1
    Integrals threads:           1
    Memory [MiB]:              375
    Schwarz Cutoff:          1E-12
    Fitting Condition:       1E-10

   => Auxiliary Basis Set <=

  Basis Set: (CC-PVDZ AUX)
    Blend: CC-PVDZ-JKFIT + DEF2-UNIVERSAL-JKFIT
    Number of shells: 53
    Number of basis functions: 163
    Number of Cartesian functions: 190
    Spherical Harmonics?: true
    Max angular momentum: 3

  ==> DFT Potential <==

   => LibXC <=

    Version 6.2.2
    S. Lehtola, C. Steigemann, M. J.T. Oliveira, and M. A.L. Marques.,  SoftwareX 7, 1â€“5 (2018) (10.1016/j.softx.2017.11.002)

   => Composite Functional: B3LYP <=

    B3LYP Hyb-GGA Exchange-Correlation Functional

    P. J. Stephens, F. J. Devlin, C. F. Chabalowski, and M. J. Frisch.,  J. Phys. Chem. 98, 11623 (1994) (10.1021/j100096a001)

    Deriv               =              1
    GGA                 =           TRUE
    Meta                =          FALSE

    Exchange Hybrid     =           TRUE
    MP2 Hybrid          =          FALSE

   => Exchange Functionals <=

    0.0800   Slater exchange
    0.7200         Becke 88

   => Exact (HF) Exchange <=

    0.2000               HF

   => Correlation Functionals <=

    0.1900   Vosko, Wilk & Nusair (VWN5_RPA)
    0.8100   Lee, Yang & Parr

   => LibXC Density Thresholds  <==

    XC_HYB_GGA_XC_B3LYP:  1.00E-15

   => Molecular Quadrature <=

    Radial Scheme          =       TREUTLER
    Pruning Scheme         =           NONE
    Nuclear Scheme         =       TREUTLER

    Blocking Scheme        =         OCTREE
    BS radius alpha        =              1
    Pruning alpha          =              1
    Radial Points          =             75
    Spherical Points       =            302
    Total Points           =          42926
    Total Blocks           =            446
    Max Points             =            255
    Max Functions          =             32
    Weights Tolerance      =       1.00E-15

  -Total Gradient:
     Atom            X                  Y                   Z
    ------   -----------------  -----------------  -----------------
       1        0.000000000000    -0.000000000000    -0.000293133633
       2        0.000000000000     0.000000000000     0.000292006257

*** tstop() called on Joses-MacBook-Pro-2.local at Thu Jul 17 13:28:11 2025
Module time:
	user time   =       1.03 seconds =       0.02 minutes
	system time =       1.34 seconds =       0.02 minutes
	total time  =          0 seconds =       0.00 minutes
Total time:
	user time   =     187.29 seconds =       3.12 minutes
	system time =     344.42 seconds =       5.74 minutes
	total time  =        176 seconds =       2.93 minutes

    			-----------------------------------------

    			 OPTKING 3.0: for geometry optimizations

    			     By R.A. King, Bethel University

    			        with contributions from

    			    A.V. Copan, J. Cayton, A. Heide

    			-----------------------------------------

	                            ===> Fragment 1 <==

	 Z (Atomic Numbers)          Masses                          Geom
	       4.000000             9.012183          0.00000000  0.00000000  7.23971058
	      17.000000            34.968853          0.00000000  0.00000000 -1.86582035

	 - Coordinate -           - BOHR/RAD -       - ANG/DEG -
	 R(1,2)           =         9.105531           4.818439

	        --- Internal Coordinate Step in ANG or DEG, aJ/ANG or AJ/DEG ---
	-------------------------------------------------------------------------------
	           Coordinate      Previous         Force          Change          New
	           ----------      --------        ------          ------        ------
	               R(1,2)       4.81844        0.00241        0.00103       4.81947
	-------------------------------------------------------------------------------

	                                 ==> Convergence Check <==

	Measures of convergence in internal coordinates in au.

	Criteria marked as inactive (o), active & met (*), and active & unmet ( ).

	----------------------------------------------------------------------------------------------
	   Step    Total Energy     Delta E     Max Force     RMS Force      Max Disp      RMS Disp
	----------------------------------------------------------------------------------------------
	  Convergence Criteria     1.00e-06 *    3.00e-04 *             o    1.20e-03 *             o
	----------------------------------------------------------------------------------------------
	    58    -474.49157532   -5.73e-07 *    2.93e-04 *    2.93e-04 o    1.95e-03      1.95e-03 o  ~
	----------------------------------------------------------------------------------------------

Next Geometry in Ang
	Fragment 1 (Ang)

	   Be   0.0000000000   0.0000000000   3.8316065927
	   Cl   0.0000000000   0.0000000000  -0.9878663515

    Final optimized geometry and variables:
    Molecular point group: c2v
    Full point group: C_inf_v

    Geometry (in Angstrom), charge = 1, multiplicity = 3:

    BE           0.000000000000     0.000000000000     3.831089851895
    CL           0.000000000000     0.000000000000    -0.987349610744

    Psi4 stopped on: Thursday, 17 July 2025 01:28PM
    Psi4 wall time for execution: 0:02:56.98

*** Psi4 exiting successfully. Buy a developer a beer!
