                               Psi4 1.9.1 release

  ==> Input File <==

--------------------------------------------------------------------------
molecule {
1 3
Be   0.00000        0.60000        0.00000
N   0.00000       -0.60000        0.00000
}

set {
basis              cc-pvdz
reference          uks
maxiter            500
geom_maxiter       500
DAMPING_PERCENTAGE 1
guess              SAP
}

optimize('b3lyp')
--------------------------------------------------------------------------

    Molecular point group: c2v
  Charge       = 1
  Multiplicity = 3
  Basis Set: CC-PVDZ
    Blend: CC-PVDZ
  Basis Set: (CC-PVDZ AUX)
    Blend: CC-PVDZ-JKFIT + DEF2-UNIVERSAL-JKFIT
  @DF-UKS Final Energy:   -68.90570733316338
    Total Energy =                        -68.9057073331633774
 Dipole X            :          0.0000000            0.0000000            0.0000000
 Dipole Y            :          0.0000000            0.0000000            0.0000000
 Dipole Z            :          2.5353030           -0.6968945            1.8384085
 Magnitude           :                                                    1.8384085
    Molecular point group: c2v
  Basis Set: CC-PVDZ
    Blend: CC-PVDZ
  Basis Set: (CC-PVDZ AUX)
    Blend: CC-PVDZ-JKFIT + DEF2-UNIVERSAL-JKFIT
  Basis Set: CC-PVDZ
    Blend: CC-PVDZ
  Basis Set: (CC-PVDZ AUX)
    Blend: CC-PVDZ-JKFIT + DEF2-UNIVERSAL-JKFIT
  @DF-UKS Final Energy:   -68.95958152671047
    Total Energy =                        -68.9595815267104655
  Basis Set: CC-PVDZ
    Blend: CC-PVDZ
  Basis Set: (CC-PVDZ AUX)
    Blend: CC-PVDZ-JKFIT + DEF2-UNIVERSAL-JKFIT
  Basis Set: CC-PVDZ
    Blend: CC-PVDZ
  @DF-UKS Final Energy:   -68.96578655804966
    Total Energy =                        -68.9657865580496576
  @DF-UKS Final Energy:   -68.96700272273215
    Total Energy =                        -68.9670027227321469
  @DF-UKS Final Energy:   -68.96727195130812
    Total Energy =                        -68.9672719513081205
  @DF-UKS Final Energy:   -68.96733527554929
    Total Energy =                        -68.9673352755492886
  Basis Set: (CC-PVDZ AUX)
    Blend: CC-PVDZ-JKFIT + DEF2-UNIVERSAL-JKFIT
  Basis Set: CC-PVDZ
    Blend: CC-PVDZ
  Basis Set: (CC-PVDZ AUX)
    Blend: CC-PVDZ-JKFIT + DEF2-UNIVERSAL-JKFIT
  @DF-UKS Final Energy:   -68.96735446014847
    Total Energy =                        -68.9673544601484707
  Basis Set: CC-PVDZ
    Blend: CC-PVDZ
  Basis Set: (CC-PVDZ AUX)
    Blend: CC-PVDZ-JKFIT + DEF2-UNIVERSAL-JKFIT
  Charge       = 1
  Multiplicity = 3
  Basis Set: CC-PVDZ
    Blend: CC-PVDZ
  Basis Set: (CC-PVDZ AUX)
    Blend: CC-PVDZ-JKFIT + DEF2-UNIVERSAL-JKFIT

    Orbital Energies [Eh]
    ---------------------

    Alpha Occupied:

       1A1   -14.680109     2A1    -4.492277     3A1    -1.084463
       4A1    -0.679888     1B1    -0.621679     1B2    -0.572139

    Alpha Virtual:

       5A1    -0.413374     2B1    -0.270363     2B2    -0.257697
       6A1    -0.124345     3B1    -0.042604     7A1    -0.041697
       3B2    -0.040064     8A1     0.117715     1A2     0.194187
       9A1     0.194418     4B1     0.292776     4B2     0.304384
      10A1     0.468650     5B1     0.516967     5B2     0.547521
      11A1     0.711199    12A1     0.956833     2A2     1.488257
      13A1     1.488622     6B1     1.662670     6B2     1.699746
      14A1     2.152047

    Beta Occupied:

       1A1   -14.641782     2A1    -4.487705     3A1    -0.965801
       1B2    -0.528095

    Beta Virtual:

       4A1    -0.454951     1B1    -0.420104     5A1    -0.398597
       2B2    -0.247717     2B1    -0.217675     6A1    -0.113755
       7A1    -0.042688     3B2    -0.040702     3B1    -0.033720
       8A1     0.153831     1A2     0.201323     9A1     0.208325
       4B2     0.313271     4B1     0.329888    10A1     0.521372
       5B2     0.574790     5B1     0.597354    11A1     0.776687
      12A1     1.025722     2A2     1.567107    13A1     1.575064
       6B2     1.770389     6B1     1.790847    14A1     2.240767

    Final Occupation by Irrep:
             A1    A2    B1    B2
    DOCC [     3,    0,    0,    1 ]
    SOCC [     1,    0,    1,    0 ]
    NA   [     4,    0,    1,    1 ]
    NB   [     3,    0,    0,    1 ]

  @DF-UKS Final Energy:   -68.96735559676618

   => Energetics <=

    Nuclear Repulsion Energy =             10.1970055045358148
    One-Electron Energy =                -110.0807408755645440
    Two-Electron Energy =                  38.5383159993526903
    DFT Exchange-Correlation Energy =      -7.6219362250901419
    Empirical Dispersion Energy =           0.0000000000000000
    VV10 Nonlocal Energy =                  0.0000000000000000
    Total Energy =                        -68.9673555967661827

  UHF NO Occupations:
  HONO-2 :    1 B2 1.9946744
  HONO-1 :    4 A1 1.0000000
  HONO-0 :    1 B1 1.0000000
  LUNO+0 :    2 B2 0.0053256
  LUNO+1 :    5 A1 0.0007460
  LUNO+2 :    6 A1 0.0000002
  LUNO+3 :    7 A1 0.0000001

Computation Completed

Properties will be evaluated at   0.000000,   0.000000,   0.000000 [a0]

Properties computed using the SCF density matrix

 Multipole Moments:

 ------------------------------------------------------------------------------------
     Multipole            Electronic (a.u.)      Nuclear  (a.u.)        Total (a.u.)
 ------------------------------------------------------------------------------------

 L = 1.  Multiply by 2.5417464519 to convert [e a0] to [Debye]
 Dipole X            :          0.0000000            0.0000000            0.0000000
 Dipole Y            :          0.0000000            0.0000000            0.0000000
 Dipole Z            :          3.1531814           -0.8438637            2.3093177
 Magnitude           :                                                    2.3093177

 ------------------------------------------------------------------------------------

*** tstop() called on Joses-MacBook-Pro-2.local at Thu Jul 17 13:15:31 2025
Module time:
	user time   =       3.16 seconds =       0.05 minutes
	system time =       3.33 seconds =       0.06 minutes
	total time  =          1 seconds =       0.02 minutes
Total time:
	user time   =      33.40 seconds =       0.56 minutes
	system time =      36.75 seconds =       0.61 minutes
	total time  =          7 seconds =       0.12 minutes

*** tstart() called on Joses-MacBook-Pro-2.local
*** at Thu Jul 17 13:15:31 2025

         ------------------------------------------------------------
                                   SCF GRAD
                          Rob Parrish, Justin Turney,
                       Andy Simmonett, and Alex Sokolov
         ------------------------------------------------------------

  ==> Geometry <==

    Molecular point group: c2v
    Full point group: C_inf_v

    Geometry (in Angstrom), charge = 1, multiplicity = 3:

       Center              X                  Y                   Z               Mass
    ------------   -----------------  -----------------  -----------------  -----------------
         BE           0.000000000000     0.000000000000     0.884085085838     9.012183065000
         N            0.000000000000     0.000000000000    -0.568984826909    14.003074004430

  Nuclear repulsion =   10.197005504535815

  ==> Basis Set <==

  Basis Set: CC-PVDZ
    Blend: CC-PVDZ
    Number of shells: 12
    Number of basis functions: 28
    Number of Cartesian functions: 30
    Spherical Harmonics?: true
    Max angular momentum: 2

  ==> DFJKGrad: Density-Fitted SCF Gradients <==

    Gradient:                    1
    J tasked:                  Yes
    K tasked:                  Yes
    wK tasked:                  No
    OpenMP threads:              1
    Integrals threads:           1
    Memory [MiB]:              375
    Schwarz Cutoff:          1E-12
    Fitting Condition:       1E-10

   => Auxiliary Basis Set <=

  Basis Set: (CC-PVDZ AUX)
    Blend: CC-PVDZ-JKFIT + DEF2-UNIVERSAL-JKFIT
    Number of shells: 41
    Number of basis functions: 121
    Number of Cartesian functions: 141
    Spherical Harmonics?: true
    Max angular momentum: 3

  ==> DFT Potential <==

   => LibXC <=

    Version 6.2.2
    S. Lehtola, C. Steigemann, M. J.T. Oliveira, and M. A.L. Marques.,  SoftwareX 7, 1â€“5 (2018) (10.1016/j.softx.2017.11.002)

   => Composite Functional: B3LYP <=

    B3LYP Hyb-GGA Exchange-Correlation Functional

    P. J. Stephens, F. J. Devlin, C. F. Chabalowski, and M. J. Frisch.,  J. Phys. Chem. 98, 11623 (1994) (10.1021/j100096a001)

    Deriv               =              1
    GGA                 =           TRUE
    Meta                =          FALSE

    Exchange Hybrid     =           TRUE
    MP2 Hybrid          =          FALSE

   => Exchange Functionals <=

    0.0800   Slater exchange
    0.7200         Becke 88

   => Exact (HF) Exchange <=

    0.2000               HF

   => Correlation Functionals <=

    0.1900   Vosko, Wilk & Nusair (VWN5_RPA)
    0.8100   Lee, Yang & Parr

   => LibXC Density Thresholds  <==

    XC_HYB_GGA_XC_B3LYP:  1.00E-15

   => Molecular Quadrature <=

    Radial Scheme          =       TREUTLER
    Pruning Scheme         =           NONE
    Nuclear Scheme         =       TREUTLER

    Blocking Scheme        =         OCTREE
    BS radius alpha        =              1
    Pruning alpha          =              1
    Radial Points          =             75
    Spherical Points       =            302
    Total Points           =          43567
    Total Blocks           =            406
    Max Points             =            256
    Max Functions          =             28
    Weights Tolerance      =       1.00E-15

  -Total Gradient:
     Atom            X                  Y                   Z
    ------   -----------------  -----------------  -----------------
       1        0.000000000000     0.000000000000    -0.000099404854
       2        0.000000000000     0.000000000000     0.000115171849

*** tstop() called on Joses-MacBook-Pro-2.local at Thu Jul 17 13:15:31 2025
Module time:
	user time   =       0.62 seconds =       0.01 minutes
	system time =       1.09 seconds =       0.02 minutes
	total time  =          0 seconds =       0.00 minutes
Total time:
	user time   =      34.02 seconds =       0.57 minutes
	system time =      37.84 seconds =       0.63 minutes
	total time  =          7 seconds =       0.12 minutes

    			-----------------------------------------

    			 OPTKING 3.0: for geometry optimizations

    			     By R.A. King, Bethel University

    			        with contributions from

    			    A.V. Copan, J. Cayton, A. Heide

    			-----------------------------------------

	                            ===> Fragment 1 <==

	 Z (Atomic Numbers)          Masses                          Geom
	       4.000000             9.012183          0.00000000  0.00000000  1.67067868
	       7.000000            14.003074          0.00000000  0.00000000 -1.07522549

	 - Coordinate -           - BOHR/RAD -       - ANG/DEG -
	 R(1,2)           =         2.745904           1.453070

	        --- Internal Coordinate Step in ANG or DEG, aJ/ANG or AJ/DEG ---
	-------------------------------------------------------------------------------
	           Coordinate      Previous         Force          Change          New
	           ----------      --------        ------          ------        ------
	               R(1,2)       1.45307        0.00088        0.00016       1.45323
	-------------------------------------------------------------------------------

	                                 ==> Convergence Check <==

	Measures of convergence in internal coordinates in au.

	Criteria marked as inactive (o), active & met (*), and active & unmet ( ).

	----------------------------------------------------------------------------------------------
	   Step    Total Energy     Delta E     Max Force     RMS Force      Max Disp      RMS Disp
	----------------------------------------------------------------------------------------------
	  Convergence Criteria     1.00e-06 *    3.00e-04 *             o    1.20e-03 *             o
	----------------------------------------------------------------------------------------------
	     8     -68.96735560   -1.14e-06      1.07e-04 *    1.07e-04 o    2.99e-04 *    2.99e-04 o  ~
	----------------------------------------------------------------------------------------------

Next Geometry in Ang
	Fragment 1 (Ang)

	   Be   0.0000000000   0.0000000000   0.8841642708
	    N   0.0000000000   0.0000000000  -0.5690640119

    Final optimized geometry and variables:
    Molecular point group: c2v
    Full point group: C_inf_v

    Geometry (in Angstrom), charge = 1, multiplicity = 3:

    BE           0.000000000000     0.000000000000     0.884085085838
    N            0.000000000000     0.000000000000    -0.568984826909

    Psi4 stopped on: Thursday, 17 July 2025 01:15PM
    Psi4 wall time for execution: 0:00:07.36

*** Psi4 exiting successfully. Buy a developer a beer!
