                               Psi4 1.9.1 release

  ==> Input File <==

--------------------------------------------------------------------------
molecule {
1 3
Li   0.00000        0.60000        0.00000
S   0.00000       -0.60000        0.00000
}

set {
basis              cc-pvdz
reference          uks
maxiter            500
geom_maxiter       500
DAMPING_PERCENTAGE 1
guess              SAP
}

optimize('b3lyp')
--------------------------------------------------------------------------

    Molecular point group: c2v
  Charge       = 1
  Multiplicity = 3
  Basis Set: CC-PVDZ
    Blend: CC-PVDZ
  Basis Set: (CC-PVDZ AUX)
    Blend: CC-PVDZ-JKFIT + DEF2-UNIVERSAL-JKFIT
  @DF-UKS Final Energy:  -404.91756629515459
    Total Energy =                       -404.9175662951545291
 Dipole X            :          0.0000000            0.0000000            0.0000000
 Dipole Y            :          0.0000000            0.0000000            0.0000000
 Dipole Z            :          2.2491439           -0.9503775            1.2987664
 Magnitude           :                                                    1.2987664
    Molecular point group: c2v
  Basis Set: CC-PVDZ
    Blend: CC-PVDZ
  Basis Set: (CC-PVDZ AUX)
    Blend: CC-PVDZ-JKFIT + DEF2-UNIVERSAL-JKFIT
  Basis Set: CC-PVDZ
    Blend: CC-PVDZ
  Basis Set: (CC-PVDZ AUX)
    Blend: CC-PVDZ-JKFIT + DEF2-UNIVERSAL-JKFIT
  @DF-UKS Final Energy:  -405.07308974542610
    Total Energy =                       -405.0730897454261026
  Basis Set: CC-PVDZ
    Blend: CC-PVDZ
  Basis Set: (CC-PVDZ AUX)
    Blend: CC-PVDZ-JKFIT + DEF2-UNIVERSAL-JKFIT
  Basis Set: CC-PVDZ
    Blend: CC-PVDZ
  @DF-UKS Final Energy:  -405.21323999016704
    Total Energy =                       -405.2132399901669828
  @DF-UKS Final Energy:  -405.30903720951426
    Total Energy =                       -405.3090372095142584
  @DF-UKS Final Energy:  -405.36336761639927
    Total Energy =                       -405.3633676163992732
  @DF-UKS Final Energy:  -405.39071609879846
    Total Energy =                       -405.3907160987984639
  @DF-UKS Final Energy:  -405.40487595485394
    Total Energy =                       -405.4048759548539351
  @DF-UKS Final Energy:  -405.41170856490447
    Total Energy =                       -405.4117085649045293
  @DF-UKS Final Energy:  -405.41468475971334
    Total Energy =                       -405.4146847597133387
  @DF-UKS Final Energy:  -405.41578689539745
    Total Energy =                       -405.4157868953974457
  @DF-UKS Final Energy:  -405.41609169045131
    Total Energy =                       -405.4160916904513101
  @DF-UKS Final Energy:  -405.41613748071586
    Total Energy =                       -405.4161374807158609
  @DF-UKS Final Energy:  -405.41614493966125
    Total Energy =                       -405.4161449396613079
  Basis Set: (CC-PVDZ AUX)
    Blend: CC-PVDZ-JKFIT + DEF2-UNIVERSAL-JKFIT
  Basis Set: CC-PVDZ
    Blend: CC-PVDZ
  Basis Set: (CC-PVDZ AUX)
    Blend: CC-PVDZ-JKFIT + DEF2-UNIVERSAL-JKFIT
  @DF-UKS Final Energy:  -405.41614615921964
    Total Energy =                       -405.4161461592196929
  Basis Set: CC-PVDZ
    Blend: CC-PVDZ
  Basis Set: (CC-PVDZ AUX)
    Blend: CC-PVDZ-JKFIT + DEF2-UNIVERSAL-JKFIT
  Charge       = 1
  Multiplicity = 3
  Basis Set: CC-PVDZ
    Blend: CC-PVDZ
  Basis Set: (CC-PVDZ AUX)
    Blend: CC-PVDZ-JKFIT + DEF2-UNIVERSAL-JKFIT

    Orbital Energies [Eh]
    ---------------------

    Alpha Occupied:

       1A1   -89.136299     2A1    -8.194501     3A1    -6.164093
       1B2    -6.163478     1B1    -6.143563     4A1    -2.330381
       5A1    -0.923909     6A1    -0.544322     2B2    -0.525643
       2B1    -0.477612

    Alpha Virtual:

       7A1    -0.238691     3B2    -0.181684     3B1    -0.180338
       8A1    -0.153241     9A1    -0.076962     4B1    -0.064691
       4B2    -0.064414    10A1    -0.045894     5B2     0.045617
       5B1     0.052195     1A2     0.062466    11A1     0.062778
      12A1     0.095530     6B2     0.299175    13A1     0.317391
       6B1     0.331190    14A1     0.353390     2A2     0.367399
      15A1     0.381100     7B2     0.400821     7B1     0.432409
      16A1     0.652761

    Beta Occupied:

       1A1   -89.125571     2A1    -8.183509     3A1    -6.143510
       1B2    -6.141766     1B1    -6.136993     4A1    -2.329863
       5A1    -0.832352     2B1    -0.450907

    Beta Virtual:

       6A1    -0.396306     2B2    -0.368680     7A1    -0.232918
       3B1    -0.179659     3B2    -0.175393     8A1    -0.143249
       4B1    -0.065638     9A1    -0.064738     4B2    -0.063851
      10A1    -0.046582     5B1     0.060012     1A2     0.062497
       5B2     0.062515    11A1     0.066048    12A1     0.111661
       6B1     0.348879     6B2     0.355302    13A1     0.369066
      14A1     0.423289     2A2     0.424500    15A1     0.430782
       7B1     0.475802     7B2     0.485566    16A1     0.691424

    Final Occupation by Irrep:
             A1    A2    B1    B2
    DOCC [     5,    0,    2,    1 ]
    SOCC [     1,    0,    0,    1 ]
    NA   [     6,    0,    2,    2 ]
    NB   [     5,    0,    2,    1 ]

  @DF-UKS Final Energy:  -405.41614633306858

   => Energetics <=

    Nuclear Repulsion Energy =              9.2039016998156171
    One-Electron Energy =                -573.6249563421729363
    Two-Electron Energy =                 181.0073643354430430
    DFT Exchange-Correlation Energy =     -22.0024560261542916
    Empirical Dispersion Energy =           0.0000000000000000
    VV10 Nonlocal Energy =                  0.0000000000000000
    Total Energy =                       -405.4161463330685820

  UHF NO Occupations:
  HONO-2 :    5 A1 1.9990106
  HONO-1 :    6 A1 1.0000000
  HONO-0 :    2 B2 1.0000000
  LUNO+0 :    7 A1 0.0009894
  LUNO+1 :    3 B1 0.0002173
  LUNO+2 :    8 A1 0.0000001
  LUNO+3 :    9 A1 0.0000000

Computation Completed

Properties will be evaluated at   0.000000,   0.000000,   0.000000 [a0]

Properties computed using the SCF density matrix

 Multipole Moments:

 ------------------------------------------------------------------------------------
     Multipole            Electronic (a.u.)      Nuclear  (a.u.)        Total (a.u.)
 ------------------------------------------------------------------------------------

 L = 1.  Multiply by 2.5417464519 to convert [e a0] to [Debye]
 Dipole X            :          0.0000000            0.0000000            0.0000000
 Dipole Y            :          0.0000000            0.0000000            0.0000000
 Dipole Z            :          5.8128055           -2.1856736            3.6271319
 Magnitude           :                                                    3.6271319

 ------------------------------------------------------------------------------------

*** tstop() called on Joses-MacBook-Pro-2.local at Thu Jul 17 12:56:55 2025
Module time:
	user time   =       3.37 seconds =       0.06 minutes
	system time =       2.79 seconds =       0.05 minutes
	total time  =          0 seconds =       0.00 minutes
Total time:
	user time   =      73.98 seconds =       1.23 minutes
	system time =      79.79 seconds =       1.33 minutes
	total time  =         15 seconds =       0.25 minutes

*** tstart() called on Joses-MacBook-Pro-2.local
*** at Thu Jul 17 12:56:55 2025

         ------------------------------------------------------------
                                   SCF GRAD
                          Rob Parrish, Justin Turney,
                       Andy Simmonett, and Alex Sokolov
         ------------------------------------------------------------

  ==> Geometry <==

    Molecular point group: c2v
    Full point group: C_inf_v

    Geometry (in Angstrom), charge = 1, multiplicity = 3:

       Center              X                  Y                   Z               Mass
    ------------   -----------------  -----------------  -----------------  -----------------
         LI           0.000000000000     0.000000000000     2.263129371799     7.016003436600
         S            0.000000000000     0.000000000000    -0.496624799920    31.972071174400

  Nuclear repulsion =    9.203901699815617

  ==> Basis Set <==

  Basis Set: CC-PVDZ
    Blend: CC-PVDZ
    Number of shells: 14
    Number of basis functions: 32
    Number of Cartesian functions: 34
    Spherical Harmonics?: true
    Max angular momentum: 2

  ==> DFJKGrad: Density-Fitted SCF Gradients <==

    Gradient:                    1
    J tasked:                  Yes
    K tasked:                  Yes
    wK tasked:                  No
    OpenMP threads:              1
    Integrals threads:           1
    Memory [MiB]:              375
    Schwarz Cutoff:          1E-12
    Fitting Condition:       1E-10

   => Auxiliary Basis Set <=

  Basis Set: (CC-PVDZ AUX)
    Blend: CC-PVDZ-JKFIT + DEF2-UNIVERSAL-JKFIT
    Number of shells: 53
    Number of basis functions: 163
    Number of Cartesian functions: 190
    Spherical Harmonics?: true
    Max angular momentum: 3

  ==> DFT Potential <==

   => LibXC <=

    Version 6.2.2
    S. Lehtola, C. Steigemann, M. J.T. Oliveira, and M. A.L. Marques.,  SoftwareX 7, 1â€“5 (2018) (10.1016/j.softx.2017.11.002)

   => Composite Functional: B3LYP <=

    B3LYP Hyb-GGA Exchange-Correlation Functional

    P. J. Stephens, F. J. Devlin, C. F. Chabalowski, and M. J. Frisch.,  J. Phys. Chem. 98, 11623 (1994) (10.1021/j100096a001)

    Deriv               =              1
    GGA                 =           TRUE
    Meta                =          FALSE

    Exchange Hybrid     =           TRUE
    MP2 Hybrid          =          FALSE

   => Exchange Functionals <=

    0.0800   Slater exchange
    0.7200         Becke 88

   => Exact (HF) Exchange <=

    0.2000               HF

   => Correlation Functionals <=

    0.1900   Vosko, Wilk & Nusair (VWN5_RPA)
    0.8100   Lee, Yang & Parr

   => LibXC Density Thresholds  <==

    XC_HYB_GGA_XC_B3LYP:  1.00E-15

   => Molecular Quadrature <=

    Radial Scheme          =       TREUTLER
    Pruning Scheme         =           NONE
    Nuclear Scheme         =       TREUTLER

    Blocking Scheme        =         OCTREE
    BS radius alpha        =              1
    Pruning alpha          =              1
    Radial Points          =             75
    Spherical Points       =            302
    Total Points           =          44350
    Total Blocks           =            443
    Max Points             =            256
    Max Functions          =             32
    Weights Tolerance      =       1.00E-15

  -Total Gradient:
     Atom            X                  Y                   Z
    ------   -----------------  -----------------  -----------------
       1        0.000000000000     0.000000000000     0.000009085933
       2        0.000000000000     0.000000000000     0.000045542121

*** tstop() called on Joses-MacBook-Pro-2.local at Thu Jul 17 12:56:56 2025
Module time:
	user time   =       0.90 seconds =       0.01 minutes
	system time =       1.93 seconds =       0.03 minutes
	total time  =          1 seconds =       0.02 minutes
Total time:
	user time   =      74.89 seconds =       1.25 minutes
	system time =      81.72 seconds =       1.36 minutes
	total time  =         16 seconds =       0.27 minutes

    			-----------------------------------------

    			 OPTKING 3.0: for geometry optimizations

    			     By R.A. King, Bethel University

    			        with contributions from

    			    A.V. Copan, J. Cayton, A. Heide

    			-----------------------------------------

	                            ===> Fragment 1 <==

	 Z (Atomic Numbers)          Masses                          Geom
	       3.000000             7.016003          0.00000000  0.00000000  4.27669470
	      16.000000            31.972071          0.00000000  0.00000000 -0.93848486

	 - Coordinate -           - BOHR/RAD -       - ANG/DEG -
	 R(1,2)           =         5.215180           2.759754

	        --- Internal Coordinate Step in ANG or DEG, aJ/ANG or AJ/DEG ---
	-------------------------------------------------------------------------------
	           Coordinate      Previous         Force          Change          New
	           ----------      --------        ------          ------        ------
	               R(1,2)       2.75975        0.00015        0.00113       2.76088
	-------------------------------------------------------------------------------

	                                 ==> Convergence Check <==

	Measures of convergence in internal coordinates in au.

	Criteria marked as inactive (o), active & met (*), and active & unmet ( ).

	----------------------------------------------------------------------------------------------
	   Step    Total Energy     Delta E     Max Force     RMS Force      Max Disp      RMS Disp
	----------------------------------------------------------------------------------------------
	  Convergence Criteria     1.00e-06 *    3.00e-04 *             o    1.20e-03 *             o
	----------------------------------------------------------------------------------------------
	    15    -405.41614633   -1.74e-07 *    1.82e-05 *    1.82e-05 o    2.13e-03      2.13e-03 o  ~
	----------------------------------------------------------------------------------------------

Next Geometry in Ang
	Fragment 1 (Ang)

	   Li   0.0000000000   0.0000000000   2.2636934345
	    S   0.0000000000   0.0000000000  -0.4971888626

    Final optimized geometry and variables:
    Molecular point group: c2v
    Full point group: C_inf_v

    Geometry (in Angstrom), charge = 1, multiplicity = 3:

    LI           0.000000000000     0.000000000000     2.263129371799
    S            0.000000000000     0.000000000000    -0.496624799920

    Psi4 stopped on: Thursday, 17 July 2025 12:56PM
    Psi4 wall time for execution: 0:00:16.04

*** Psi4 exiting successfully. Buy a developer a beer!
