                               Psi4 1.9.1 release

  ==> Input File <==

--------------------------------------------------------------------------
molecule {
1 3
Ne   0.00000        0.60000        0.00000
Cl   0.00000       -0.60000        0.00000
}

set {
basis              cc-pvdz
reference          uks
maxiter            500
geom_maxiter       500
DAMPING_PERCENTAGE 1
guess              SAP
}

optimize('b3lyp')
--------------------------------------------------------------------------

    Molecular point group: c2v
  Charge       = 1
  Multiplicity = 3
  Basis Set: CC-PVDZ
    Blend: CC-PVDZ
  Basis Set: (CC-PVDZ AUX)
    Blend: CC-PVDZ-JKFIT
  @DF-UKS Final Energy:  -587.91100336142154
    Total Energy =                       -587.9110033614215354
 Dipole X            :          0.0000000            0.0000000            0.0000000
 Dipole Y            :          0.0000000            0.0000000            0.0000000
 Dipole Z            :          0.3498279            0.4050456            0.7548735
 Magnitude           :                                                    0.7548735
    Molecular point group: c2v
  Basis Set: CC-PVDZ
    Blend: CC-PVDZ
  Basis Set: (CC-PVDZ AUX)
    Blend: CC-PVDZ-JKFIT
  Basis Set: CC-PVDZ
    Blend: CC-PVDZ
  Basis Set: (CC-PVDZ AUX)
    Blend: CC-PVDZ-JKFIT
  @DF-UKS Final Energy:  -588.22601500526821
    Total Energy =                       -588.2260150052682093
  Basis Set: CC-PVDZ
    Blend: CC-PVDZ
  Basis Set: (CC-PVDZ AUX)
    Blend: CC-PVDZ-JKFIT
  Basis Set: CC-PVDZ
    Blend: CC-PVDZ
  @DF-UKS Final Energy:  -588.42037156556728
    Total Energy =                       -588.4203715655672795
  @DF-UKS Final Energy:  -588.51849254036074
    Total Energy =                       -588.5184925403607394
  @DF-UKS Final Energy:  -588.56306545361781
    Total Energy =                       -588.5630654536178099
  @DF-UKS Final Energy:  -588.58388345290052
    Total Energy =                       -588.5838834529005226
  @DF-UKS Final Energy:  -588.59306702175081
    Total Energy =                       -588.5930670217508123
  @DF-UKS Final Energy:  -588.59672151191830
    Total Energy =                       -588.5967215119181901
  @DF-UKS Final Energy:  -588.59769806862300
    Total Energy =                       -588.5976980686228899
  @DF-UKS Final Energy:  -588.59809465562012
    Total Energy =                       -588.5980946556201161
  @DF-UKS Final Energy:  -588.59818139856907
    Total Energy =                       -588.5981813985688405
  @DF-UKS Final Energy:  -588.59820264663347
    Total Energy =                       -588.5982026466334673
  Basis Set: (CC-PVDZ AUX)
    Blend: CC-PVDZ-JKFIT
  Basis Set: CC-PVDZ
    Blend: CC-PVDZ
  Basis Set: (CC-PVDZ AUX)
    Blend: CC-PVDZ-JKFIT
  @DF-UKS Final Energy:  -588.59820922135725
    Total Energy =                       -588.5982092213572514
  Basis Set: CC-PVDZ
    Blend: CC-PVDZ
  Basis Set: (CC-PVDZ AUX)
    Blend: CC-PVDZ-JKFIT
  Charge       = 1
  Multiplicity = 3
  Basis Set: CC-PVDZ
    Blend: CC-PVDZ
  Basis Set: (CC-PVDZ AUX)
    Blend: CC-PVDZ-JKFIT

    Orbital Energies [Eh]
    ---------------------

    Alpha Occupied:

       1A1  -102.054270     2A1   -31.240522     3A1    -9.960970
       1B1    -7.730548     4A1    -7.729281     1B2    -7.704335
       5A1    -1.699117     6A1    -1.271872     7A1    -0.841342
       2B1    -0.806075     2B2    -0.800314     3B1    -0.790398
       8A1    -0.764000     3B2    -0.736496

    Alpha Virtual:

       4B1     0.173597     9A1     0.194900     4B2     0.204009
      10A1     0.227416     5B1     0.232922    11A1     0.234592
       1A2     0.276809     5B2     0.278001    12A1     0.291573
       6B1     1.124004     6B2     1.125465    13A1     1.224176
      14A1     1.684860     7B1     4.455369     7B2     4.455996
      15A1     4.457206     2A2     4.465550    16A1     4.465568

    Beta Occupied:

       1A1  -102.039474     2A1   -31.236780     3A1    -9.946473
       1B1    -7.701871     4A1    -7.701307     1B2    -7.695678
       5A1    -1.690452     6A1    -1.163510     7A1    -0.802083
       2B2    -0.796726     2B1    -0.796359     3B2    -0.703402

    Beta Virtual:

       3B1    -0.606146     8A1    -0.596885     4B2     0.216331
       4B1     0.221107     9A1     0.239960    10A1     0.271703
      11A1     0.338946     5B2     0.342940     1A2     0.344674
      12A1     0.352593     5B1     0.356489     6B1     1.126123
       6B2     1.126953    13A1     1.234822    14A1     1.691528
       7B1     4.465006     7B2     4.465252    15A1     4.467801
       2A2     4.467805    16A1     4.469021

    Final Occupation by Irrep:
             A1    A2    B1    B2
    DOCC [     7,    0,    2,    3 ]
    SOCC [     1,    0,    1,    0 ]
    NA   [     8,    0,    3,    3 ]
    NB   [     7,    0,    2,    3 ]

  @DF-UKS Final Energy:  -588.59821004276398

   => Energetics <=

    Nuclear Repulsion Energy =             36.9724430088692699
    One-Electron Energy =                -881.5646377119028330
    Two-Electron Energy =                 288.5272867234198202
    DFT Exchange-Correlation Energy =     -32.5333020631502734
    Empirical Dispersion Energy =           0.0000000000000000
    VV10 Nonlocal Energy =                  0.0000000000000000
    Total Energy =                       -588.5982100427639807

  UHF NO Occupations:
  HONO-2 :    7 A1 1.9990668
  HONO-1 :    8 A1 1.0000000
  HONO-0 :    3 B1 1.0000000
  LUNO+0 :    9 A1 0.0009332
  LUNO+1 :   10 A1 0.0001366
  LUNO+2 :    4 B2 0.0000997
  LUNO+3 :    4 B1 0.0000048

Computation Completed

Properties will be evaluated at   0.000000,   0.000000,   0.000000 [a0]

Properties computed using the SCF density matrix

 Multipole Moments:

 ------------------------------------------------------------------------------------
     Multipole            Electronic (a.u.)      Nuclear  (a.u.)        Total (a.u.)
 ------------------------------------------------------------------------------------

 L = 1.  Multiply by 2.5417464519 to convert [e a0] to [Debye]
 Dipole X            :          0.0000000            0.0000000            0.0000000
 Dipole Y            :          0.0000000            0.0000000            0.0000000
 Dipole Z            :         -2.0858228            0.8212863           -1.2645365
 Magnitude           :                                                    1.2645365

 ------------------------------------------------------------------------------------

*** tstop() called on Joses-MacBook-Pro-2.local at Thu Jul 17 14:43:06 2025
Module time:
	user time   =       3.24 seconds =       0.05 minutes
	system time =       3.55 seconds =       0.06 minutes
	total time  =          1 seconds =       0.02 minutes
Total time:
	user time   =      66.24 seconds =       1.10 minutes
	system time =      73.63 seconds =       1.23 minutes
	total time  =         14 seconds =       0.23 minutes

*** tstart() called on Joses-MacBook-Pro-2.local
*** at Thu Jul 17 14:43:06 2025

         ------------------------------------------------------------
                                   SCF GRAD
                          Rob Parrish, Justin Turney,
                       Andy Simmonett, and Alex Sokolov
         ------------------------------------------------------------

  ==> Geometry <==

    Molecular point group: c2v
    Full point group: C_inf_v

    Geometry (in Angstrom), charge = 1, multiplicity = 3:

       Center              X                  Y                   Z               Mass
    ------------   -----------------  -----------------  -----------------  -----------------
         NE           0.000000000000     0.000000000000     1.548090513445    19.992440176200
         CL           0.000000000000     0.000000000000    -0.885076420975    34.968852682000

  Nuclear repulsion =   36.972443008869270

  ==> Basis Set <==

  Basis Set: CC-PVDZ
    Blend: CC-PVDZ
    Number of shells: 14
    Number of basis functions: 32
    Number of Cartesian functions: 34
    Spherical Harmonics?: true
    Max angular momentum: 2

  ==> DFJKGrad: Density-Fitted SCF Gradients <==

    Gradient:                    1
    J tasked:                  Yes
    K tasked:                  Yes
    wK tasked:                  No
    OpenMP threads:              1
    Integrals threads:           1
    Memory [MiB]:              375
    Schwarz Cutoff:          1E-12
    Fitting Condition:       1E-10

   => Auxiliary Basis Set <=

  Basis Set: (CC-PVDZ AUX)
    Blend: CC-PVDZ-JKFIT
    Number of shells: 60
    Number of basis functions: 182
    Number of Cartesian functions: 211
    Spherical Harmonics?: true
    Max angular momentum: 3

  ==> DFT Potential <==

   => LibXC <=

    Version 6.2.2
    S. Lehtola, C. Steigemann, M. J.T. Oliveira, and M. A.L. Marques.,  SoftwareX 7, 1â€“5 (2018) (10.1016/j.softx.2017.11.002)

   => Composite Functional: B3LYP <=

    B3LYP Hyb-GGA Exchange-Correlation Functional

    P. J. Stephens, F. J. Devlin, C. F. Chabalowski, and M. J. Frisch.,  J. Phys. Chem. 98, 11623 (1994) (10.1021/j100096a001)

    Deriv               =              1
    GGA                 =           TRUE
    Meta                =          FALSE

    Exchange Hybrid     =           TRUE
    MP2 Hybrid          =          FALSE

   => Exchange Functionals <=

    0.0800   Slater exchange
    0.7200         Becke 88

   => Exact (HF) Exchange <=

    0.2000               HF

   => Correlation Functionals <=

    0.1900   Vosko, Wilk & Nusair (VWN5_RPA)
    0.8100   Lee, Yang & Parr

   => LibXC Density Thresholds  <==

    XC_HYB_GGA_XC_B3LYP:  1.00E-15

   => Molecular Quadrature <=

    Radial Scheme          =       TREUTLER
    Pruning Scheme         =           NONE
    Nuclear Scheme         =       TREUTLER

    Blocking Scheme        =         OCTREE
    BS radius alpha        =              1
    Pruning alpha          =              1
    Radial Points          =             75
    Spherical Points       =            302
    Total Points           =          41962
    Total Blocks           =            377
    Max Points             =            256
    Max Functions          =             32
    Weights Tolerance      =       1.00E-15

  -Total Gradient:
     Atom            X                  Y                   Z
    ------   -----------------  -----------------  -----------------
       1        0.000000000000    -0.000000000000    -0.000049677879
       2        0.000000000000    -0.000000000000     0.000048507626

*** tstop() called on Joses-MacBook-Pro-2.local at Thu Jul 17 14:43:06 2025
Module time:
	user time   =       1.02 seconds =       0.02 minutes
	system time =       1.11 seconds =       0.02 minutes
	total time  =          0 seconds =       0.00 minutes
Total time:
	user time   =      67.26 seconds =       1.12 minutes
	system time =      74.74 seconds =       1.25 minutes
	total time  =         14 seconds =       0.23 minutes

    			-----------------------------------------

    			 OPTKING 3.0: for geometry optimizations

    			     By R.A. King, Bethel University

    			        with contributions from

    			    A.V. Copan, J. Cayton, A. Heide

    			-----------------------------------------

	                            ===> Fragment 1 <==

	 Z (Atomic Numbers)          Masses                          Geom
	      10.000000            19.992440          0.00000000  0.00000000  2.92546709
	      17.000000            34.968853          0.00000000  0.00000000 -1.67255204

	 - Coordinate -           - BOHR/RAD -       - ANG/DEG -
	 R(1,2)           =         4.598019           2.433167

	        --- Internal Coordinate Step in ANG or DEG, aJ/ANG or AJ/DEG ---
	-------------------------------------------------------------------------------
	           Coordinate      Previous         Force          Change          New
	           ----------      --------        ------          ------        ------
	               R(1,2)       2.43317        0.00040        0.00108       2.43424
	-------------------------------------------------------------------------------

	                                 ==> Convergence Check <==

	Measures of convergence in internal coordinates in au.

	Criteria marked as inactive (o), active & met (*), and active & unmet ( ).

	----------------------------------------------------------------------------------------------
	   Step    Total Energy     Delta E     Max Force     RMS Force      Max Disp      RMS Disp
	----------------------------------------------------------------------------------------------
	  Convergence Criteria     1.00e-06 *    3.00e-04 *             o    1.20e-03 *             o
	----------------------------------------------------------------------------------------------
	    14    -588.59821004   -8.21e-07 *    4.91e-05 *    4.91e-05 o    2.03e-03      2.03e-03 o  ~
	----------------------------------------------------------------------------------------------

Next Geometry in Ang
	Fragment 1 (Ang)

	   Ne   0.0000000000   0.0000000000   1.5486282113
	   Cl   0.0000000000   0.0000000000  -0.8856141188

    Final optimized geometry and variables:
    Molecular point group: c2v
    Full point group: C_inf_v

    Geometry (in Angstrom), charge = 1, multiplicity = 3:

    NE           0.000000000000     0.000000000000     1.548090513445
    CL           0.000000000000     0.000000000000    -0.885076420975

    Psi4 stopped on: Thursday, 17 July 2025 02:43PM
    Psi4 wall time for execution: 0:00:14.80

*** Psi4 exiting successfully. Buy a developer a beer!
