                               Psi4 1.9.1 release

  ==> Input File <==

--------------------------------------------------------------------------
molecule {
1 3
He   0.00000        0.60000        0.00000
Cl   0.00000       -0.60000        0.00000
}

set {
basis              cc-pvdz
reference          uks
maxiter            500
geom_maxiter       500
DAMPING_PERCENTAGE 1
guess              SAP
}

optimize('b3lyp')
--------------------------------------------------------------------------

    Molecular point group: c2v
  Charge       = 1
  Multiplicity = 3
  Basis Set: CC-PVDZ
    Blend: CC-PVDZ
  Basis Set: (CC-PVDZ AUX)
    Blend: CC-PVDZ-JKFIT + DEF2-UNIVERSAL-JKFIT
  @DF-UKS Final Energy:  -462.34730574905910
    Total Energy =                       -462.3473057490591600
 Dipole X            :          0.0000000            0.0000000            0.0000000
 Dipole Y            :          0.0000000            0.0000000            0.0000000
 Dipole Z            :          0.5211438            0.1101761            0.6313199
 Magnitude           :                                                    0.6313199
    Molecular point group: c2v
  Basis Set: CC-PVDZ
    Blend: CC-PVDZ
  Basis Set: (CC-PVDZ AUX)
    Blend: CC-PVDZ-JKFIT + DEF2-UNIVERSAL-JKFIT
  Basis Set: CC-PVDZ
    Blend: CC-PVDZ
  Basis Set: (CC-PVDZ AUX)
    Blend: CC-PVDZ-JKFIT + DEF2-UNIVERSAL-JKFIT
  @DF-UKS Final Energy:  -462.50483942282722
    Total Energy =                       -462.5048394228272173
  Basis Set: CC-PVDZ
    Blend: CC-PVDZ
  Basis Set: (CC-PVDZ AUX)
    Blend: CC-PVDZ-JKFIT + DEF2-UNIVERSAL-JKFIT
  Basis Set: CC-PVDZ
    Blend: CC-PVDZ
  @DF-UKS Final Energy:  -462.54400576859945
    Total Energy =                       -462.5440057685994475
  @DF-UKS Final Energy:  -462.56832905356026
    Total Energy =                       -462.5683290535602623
  @DF-UKS Final Energy:  -462.57935179245720
    Total Energy =                       -462.5793517924572029
  @DF-UKS Final Energy:  -462.58466597410359
    Total Energy =                       -462.5846659741035864
  @DF-UKS Final Energy:  -462.58699624164393
    Total Energy =                       -462.5869962416439307
  @DF-UKS Final Energy:  -462.58790970123619
    Total Energy =                       -462.5879097012361854
  @DF-UKS Final Energy:  -462.58815187423789
    Total Energy =                       -462.5881518742378944
  @DF-UKS Final Energy:  -462.58825224014180
    Total Energy =                       -462.5882522401418555
  @DF-UKS Final Energy:  -462.58827542725345
    Total Energy =                       -462.5882754272533930
  @DF-UKS Final Energy:  -462.58828155122393
    Total Energy =                       -462.5882815512239858
  Basis Set: (CC-PVDZ AUX)
    Blend: CC-PVDZ-JKFIT + DEF2-UNIVERSAL-JKFIT
  Basis Set: CC-PVDZ
    Blend: CC-PVDZ
  Basis Set: (CC-PVDZ AUX)
    Blend: CC-PVDZ-JKFIT + DEF2-UNIVERSAL-JKFIT
  @DF-UKS Final Energy:  -462.58828363386851
    Total Energy =                       -462.5882836338685138
  Basis Set: CC-PVDZ
    Blend: CC-PVDZ
  Basis Set: (CC-PVDZ AUX)
    Blend: CC-PVDZ-JKFIT + DEF2-UNIVERSAL-JKFIT
  Charge       = 1
  Multiplicity = 3
  Basis Set: CC-PVDZ
    Blend: CC-PVDZ
  Basis Set: (CC-PVDZ AUX)
    Blend: CC-PVDZ-JKFIT + DEF2-UNIVERSAL-JKFIT

    Orbital Energies [Eh]
    ---------------------

    Alpha Occupied:

       1A1  -102.073989     2A1    -9.979944     1B2    -7.749396
       3A1    -7.749164     1B1    -7.722975     4A1    -1.287950
       5A1    -0.889288     2B2    -0.810620     6A1    -0.802262
       2B1    -0.751509

    Alpha Virtual:

       3B2     0.163810     7A1     0.178977     3B1     0.194136
       8A1     0.211163     9A1     0.215659     4B2     0.217725
       1A2     0.262660     4B1     0.263067    10A1     0.278323
      11A1     0.982742     5B2     1.961354     5B1     1.961719
      12A1     1.993285

    Beta Occupied:

       1A1  -102.058843     2A1    -9.965099     1B2    -7.720359
       3A1    -7.720167     1B1    -7.714119     4A1    -1.176073
       5A1    -0.878740     2B1    -0.717241

    Beta Virtual:

       2B2    -0.619161     6A1    -0.615756     3B1     0.206661
       3B2     0.211582     7A1     0.224801     8A1     0.250189
       4B1     0.331021     1A2     0.331092     9A1     0.332620
      10A1     0.341388     4B2     0.345097    11A1     0.988424
       5B2     1.964553     5B1     1.964892    12A1     1.996888

    Final Occupation by Irrep:
             A1    A2    B1    B2
    DOCC [     5,    0,    2,    1 ]
    SOCC [     1,    0,    0,    1 ]
    NA   [     6,    0,    2,    2 ]
    NB   [     5,    0,    2,    1 ]

  @DF-UKS Final Energy:  -462.58828392794811

   => Energetics <=

    Nuclear Repulsion Energy =              7.1886463765362310
    One-Electron Energy =                -645.2119819097952131
    Two-Electron Energy =                 198.7399287694339876
    DFT Exchange-Correlation Energy =     -23.3048771641230665
    Empirical Dispersion Energy =           0.0000000000000000
    VV10 Nonlocal Energy =                  0.0000000000000000
    Total Energy =                       -462.5882839279481118

  UHF NO Occupations:
  HONO-2 :    5 A1 1.9990152
  HONO-1 :    2 B2 1.0000000
  HONO-0 :    6 A1 1.0000000
  LUNO+0 :    7 A1 0.0009848
  LUNO+1 :    3 B1 0.0001016
  LUNO+2 :    8 A1 0.0000209
  LUNO+3 :    9 A1 0.0000000

Computation Completed

Properties will be evaluated at   0.000000,   0.000000,   0.000000 [a0]

Properties computed using the SCF density matrix

 Multipole Moments:

 ------------------------------------------------------------------------------------
     Multipole            Electronic (a.u.)      Nuclear  (a.u.)        Total (a.u.)
 ------------------------------------------------------------------------------------

 L = 1.  Multiply by 2.5417464519 to convert [e a0] to [Debye]
 Dipole X            :          0.0000000            0.0000000            0.0000000
 Dipole Y            :          0.0000000            0.0000000            0.0000000
 Dipole Z            :         -0.6027374            0.2297942           -0.3729432
 Magnitude           :                                                    0.3729432

 ------------------------------------------------------------------------------------

*** tstop() called on Joses-MacBook-Pro-2.local at Thu Jul 17 12:41:57 2025
Module time:
	user time   =       2.41 seconds =       0.04 minutes
	system time =       3.47 seconds =       0.06 minutes
	total time  =          0 seconds =       0.00 minutes
Total time:
	user time   =      52.94 seconds =       0.88 minutes
	system time =      65.65 seconds =       1.09 minutes
	total time  =         11 seconds =       0.18 minutes

*** tstart() called on Joses-MacBook-Pro-2.local
*** at Thu Jul 17 12:41:57 2025

         ------------------------------------------------------------
                                   SCF GRAD
                          Rob Parrish, Justin Turney,
                       Andy Simmonett, and Alex Sokolov
         ------------------------------------------------------------

  ==> Geometry <==

    Molecular point group: c2v
    Full point group: C_inf_v

    Geometry (in Angstrom), charge = 1, multiplicity = 3:

       Center              X                  Y                   Z               Mass
    ------------   -----------------  -----------------  -----------------  -----------------
         HE           0.000000000000     0.000000000000     2.245782441497     4.002603254130
         CL           0.000000000000     0.000000000000    -0.257056649532    34.968852682000

  Nuclear repulsion =    7.188646376536231

  ==> Basis Set <==

  Basis Set: CC-PVDZ
    Blend: CC-PVDZ
    Number of shells: 11
    Number of basis functions: 23
    Number of Cartesian functions: 24
    Spherical Harmonics?: true
    Max angular momentum: 2

  ==> DFJKGrad: Density-Fitted SCF Gradients <==

    Gradient:                    1
    J tasked:                  Yes
    K tasked:                  Yes
    wK tasked:                  No
    OpenMP threads:              1
    Integrals threads:           1
    Memory [MiB]:              375
    Schwarz Cutoff:          1E-12
    Fitting Condition:       1E-10

   => Auxiliary Basis Set <=

  Basis Set: (CC-PVDZ AUX)
    Blend: CC-PVDZ-JKFIT + DEF2-UNIVERSAL-JKFIT
    Number of shells: 45
    Number of basis functions: 135
    Number of Cartesian functions: 155
    Spherical Harmonics?: true
    Max angular momentum: 3

  ==> DFT Potential <==

   => LibXC <=

    Version 6.2.2
    S. Lehtola, C. Steigemann, M. J.T. Oliveira, and M. A.L. Marques.,  SoftwareX 7, 1â€“5 (2018) (10.1016/j.softx.2017.11.002)

   => Composite Functional: B3LYP <=

    B3LYP Hyb-GGA Exchange-Correlation Functional

    P. J. Stephens, F. J. Devlin, C. F. Chabalowski, and M. J. Frisch.,  J. Phys. Chem. 98, 11623 (1994) (10.1021/j100096a001)

    Deriv               =              1
    GGA                 =           TRUE
    Meta                =          FALSE

    Exchange Hybrid     =           TRUE
    MP2 Hybrid          =          FALSE

   => Exchange Functionals <=

    0.0800   Slater exchange
    0.7200         Becke 88

   => Exact (HF) Exchange <=

    0.2000               HF

   => Correlation Functionals <=

    0.1900   Vosko, Wilk & Nusair (VWN5_RPA)
    0.8100   Lee, Yang & Parr

   => LibXC Density Thresholds  <==

    XC_HYB_GGA_XC_B3LYP:  1.00E-15

   => Molecular Quadrature <=

    Radial Scheme          =       TREUTLER
    Pruning Scheme         =           NONE
    Nuclear Scheme         =       TREUTLER

    Blocking Scheme        =         OCTREE
    BS radius alpha        =              1
    Pruning alpha          =              1
    Radial Points          =             75
    Spherical Points       =            302
    Total Points           =          42209
    Total Blocks           =            377
    Max Points             =            256
    Max Functions          =             23
    Weights Tolerance      =       1.00E-15

  -Total Gradient:
     Atom            X                  Y                   Z
    ------   -----------------  -----------------  -----------------
       1       -0.000000000000     0.000000000000    -0.000022077359
       2       -0.000000000000    -0.000000000000     0.000011540965

*** tstop() called on Joses-MacBook-Pro-2.local at Thu Jul 17 12:41:58 2025
Module time:
	user time   =       0.49 seconds =       0.01 minutes
	system time =       1.24 seconds =       0.02 minutes
	total time  =          1 seconds =       0.02 minutes
Total time:
	user time   =      53.44 seconds =       0.89 minutes
	system time =      66.89 seconds =       1.11 minutes
	total time  =         12 seconds =       0.20 minutes

    			-----------------------------------------

    			 OPTKING 3.0: for geometry optimizations

    			     By R.A. King, Bethel University

    			        with contributions from

    			    A.V. Copan, J. Cayton, A. Heide

    			-----------------------------------------

	                            ===> Fragment 1 <==

	 Z (Atomic Numbers)          Masses                          Geom
	       2.000000             4.002603          0.00000000  0.00000000  4.24391375
	      17.000000            34.968853          0.00000000  0.00000000 -0.48576667

	 - Coordinate -           - BOHR/RAD -       - ANG/DEG -
	 R(1,2)           =         4.729680           2.502839

	        --- Internal Coordinate Step in ANG or DEG, aJ/ANG or AJ/DEG ---
	-------------------------------------------------------------------------------
	           Coordinate      Previous         Force          Change          New
	           ----------      --------        ------          ------        ------
	               R(1,2)       2.50284        0.00014        0.00151       2.50435
	-------------------------------------------------------------------------------

	                                 ==> Convergence Check <==

	Measures of convergence in internal coordinates in au.

	Criteria marked as inactive (o), active & met (*), and active & unmet ( ).

	----------------------------------------------------------------------------------------------
	   Step    Total Energy     Delta E     Max Force     RMS Force      Max Disp      RMS Disp
	----------------------------------------------------------------------------------------------
	  Convergence Criteria     1.00e-06 *    3.00e-04 *             o    1.20e-03 *             o
	----------------------------------------------------------------------------------------------
	    14    -462.58828393   -2.94e-07 *    1.68e-05 *    1.68e-05 o    2.86e-03      2.86e-03 o  ~
	----------------------------------------------------------------------------------------------

Next Geometry in Ang
	Fragment 1 (Ang)

	   He   0.0000000000   0.0000000000   2.2465394586
	   Cl   0.0000000000   0.0000000000  -0.2578136666

    Final optimized geometry and variables:
    Molecular point group: c2v
    Full point group: C_inf_v

    Geometry (in Angstrom), charge = 1, multiplicity = 3:

    HE           0.000000000000     0.000000000000     2.245782441497
    CL           0.000000000000     0.000000000000    -0.257056649532

    Psi4 stopped on: Thursday, 17 July 2025 12:41PM
    Psi4 wall time for execution: 0:00:11.99

*** Psi4 exiting successfully. Buy a developer a beer!
