                               Psi4 1.9.1 release

  ==> Input File <==

--------------------------------------------------------------------------
molecule {
1 3
B   0.00000        0.60000        0.00000
S   0.00000       -0.60000        0.00000
}

set {
basis              cc-pvdz
reference          uks
maxiter            500
geom_maxiter       500
DAMPING_PERCENTAGE 1
guess              SAP
}

optimize('b3lyp')
--------------------------------------------------------------------------

    Molecular point group: c2v
  Charge       = 1
  Multiplicity = 3
  Basis Set: CC-PVDZ
    Blend: CC-PVDZ
  Basis Set: (CC-PVDZ AUX)
    Blend: CC-PVDZ-JKFIT
  @DF-UKS Final Energy:  -422.19497636117194
    Total Energy =                       -422.1949763611719391
 Dipole X            :          0.0000000            0.0000000            0.0000000
 Dipole Y            :          0.0000000            0.0000000            0.0000000
 Dipole Z            :          0.9477814           -0.8593730            0.0884085
 Magnitude           :                                                    0.0884085
    Molecular point group: c2v
  Basis Set: CC-PVDZ
    Blend: CC-PVDZ
  Basis Set: (CC-PVDZ AUX)
    Blend: CC-PVDZ-JKFIT
  Basis Set: CC-PVDZ
    Blend: CC-PVDZ
  Basis Set: (CC-PVDZ AUX)
    Blend: CC-PVDZ-JKFIT
  @DF-UKS Final Energy:  -422.43060192087046
    Total Energy =                       -422.4306019208704583
  Basis Set: CC-PVDZ
    Blend: CC-PVDZ
  Basis Set: (CC-PVDZ AUX)
    Blend: CC-PVDZ-JKFIT
  Basis Set: CC-PVDZ
    Blend: CC-PVDZ
  @DF-UKS Final Energy:  -422.53041481578026
    Total Energy =                       -422.5304148157802615
  @DF-UKS Final Energy:  -422.56922018704716
    Total Energy =                       -422.5692201870472218
  @DF-UKS Final Energy:  -422.57910928857933
    Total Energy =                       -422.5791092885793319
  @DF-UKS Final Energy:  -422.58293074989956
    Total Energy =                       -422.5829307498996172
  @DF-UKS Final Energy:  -422.58369977338958
    Total Energy =                       -422.5836997733895828
  @DF-UKS Final Energy:  -422.58387386383595
    Total Energy =                       -422.5838738638359473
  @DF-UKS Final Energy:  -422.58392345947937
    Total Energy =                       -422.5839234594793652
  Basis Set: (CC-PVDZ AUX)
    Blend: CC-PVDZ-JKFIT
  Basis Set: CC-PVDZ
    Blend: CC-PVDZ
  Basis Set: (CC-PVDZ AUX)
    Blend: CC-PVDZ-JKFIT
  @DF-UKS Final Energy:  -422.58392918387602
    Total Energy =                       -422.5839291838760232
  Basis Set: CC-PVDZ
    Blend: CC-PVDZ
  Basis Set: (CC-PVDZ AUX)
    Blend: CC-PVDZ-JKFIT
  Charge       = 1
  Multiplicity = 3
  Basis Set: CC-PVDZ
    Blend: CC-PVDZ
  Basis Set: (CC-PVDZ AUX)
    Blend: CC-PVDZ-JKFIT

    Orbital Energies [Eh]
    ---------------------

    Alpha Occupied:

       1A1   -89.247691     2A1    -8.306351     3A1    -7.209315
       1B2    -6.276782     4A1    -6.266035     1B1    -6.259617
       5A1    -1.074833     6A1    -0.748326     2B2    -0.645603
       2B1    -0.606391     7A1    -0.598800

    Alpha Virtual:

       3B2    -0.373888     3B1    -0.357573     8A1    -0.148890
       9A1    -0.043781     4B2     0.031363     4B1     0.038547
      10A1     0.070551     5B2     0.165439     5B1     0.190745
      11A1     0.192304     1A2     0.219844    12A1     0.220858
       6B2     0.259449     6B1     0.284287    13A1     0.443295
       2A2     0.444109    14A1     0.453442    15A1     0.697042
       7B2     0.709407     7B1     0.729480    16A1     0.935502

    Beta Occupied:

       1A1   -89.241968     2A1    -8.300442     3A1    -7.192915
       1B2    -6.259866     4A1    -6.259729     1B1    -6.256662
       5A1    -1.027710     6A1    -0.711846     2B1    -0.591438

    Beta Virtual:

       2B2    -0.511134     7A1    -0.426136     3B1    -0.324654
       3B2    -0.311246     8A1    -0.112473     9A1    -0.028167
       4B1     0.046995     4B2     0.049406    10A1     0.126996
      11A1     0.216502     5B1     0.217620     5B2     0.226429
       1A2     0.263213    12A1     0.266812     6B1     0.296993
       6B2     0.301510    13A1     0.472789     2A2     0.480931
      14A1     0.482995    15A1     0.739843     7B1     0.766826
       7B2     0.771309    16A1     0.974772

    Final Occupation by Irrep:
             A1    A2    B1    B2
    DOCC [     6,    0,    2,    1 ]
    SOCC [     1,    0,    0,    1 ]
    NA   [     7,    0,    2,    2 ]
    NB   [     6,    0,    2,    1 ]

  @DF-UKS Final Energy:  -422.58392946079988

   => Energetics <=

    Nuclear Repulsion Energy =             24.5473110110228987
    One-Electron Energy =                -624.3224844948806549
    Two-Electron Energy =                 200.8441781608968881
    DFT Exchange-Correlation Energy =     -23.6529341378390185
    Empirical Dispersion Energy =           0.0000000000000000
    VV10 Nonlocal Energy =                  0.0000000000000000
    Total Energy =                       -422.5839294607998795

  UHF NO Occupations:
  HONO-2 :    2 B1 1.9992282
  HONO-1 :    2 B2 1.0000000
  HONO-0 :    7 A1 1.0000000
  LUNO+0 :    3 B1 0.0007718
  LUNO+1 :    8 A1 0.0007571
  LUNO+2 :    9 A1 0.0004218
  LUNO+3 :   10 A1 0.0000001

Computation Completed

Properties will be evaluated at   0.000000,   0.000000,   0.000000 [a0]

Properties computed using the SCF density matrix

 Multipole Moments:

 ------------------------------------------------------------------------------------
     Multipole            Electronic (a.u.)      Nuclear  (a.u.)        Total (a.u.)
 ------------------------------------------------------------------------------------

 L = 1.  Multiply by 2.5417464519 to convert [e a0] to [Debye]
 Dipole X            :          0.0000000            0.0000000            0.0000000
 Dipole Y            :          0.0000000            0.0000000            0.0000000
 Dipole Z            :          2.1304867           -1.2350588            0.8954279
 Magnitude           :                                                    0.8954279

 ------------------------------------------------------------------------------------

*** tstop() called on Joses-MacBook-Pro-2.local at Thu Jul 17 13:37:34 2025
Module time:
	user time   =       2.46 seconds =       0.04 minutes
	system time =       4.08 seconds =       0.07 minutes
	total time  =          0 seconds =       0.00 minutes
Total time:
	user time   =      37.66 seconds =       0.63 minutes
	system time =      72.10 seconds =       1.20 minutes
	total time  =         11 seconds =       0.18 minutes

*** tstart() called on Joses-MacBook-Pro-2.local
*** at Thu Jul 17 13:37:34 2025

         ------------------------------------------------------------
                                   SCF GRAD
                          Rob Parrish, Justin Turney,
                       Andy Simmonett, and Alex Sokolov
         ------------------------------------------------------------

  ==> Geometry <==

    Molecular point group: c2v
    Full point group: C_inf_v

    Geometry (in Angstrom), charge = 1, multiplicity = 3:

       Center              X                  Y                   Z               Mass
    ------------   -----------------  -----------------  -----------------  -----------------
         B            0.000000000000     0.000000000000     1.282855219560    11.009305360000
         S            0.000000000000     0.000000000000    -0.441740066440    31.972071174400

  Nuclear repulsion =   24.547311011022899

  ==> Basis Set <==

  Basis Set: CC-PVDZ
    Blend: CC-PVDZ
    Number of shells: 14
    Number of basis functions: 32
    Number of Cartesian functions: 34
    Spherical Harmonics?: true
    Max angular momentum: 2

  ==> DFJKGrad: Density-Fitted SCF Gradients <==

    Gradient:                    1
    J tasked:                  Yes
    K tasked:                  Yes
    wK tasked:                  No
    OpenMP threads:              1
    Integrals threads:           1
    Memory [MiB]:              375
    Schwarz Cutoff:          1E-12
    Fitting Condition:       1E-10

   => Auxiliary Basis Set <=

  Basis Set: (CC-PVDZ AUX)
    Blend: CC-PVDZ-JKFIT
    Number of shells: 60
    Number of basis functions: 182
    Number of Cartesian functions: 211
    Spherical Harmonics?: true
    Max angular momentum: 3

  ==> DFT Potential <==

   => LibXC <=

    Version 6.2.2
    S. Lehtola, C. Steigemann, M. J.T. Oliveira, and M. A.L. Marques.,  SoftwareX 7, 1â€“5 (2018) (10.1016/j.softx.2017.11.002)

   => Composite Functional: B3LYP <=

    B3LYP Hyb-GGA Exchange-Correlation Functional

    P. J. Stephens, F. J. Devlin, C. F. Chabalowski, and M. J. Frisch.,  J. Phys. Chem. 98, 11623 (1994) (10.1021/j100096a001)

    Deriv               =              1
    GGA                 =           TRUE
    Meta                =          FALSE

    Exchange Hybrid     =           TRUE
    MP2 Hybrid          =          FALSE

   => Exchange Functionals <=

    0.0800   Slater exchange
    0.7200         Becke 88

   => Exact (HF) Exchange <=

    0.2000               HF

   => Correlation Functionals <=

    0.1900   Vosko, Wilk & Nusair (VWN5_RPA)
    0.8100   Lee, Yang & Parr

   => LibXC Density Thresholds  <==

    XC_HYB_GGA_XC_B3LYP:  1.00E-15

   => Molecular Quadrature <=

    Radial Scheme          =       TREUTLER
    Pruning Scheme         =           NONE
    Nuclear Scheme         =       TREUTLER

    Blocking Scheme        =         OCTREE
    BS radius alpha        =              1
    Pruning alpha          =              1
    Radial Points          =             75
    Spherical Points       =            302
    Total Points           =          41979
    Total Blocks           =            381
    Max Points             =            255
    Max Functions          =             32
    Weights Tolerance      =       1.00E-15

  -Total Gradient:
     Atom            X                  Y                   Z
    ------   -----------------  -----------------  -----------------
       1       -0.000000000000     0.000000000000    -0.000049367544
       2        0.000000000000     0.000000000000     0.000039066440

*** tstop() called on Joses-MacBook-Pro-2.local at Thu Jul 17 13:37:35 2025
Module time:
	user time   =       0.71 seconds =       0.01 minutes
	system time =       1.60 seconds =       0.03 minutes
	total time  =          1 seconds =       0.02 minutes
Total time:
	user time   =      38.37 seconds =       0.64 minutes
	system time =      73.70 seconds =       1.23 minutes
	total time  =         12 seconds =       0.20 minutes

    			-----------------------------------------

    			 OPTKING 3.0: for geometry optimizations

    			     By R.A. King, Bethel University

    			        with contributions from

    			    A.V. Copan, J. Cayton, A. Heide

    			-----------------------------------------

	                            ===> Fragment 1 <==

	 Z (Atomic Numbers)          Masses                          Geom
	       5.000000            11.009305          0.00000000  0.00000000  2.42424502
	      16.000000            31.972071          0.00000000  0.00000000 -0.83476774

	 - Coordinate -           - BOHR/RAD -       - ANG/DEG -
	 R(1,2)           =         3.259013           1.724595

	        --- Internal Coordinate Step in ANG or DEG, aJ/ANG or AJ/DEG ---
	-------------------------------------------------------------------------------
	           Coordinate      Previous         Force          Change          New
	           ----------      --------        ------          ------        ------
	               R(1,2)       1.72460        0.00036        0.00008       1.72467
	-------------------------------------------------------------------------------

	                                 ==> Convergence Check <==

	Measures of convergence in internal coordinates in au.

	Criteria marked as inactive (o), active & met (*), and active & unmet ( ).

	----------------------------------------------------------------------------------------------
	   Step    Total Energy     Delta E     Max Force     RMS Force      Max Disp      RMS Disp
	----------------------------------------------------------------------------------------------
	  Convergence Criteria     1.00e-06 *    3.00e-04 *             o    1.20e-03 *             o
	----------------------------------------------------------------------------------------------
	    11    -422.58392946   -2.77e-07 *    4.42e-05 *    4.42e-05 o    1.47e-04 *    1.47e-04 o  ~
	----------------------------------------------------------------------------------------------

Next Geometry in Ang
	Fragment 1 (Ang)

	    B   0.0000000000   0.0000000000   1.2828941529
	    S   0.0000000000   0.0000000000  -0.4417789998

    Final optimized geometry and variables:
    Molecular point group: c2v
    Full point group: C_inf_v

    Geometry (in Angstrom), charge = 1, multiplicity = 3:

    B            0.000000000000     0.000000000000     1.282855219560
    S            0.000000000000     0.000000000000    -0.441740066440

    Psi4 stopped on: Thursday, 17 July 2025 01:37PM
    Psi4 wall time for execution: 0:00:11.95

*** Psi4 exiting successfully. Buy a developer a beer!
