                               Psi4 1.9.1 release

  ==> Input File <==

--------------------------------------------------------------------------
molecule {
1 3
Be   0.00000        0.60000        0.00000
P   0.00000       -0.60000        0.00000
}

set {
basis              cc-pvdz
reference          uks
maxiter            500
geom_maxiter       500
DAMPING_PERCENTAGE 1
guess              SAP
}

optimize('b3lyp')
--------------------------------------------------------------------------

    Molecular point group: c2v
  Charge       = 1
  Multiplicity = 3
  Basis Set: CC-PVDZ
    Blend: CC-PVDZ
  Basis Set: (CC-PVDZ AUX)
    Blend: CC-PVDZ-JKFIT + DEF2-UNIVERSAL-JKFIT
  @DF-UKS Final Energy:  -355.20244715319592
    Total Energy =                       -355.2024471531959762
 Dipole X            :          0.0000000            0.0000000            0.0000000
 Dipole Y            :          0.0000000            0.0000000            0.0000000
 Dipole Z            :          1.6144721           -0.6401447            0.9743274
 Magnitude           :                                                    0.9743274
    Molecular point group: c2v
  Basis Set: CC-PVDZ
    Blend: CC-PVDZ
  Basis Set: (CC-PVDZ AUX)
    Blend: CC-PVDZ-JKFIT + DEF2-UNIVERSAL-JKFIT
  Basis Set: CC-PVDZ
    Blend: CC-PVDZ
  Basis Set: (CC-PVDZ AUX)
    Blend: CC-PVDZ-JKFIT + DEF2-UNIVERSAL-JKFIT
  @DF-UKS Final Energy:  -355.40215649550260
    Total Energy =                       -355.4021564955025951
  Basis Set: CC-PVDZ
    Blend: CC-PVDZ
  Basis Set: (CC-PVDZ AUX)
    Blend: CC-PVDZ-JKFIT + DEF2-UNIVERSAL-JKFIT
  Basis Set: CC-PVDZ
    Blend: CC-PVDZ
  @DF-UKS Final Energy:  -355.54025049661919
    Total Energy =                       -355.5402504966191941
  @DF-UKS Final Energy:  -355.60642128696037
    Total Energy =                       -355.6064212869603125
  @DF-UKS Final Energy:  -355.62938702706390
    Total Energy =                       -355.6293870270639559
  @DF-UKS Final Energy:  -355.63592251817624
    Total Energy =                       -355.6359225181762440
  @DF-UKS Final Energy:  -355.63688796293576
    Total Energy =                       -355.6368879629357593
  @DF-UKS Final Energy:  -355.63705126835703
    Total Energy =                       -355.6370512683570269
  @DF-UKS Final Energy:  -355.70542972607342
    Total Energy =                       -355.7054297260734188
  @DF-UKS Final Energy:  -355.70965622011590
    Total Energy =                       -355.7096562201159031
  @DF-UKS Final Energy:  -355.70964430580398
    Total Energy =                       -355.7096443058039767
  @DF-UKS Final Energy:  -355.71090037984561
    Total Energy =                       -355.7109003798456115
  @DF-UKS Final Energy:  -355.71124995748369
    Total Energy =                       -355.7112499574836875
  @DF-UKS Final Energy:  -355.71127918465788
    Total Energy =                       -355.7112791846578830
  Basis Set: (CC-PVDZ AUX)
    Blend: CC-PVDZ-JKFIT + DEF2-UNIVERSAL-JKFIT
  Basis Set: CC-PVDZ
    Blend: CC-PVDZ
  Basis Set: (CC-PVDZ AUX)
    Blend: CC-PVDZ-JKFIT + DEF2-UNIVERSAL-JKFIT
  @DF-UKS Final Energy:  -355.71128207395259
    Total Energy =                       -355.7112820739525887
  Basis Set: CC-PVDZ
    Blend: CC-PVDZ
  Basis Set: (CC-PVDZ AUX)
    Blend: CC-PVDZ-JKFIT + DEF2-UNIVERSAL-JKFIT
  Charge       = 1
  Multiplicity = 3
  Basis Set: CC-PVDZ
    Blend: CC-PVDZ
  Basis Set: (CC-PVDZ AUX)
    Blend: CC-PVDZ-JKFIT + DEF2-UNIVERSAL-JKFIT

    Orbital Energies [Eh]
    ---------------------

    Alpha Occupied:

       1A1   -77.357545     2A1    -6.823244     1B1    -4.987947
       1B2    -4.987947     3A1    -4.980447     4A1    -4.414988
       5A1    -0.837546     6A1    -0.539663     2B1    -0.488352
       2B2    -0.488352

    Alpha Virtual:

       7A1    -0.373067     3B2    -0.272737     3B1    -0.272737
       8A1    -0.125729     9A1    -0.050039     4B2    -0.028092
       4B1    -0.028092    10A1    -0.020520     5B1     0.137413
       5B2     0.137413     1A2     0.153346    11A1     0.153347
      12A1     0.166864     6B2     0.237363     6B1     0.237363
       2A2     0.286760    13A1     0.286761    14A1     0.319699
      15A1     0.500200     7B1     0.510635     7B2     0.510635
      16A1     0.727396

    Beta Occupied:

       1A1   -77.349972     2A1    -6.815120     3A1    -4.975555
       1B1    -4.972547     1B2    -4.972547     4A1    -4.414334
       5A1    -0.766412     6A1    -0.514294

    Beta Virtual:

       7A1    -0.370375     2B1    -0.368327     2B2    -0.368327
       3B2    -0.244659     3B1    -0.244659     8A1    -0.114149
       9A1    -0.026739     4B2    -0.022367     4B1    -0.022367
      10A1    -0.021808     5B1     0.167485     5B2     0.167485
      11A1     0.176148    12A1     0.197286     1A2     0.197286
       6B2     0.274443     6B1     0.274443    13A1     0.341829
      14A1     0.342853     2A2     0.342854    15A1     0.518105
       7B1     0.538430     7B2     0.538430    16A1     0.748384

    Final Occupation by Irrep:
             A1    A2    B1    B2
    DOCC [     6,    0,    1,    1 ]
    SOCC [     0,    0,    1,    1 ]
    NA   [     6,    0,    2,    2 ]
    NB   [     6,    0,    1,    1 ]

  @DF-UKS Final Energy:  -355.71128229877695

   => Energetics <=

    Nuclear Repulsion Energy =             15.6235471039478249
    One-Electron Energy =                -517.1662228464128930
    Two-Electron Energy =                 166.6091962668903079
    DFT Exchange-Correlation Energy =     -20.7778028232022045
    Empirical Dispersion Energy =           0.0000000000000000
    VV10 Nonlocal Energy =                  0.0000000000000000
    Total Energy =                       -355.7112822987769505

  UHF NO Occupations:
  HONO-2 :    6 A1 1.9978282
  HONO-1 :    2 B1 1.0000000
  HONO-0 :    2 B2 1.0000000
  LUNO+0 :    7 A1 0.0021718
  LUNO+1 :    8 A1 0.0012239
  LUNO+2 :    9 A1 0.0000000
  LUNO+3 :    3 B2 0.0000000

Computation Completed

Properties will be evaluated at   0.000000,   0.000000,   0.000000 [a0]

Properties computed using the SCF density matrix

 Multipole Moments:

 ------------------------------------------------------------------------------------
     Multipole            Electronic (a.u.)      Nuclear  (a.u.)        Total (a.u.)
 ------------------------------------------------------------------------------------

 L = 1.  Multiply by 2.5417464519 to convert [e a0] to [Debye]
 Dipole X            :          0.0000000            0.0000000            0.0000000
 Dipole Y            :          0.0000000            0.0000000            0.0000000
 Dipole Z            :          3.6151455           -1.0841007            2.5310448
 Magnitude           :                                                    2.5310448

 ------------------------------------------------------------------------------------

*** tstop() called on Joses-MacBook-Pro-2.local at Thu Jul 17 13:23:55 2025
Module time:
	user time   =       2.17 seconds =       0.04 minutes
	system time =       5.09 seconds =       0.08 minutes
	total time  =          0 seconds =       0.00 minutes
Total time:
	user time   =      63.20 seconds =       1.05 minutes
	system time =     117.27 seconds =       1.95 minutes
	total time  =         17 seconds =       0.28 minutes

*** tstart() called on Joses-MacBook-Pro-2.local
*** at Thu Jul 17 13:23:55 2025

         ------------------------------------------------------------
                                   SCF GRAD
                          Rob Parrish, Justin Turney,
                       Andy Simmonett, and Alex Sokolov
         ------------------------------------------------------------

  ==> Geometry <==

    Molecular point group: c2v
    Full point group: C_inf_v

    Geometry (in Angstrom), charge = 1, multiplicity = 3:

       Center              X                  Y                   Z               Mass
    ------------   -----------------  -----------------  -----------------  -----------------
         BE           0.000000000000     0.000000000000     1.574197919120     9.012183065000
         P            0.000000000000     0.000000000000    -0.458031537415    30.973761998420

  Nuclear repulsion =   15.623547103947825

  ==> Basis Set <==

  Basis Set: CC-PVDZ
    Blend: CC-PVDZ
    Number of shells: 14
    Number of basis functions: 32
    Number of Cartesian functions: 34
    Spherical Harmonics?: true
    Max angular momentum: 2

  ==> DFJKGrad: Density-Fitted SCF Gradients <==

    Gradient:                    1
    J tasked:                  Yes
    K tasked:                  Yes
    wK tasked:                  No
    OpenMP threads:              1
    Integrals threads:           1
    Memory [MiB]:              375
    Schwarz Cutoff:          1E-12
    Fitting Condition:       1E-10

   => Auxiliary Basis Set <=

  Basis Set: (CC-PVDZ AUX)
    Blend: CC-PVDZ-JKFIT + DEF2-UNIVERSAL-JKFIT
    Number of shells: 53
    Number of basis functions: 163
    Number of Cartesian functions: 190
    Spherical Harmonics?: true
    Max angular momentum: 3

  ==> DFT Potential <==

   => LibXC <=

    Version 6.2.2
    S. Lehtola, C. Steigemann, M. J.T. Oliveira, and M. A.L. Marques.,  SoftwareX 7, 1â€“5 (2018) (10.1016/j.softx.2017.11.002)

   => Composite Functional: B3LYP <=

    B3LYP Hyb-GGA Exchange-Correlation Functional

    P. J. Stephens, F. J. Devlin, C. F. Chabalowski, and M. J. Frisch.,  J. Phys. Chem. 98, 11623 (1994) (10.1021/j100096a001)

    Deriv               =              1
    GGA                 =           TRUE
    Meta                =          FALSE

    Exchange Hybrid     =           TRUE
    MP2 Hybrid          =          FALSE

   => Exchange Functionals <=

    0.0800   Slater exchange
    0.7200         Becke 88

   => Exact (HF) Exchange <=

    0.2000               HF

   => Correlation Functionals <=

    0.1900   Vosko, Wilk & Nusair (VWN5_RPA)
    0.8100   Lee, Yang & Parr

   => LibXC Density Thresholds  <==

    XC_HYB_GGA_XC_B3LYP:  1.00E-15

   => Molecular Quadrature <=

    Radial Scheme          =       TREUTLER
    Pruning Scheme         =           NONE
    Nuclear Scheme         =       TREUTLER

    Blocking Scheme        =         OCTREE
    BS radius alpha        =              1
    Pruning alpha          =              1
    Radial Points          =             75
    Spherical Points       =            302
    Total Points           =          42772
    Total Blocks           =            402
    Max Points             =            255
    Max Functions          =             32
    Weights Tolerance      =       1.00E-15

  -Total Gradient:
     Atom            X                  Y                   Z
    ------   -----------------  -----------------  -----------------
       1       -0.000000000000    -0.000000000000    -0.000041363538
       2        0.000000000000     0.000000000000     0.000040098590

*** tstop() called on Joses-MacBook-Pro-2.local at Thu Jul 17 13:23:55 2025
Module time:
	user time   =       0.95 seconds =       0.02 minutes
	system time =       1.53 seconds =       0.03 minutes
	total time  =          0 seconds =       0.00 minutes
Total time:
	user time   =      64.15 seconds =       1.07 minutes
	system time =     118.80 seconds =       1.98 minutes
	total time  =         17 seconds =       0.28 minutes

    			-----------------------------------------

    			 OPTKING 3.0: for geometry optimizations

    			     By R.A. King, Bethel University

    			        with contributions from

    			    A.V. Copan, J. Cayton, A. Heide

    			-----------------------------------------

	                            ===> Fragment 1 <==

	 Z (Atomic Numbers)          Masses                          Geom
	       4.000000             9.012183          0.00000000  0.00000000  2.97480293
	      15.000000            30.973762          0.00000000  0.00000000 -0.86555416

	 - Coordinate -           - BOHR/RAD -       - ANG/DEG -
	 R(1,2)           =         3.840357           2.032229

	        --- Internal Coordinate Step in ANG or DEG, aJ/ANG or AJ/DEG ---
	-------------------------------------------------------------------------------
	           Coordinate      Previous         Force          Change          New
	           ----------      --------        ------          ------        ------
	               R(1,2)       2.03223        0.00034        0.00022       2.03245
	-------------------------------------------------------------------------------

	                                 ==> Convergence Check <==

	Measures of convergence in internal coordinates in au.

	Criteria marked as inactive (o), active & met (*), and active & unmet ( ).

	----------------------------------------------------------------------------------------------
	   Step    Total Energy     Delta E     Max Force     RMS Force      Max Disp      RMS Disp
	----------------------------------------------------------------------------------------------
	  Convergence Criteria     1.00e-06 *    3.00e-04 *             o    1.20e-03 *             o
	----------------------------------------------------------------------------------------------
	    16    -355.71128230   -2.25e-07 *    4.07e-05 *    4.07e-05 o    4.21e-04 *    4.21e-04 o  ~
	----------------------------------------------------------------------------------------------

Next Geometry in Ang
	Fragment 1 (Ang)

	   Be   0.0000000000   0.0000000000   1.5743093386
	    P   0.0000000000   0.0000000000  -0.4581429569

    Final optimized geometry and variables:
    Molecular point group: c2v
    Full point group: C_inf_v

    Geometry (in Angstrom), charge = 1, multiplicity = 3:

    BE           0.000000000000     0.000000000000     1.574197919120
    P            0.000000000000     0.000000000000    -0.458031537415

    Psi4 stopped on: Thursday, 17 July 2025 01:23PM
    Psi4 wall time for execution: 0:00:18.13

*** Psi4 exiting successfully. Buy a developer a beer!
