                               Psi4 1.9.1 release

  ==> Input File <==

--------------------------------------------------------------------------
molecule {
1 3
Al   0.00000        0.60000        0.00000
Ar   0.00000       -0.60000        0.00000
}

set {
basis              cc-pvdz
reference          uks
maxiter            500
geom_maxiter       500
DAMPING_PERCENTAGE 1
guess              SAP
}

optimize('b3lyp')
--------------------------------------------------------------------------

    Molecular point group: c2v
  Charge       = 1
  Multiplicity = 3
  Basis Set: CC-PVDZ
    Blend: CC-PVDZ
  Basis Set: (CC-PVDZ AUX)
    Blend: CC-PVDZ-JKFIT
  @DF-UKS Final Energy:  -768.24383131549450
    Total Energy =                       -768.2438313154946172
 Dipole X            :          0.0000000            0.0000000            0.0000000
 Dipole Y            :          0.0000000            0.0000000            0.0000000
 Dipole Z            :         -1.5977956            1.1464141           -0.4513815
 Magnitude           :                                                    0.4513815
    Molecular point group: c2v
  Basis Set: CC-PVDZ
    Blend: CC-PVDZ
  Basis Set: (CC-PVDZ AUX)
    Blend: CC-PVDZ-JKFIT
  Basis Set: CC-PVDZ
    Blend: CC-PVDZ
  Basis Set: (CC-PVDZ AUX)
    Blend: CC-PVDZ-JKFIT
  @DF-UKS Final Energy:  -768.28001570221079
    Total Energy =                       -768.2800157022107896
  Basis Set: CC-PVDZ
    Blend: CC-PVDZ
  Basis Set: (CC-PVDZ AUX)
    Blend: CC-PVDZ-JKFIT
  Basis Set: CC-PVDZ
    Blend: CC-PVDZ
  @DF-UKS Final Energy:  -768.34775680984308
    Total Energy =                       -768.3477568098430766
  @DF-UKS Final Energy:  -768.57319845054383
    Total Energy =                       -768.5731984505438277
  @DF-UKS Final Energy:  -769.11252912789496
    Total Energy =                       -769.1125291278949589
  @DF-UKS Final Energy:  -769.30069932843992
    Total Energy =                       -769.3006993284399186
  @DF-UKS Final Energy:  -769.42314848013507
    Total Energy =                       -769.4231484801350689
  @DF-UKS Final Energy:  -769.49251606759537
    Total Energy =                       -769.4925160675954885
  @DF-UKS Final Energy:  -769.52609328419828
    Total Energy =                       -769.5260932841983958
  @DF-UKS Final Energy:  -769.54176519237637
    Total Energy =                       -769.5417651923763742
  @DF-UKS Final Energy:  -769.54820716050563
    Total Energy =                       -769.5482071605056262
  @DF-UKS Final Energy:  -769.55037811254567
    Total Energy =                       -769.5503781125456726
  @DF-UKS Final Energy:  -769.55081147150554
    Total Energy =                       -769.5508114715054262
  @DF-UKS Final Energy:  -769.55093296460950
    Total Energy =                       -769.5509329646095011
  @DF-UKS Final Energy:  -769.55094754998117
    Total Energy =                       -769.5509475499811742
  Basis Set: (CC-PVDZ AUX)
    Blend: CC-PVDZ-JKFIT
  Basis Set: CC-PVDZ
    Blend: CC-PVDZ
  Basis Set: (CC-PVDZ AUX)
    Blend: CC-PVDZ-JKFIT
  @DF-UKS Final Energy:  -769.55094935709235
    Total Energy =                       -769.5509493570923496
  Basis Set: CC-PVDZ
    Blend: CC-PVDZ
  Basis Set: (CC-PVDZ AUX)
    Blend: CC-PVDZ-JKFIT
  Charge       = 1
  Multiplicity = 3
  Basis Set: CC-PVDZ
    Blend: CC-PVDZ
  Basis Set: (CC-PVDZ AUX)
    Blend: CC-PVDZ-JKFIT

    Orbital Energies [Eh]
    ---------------------

    Alpha Occupied:

       1A1  -115.370348     2A1   -56.405875     3A1   -11.406628
       4A1    -8.959598     1B1    -8.955165     1B2    -8.954872
       5A1    -4.479412     2B1    -3.033608     6A1    -3.033007
       2B2    -3.029097     7A1    -1.234880     8A1    -0.726532
       3B1    -0.679784     3B2    -0.678629     9A1    -0.575854
       4B2    -0.384633

    Alpha Virtual:

       4B1    -0.320052    10A1    -0.280089    11A1    -0.059478
      12A1    -0.012151     5B2    -0.010118     1A2    -0.000599
       6B2     0.000166     5B1     0.001039    13A1     0.006640
       6B1     0.007692    14A1     0.069561     7B1     0.397539
      15A1     0.399549     7B2     0.399966     2A2     0.580005
      16A1     0.580017    17A1     0.599986     8B1     0.603857
       8B2     0.604381    18A1     0.894499

    Beta Occupied:

       1A1  -115.369371     2A1   -56.398180     3A1   -11.405679
       4A1    -8.957107     1B1    -8.954570     1B2    -8.953921
       5A1    -4.467810     2B1    -3.026502     6A1    -3.025747
       2B2    -3.012599     7A1    -1.229717     8A1    -0.711689
       3B1    -0.678152     3B2    -0.675287

    Beta Virtual:

       9A1    -0.444664     4B1    -0.271560     4B2    -0.240860
      10A1    -0.236341    11A1    -0.041653    12A1     0.011118
       5B1     0.022648     6B1     0.038037     5B2     0.042041
       6B2     0.062305    13A1     0.074235     1A2     0.079344
      14A1     0.115064     7B1     0.399810     7B2     0.403740
      15A1     0.404828    16A1     0.581901     2A2     0.581916
      17A1     0.606423     8B1     0.610299     8B2     0.614213
      18A1     0.903743

    Final Occupation by Irrep:
             A1    A2    B1    B2
    DOCC [     8,    0,    3,    3 ]
    SOCC [     1,    0,    0,    1 ]
    NA   [     9,    0,    3,    4 ]
    NB   [     8,    0,    3,    3 ]

  @DF-UKS Final Energy:  -769.55094957463700

   => Energetics <=

    Nuclear Repulsion Energy =             49.0376233231987158
    One-Electron Energy =               -1154.1813605056390770
    Two-Electron Energy =                 375.2748224703836399
    DFT Exchange-Correlation Energy =     -39.6820348625802879
    Empirical Dispersion Energy =           0.0000000000000000
    VV10 Nonlocal Energy =                  0.0000000000000000
    Total Energy =                       -769.5509495746370021

  UHF NO Occupations:
  HONO-2 :    8 A1 1.9998617
  HONO-1 :    9 A1 1.0000000
  HONO-0 :    4 B2 1.0000000
  LUNO+0 :   10 A1 0.0001383
  LUNO+1 :    4 B1 0.0000225
  LUNO+2 :    5 B2 0.0000146
  LUNO+3 :   11 A1 0.0000040

Computation Completed

Properties will be evaluated at   0.000000,   0.000000,   0.000000 [a0]

Properties computed using the SCF density matrix

 Multipole Moments:

 ------------------------------------------------------------------------------------
     Multipole            Electronic (a.u.)      Nuclear  (a.u.)        Total (a.u.)
 ------------------------------------------------------------------------------------

 L = 1.  Multiply by 2.5417464519 to convert [e a0] to [Debye]
 Dipole X            :          0.0000000            0.0000000            0.0000000
 Dipole Y            :          0.0000000            0.0000000            0.0000000
 Dipole Z            :         -0.6659426            2.4123917            1.7464491
 Magnitude           :                                                    1.7464491

 ------------------------------------------------------------------------------------

*** tstop() called on Joses-MacBook-Pro-2.local at Thu Jul 17 15:36:04 2025
Module time:
	user time   =       7.22 seconds =       0.12 minutes
	system time =       2.04 seconds =       0.03 minutes
	total time  =          1 seconds =       0.02 minutes
Total time:
	user time   =     189.67 seconds =       3.16 minutes
	system time =      47.63 seconds =       0.79 minutes
	total time  =         23 seconds =       0.38 minutes

*** tstart() called on Joses-MacBook-Pro-2.local
*** at Thu Jul 17 15:36:04 2025

         ------------------------------------------------------------
                                   SCF GRAD
                          Rob Parrish, Justin Turney,
                       Andy Simmonett, and Alex Sokolov
         ------------------------------------------------------------

  ==> Geometry <==

    Molecular point group: c2v
    Full point group: C_inf_v

    Geometry (in Angstrom), charge = 1, multiplicity = 3:

       Center              X                  Y                   Z               Mass
    ------------   -----------------  -----------------  -----------------  -----------------
         AL           0.000000000000     0.000000000000     1.507397552245    26.981538530000
         AR           0.000000000000     0.000000000000    -1.017754747259    39.962383123700

  Nuclear repulsion =   49.037623323198716

  ==> Basis Set <==

  Basis Set: CC-PVDZ
    Blend: CC-PVDZ
    Number of shells: 16
    Number of basis functions: 36
    Number of Cartesian functions: 38
    Spherical Harmonics?: true
    Max angular momentum: 2

  ==> DFJKGrad: Density-Fitted SCF Gradients <==

    Gradient:                    1
    J tasked:                  Yes
    K tasked:                  Yes
    wK tasked:                  No
    OpenMP threads:              1
    Integrals threads:           1
    Memory [MiB]:              375
    Schwarz Cutoff:          1E-12
    Fitting Condition:       1E-10

   => Auxiliary Basis Set <=

  Basis Set: (CC-PVDZ AUX)
    Blend: CC-PVDZ-JKFIT
    Number of shells: 72
    Number of basis functions: 224
    Number of Cartesian functions: 260
    Spherical Harmonics?: true
    Max angular momentum: 3

  ==> DFT Potential <==

   => LibXC <=

    Version 6.2.2
    S. Lehtola, C. Steigemann, M. J.T. Oliveira, and M. A.L. Marques.,  SoftwareX 7, 1â€“5 (2018) (10.1016/j.softx.2017.11.002)

   => Composite Functional: B3LYP <=

    B3LYP Hyb-GGA Exchange-Correlation Functional

    P. J. Stephens, F. J. Devlin, C. F. Chabalowski, and M. J. Frisch.,  J. Phys. Chem. 98, 11623 (1994) (10.1021/j100096a001)

    Deriv               =              1
    GGA                 =           TRUE
    Meta                =          FALSE

    Exchange Hybrid     =           TRUE
    MP2 Hybrid          =          FALSE

   => Exchange Functionals <=

    0.0800   Slater exchange
    0.7200         Becke 88

   => Exact (HF) Exchange <=

    0.2000               HF

   => Correlation Functionals <=

    0.1900   Vosko, Wilk & Nusair (VWN5_RPA)
    0.8100   Lee, Yang & Parr

   => LibXC Density Thresholds  <==

    XC_HYB_GGA_XC_B3LYP:  1.00E-15

   => Molecular Quadrature <=

    Radial Scheme          =       TREUTLER
    Pruning Scheme         =           NONE
    Nuclear Scheme         =       TREUTLER

    Blocking Scheme        =         OCTREE
    BS radius alpha        =              1
    Pruning alpha          =              1
    Radial Points          =             75
    Spherical Points       =            302
    Total Points           =          42679
    Total Blocks           =            398
    Max Points             =            256
    Max Functions          =             36
    Weights Tolerance      =       1.00E-15

  -Total Gradient:
     Atom            X                  Y                   Z
    ------   -----------------  -----------------  -----------------
       1        0.000000000000     0.000000000000    -0.000006325963
       2        0.000000000000    -0.000000000000     0.000048025793

*** tstop() called on Joses-MacBook-Pro-2.local at Thu Jul 17 15:36:04 2025
Module time:
	user time   =       2.81 seconds =       0.05 minutes
	system time =       0.80 seconds =       0.01 minutes
	total time  =          0 seconds =       0.00 minutes
Total time:
	user time   =     192.48 seconds =       3.21 minutes
	system time =      48.43 seconds =       0.81 minutes
	total time  =         23 seconds =       0.38 minutes

    			-----------------------------------------

    			 OPTKING 3.0: for geometry optimizations

    			     By R.A. King, Bethel University

    			        with contributions from

    			    A.V. Copan, J. Cayton, A. Heide

    			-----------------------------------------

	                            ===> Fragment 1 <==

	 Z (Atomic Numbers)          Masses                          Geom
	      13.000000            26.981539          0.00000000  0.00000000  2.84856854
	      18.000000            39.962383          0.00000000  0.00000000 -1.92327774

	 - Coordinate -           - BOHR/RAD -       - ANG/DEG -
	 R(1,2)           =         4.771846           2.525152

	        --- Internal Coordinate Step in ANG or DEG, aJ/ANG or AJ/DEG ---
	-------------------------------------------------------------------------------
	           Coordinate      Previous         Force          Change          New
	           ----------      --------        ------          ------        ------
	               R(1,2)       2.52515        0.00022        0.00044       2.52559
	-------------------------------------------------------------------------------

	                                 ==> Convergence Check <==

	Measures of convergence in internal coordinates in au.

	Criteria marked as inactive (o), active & met (*), and active & unmet ( ).

	----------------------------------------------------------------------------------------------
	   Step    Total Energy     Delta E     Max Force     RMS Force      Max Disp      RMS Disp
	----------------------------------------------------------------------------------------------
	  Convergence Criteria     1.00e-06 *    3.00e-04 *             o    1.20e-03 *             o
	----------------------------------------------------------------------------------------------
	    17    -769.55094957   -2.18e-07 *    2.72e-05 *    2.72e-05 o    8.25e-04 *    8.25e-04 o  ~
	----------------------------------------------------------------------------------------------

Next Geometry in Ang
	Fragment 1 (Ang)

	   Al   0.0000000000   0.0000000000   1.5076159564
	   Ar   0.0000000000   0.0000000000  -1.0179731514

    Final optimized geometry and variables:
    Molecular point group: c2v
    Full point group: C_inf_v

    Geometry (in Angstrom), charge = 1, multiplicity = 3:

    AL           0.000000000000     0.000000000000     1.507397552245
    AR           0.000000000000     0.000000000000    -1.017754747259

    Psi4 stopped on: Thursday, 17 July 2025 03:36PM
    Psi4 wall time for execution: 0:00:23.35

*** Psi4 exiting successfully. Buy a developer a beer!
