                               Psi4 1.9.1 release

  ==> Input File <==

--------------------------------------------------------------------------
molecule {
1 3
He   0.00000        0.60000        0.00000
P   0.00000       -0.60000        0.00000
}

set {
basis              cc-pvdz
reference          uks
maxiter            500
geom_maxiter       500
DAMPING_PERCENTAGE 1
guess              SAP
}

optimize('b3lyp')
--------------------------------------------------------------------------

    Molecular point group: c2v
  Charge       = 1
  Multiplicity = 3
  Basis Set: CC-PVDZ
    Blend: CC-PVDZ
  Basis Set: (CC-PVDZ AUX)
    Blend: CC-PVDZ-JKFIT + DEF2-UNIVERSAL-JKFIT
  @DF-UKS Final Energy:  -343.68968106415161
    Total Energy =                       -343.6896810641516140
 Dipole X            :          0.0000000            0.0000000            0.0000000
 Dipole Y            :          0.0000000            0.0000000            0.0000000
 Dipole Z            :          0.5699063            0.1237348            0.6936412
 Magnitude           :                                                    0.6936412
    Molecular point group: c2v
  Basis Set: CC-PVDZ
    Blend: CC-PVDZ
  Basis Set: (CC-PVDZ AUX)
    Blend: CC-PVDZ-JKFIT + DEF2-UNIVERSAL-JKFIT
  Basis Set: CC-PVDZ
    Blend: CC-PVDZ
  Basis Set: (CC-PVDZ AUX)
    Blend: CC-PVDZ-JKFIT + DEF2-UNIVERSAL-JKFIT
  @DF-UKS Final Energy:  -343.77537052782981
    Total Energy =                       -343.7753705278298071
  Basis Set: CC-PVDZ
    Blend: CC-PVDZ
  Basis Set: (CC-PVDZ AUX)
    Blend: CC-PVDZ-JKFIT + DEF2-UNIVERSAL-JKFIT
  Basis Set: CC-PVDZ
    Blend: CC-PVDZ
  @DF-UKS Final Energy:  -343.78900921096857
    Total Energy =                       -343.7890092109686293
  @DF-UKS Final Energy:  -343.80002470007571
    Total Energy =                       -343.8000247000757099
  @DF-UKS Final Energy:  -343.80377873925829
    Total Energy =                       -343.8037787392582914
  @DF-UKS Final Energy:  -343.80569779126716
    Total Energy =                       -343.8056977912671641
  @DF-UKS Final Energy:  -343.80668329402556
    Total Energy =                       -343.8066832940255608
  @DF-UKS Final Energy:  -343.80704385378391
    Total Energy =                       -343.8070438537839095
  @DF-UKS Final Energy:  -343.80713572813892
    Total Energy =                       -343.8071357281389169
  @DF-UKS Final Energy:  -343.80716756375847
    Total Energy =                       -343.8071675637584690
  @DF-UKS Final Energy:  -343.80717396748128
    Total Energy =                       -343.8071739674812761
  Basis Set: (CC-PVDZ AUX)
    Blend: CC-PVDZ-JKFIT + DEF2-UNIVERSAL-JKFIT
  Basis Set: CC-PVDZ
    Blend: CC-PVDZ
  Basis Set: (CC-PVDZ AUX)
    Blend: CC-PVDZ-JKFIT + DEF2-UNIVERSAL-JKFIT
  @DF-UKS Final Energy:  -343.80717554482101
    Total Energy =                       -343.8071755448210638
  Basis Set: CC-PVDZ
    Blend: CC-PVDZ
  Basis Set: (CC-PVDZ AUX)
    Blend: CC-PVDZ-JKFIT + DEF2-UNIVERSAL-JKFIT
  Charge       = 1
  Multiplicity = 3
  Basis Set: CC-PVDZ
    Blend: CC-PVDZ
  Basis Set: (CC-PVDZ AUX)
    Blend: CC-PVDZ-JKFIT + DEF2-UNIVERSAL-JKFIT

    Orbital Energies [Eh]
    ---------------------

    Alpha Occupied:

       1A1   -77.527673     2A1    -6.985119     3A1    -5.151758
       1B2    -5.146567     1B1    -5.146567     4A1    -0.980638
       5A1    -0.901202     2B2    -0.579176     2B1    -0.579176

    Alpha Virtual:

       6A1    -0.479862     7A1     0.061213     8A1     0.100167
       1A2     0.103950     9A1     0.103950     3B1     0.107906
       3B2     0.107906     4B1     0.117191     4B2     0.117191
      10A1     0.192027    11A1     0.999502     5B2     1.902360
       5B1     1.902360    12A1     2.013374

    Beta Occupied:

       1A1   -77.517868     2A1    -6.974801     3A1    -5.146275
       1B2    -5.126432     1B1    -5.126432     4A1    -0.968502
       5A1    -0.826601

    Beta Virtual:

       6A1    -0.452396     2B1    -0.427731     2B2    -0.427731
       7A1     0.087579     8A1     0.127680     3B1     0.158316
       3B2     0.158316     4B1     0.168502     4B2     0.168502
       9A1     0.204502     1A2     0.204502    10A1     0.213396
      11A1     1.000151     5B2     1.902190     5B1     1.902190
      12A1     2.014680

    Final Occupation by Irrep:
             A1    A2    B1    B2
    DOCC [     5,    0,    1,    1 ]
    SOCC [     0,    0,    1,    1 ]
    NA   [     5,    0,    2,    2 ]
    NB   [     5,    0,    1,    1 ]

  @DF-UKS Final Energy:  -343.80717572490124

   => Energetics <=

    Nuclear Repulsion Energy =              7.3770414791238768
    One-Electron Energy =                -483.9348653679644485
    Two-Electron Energy =                 152.0445994644247492
    DFT Exchange-Correlation Energy =     -19.2939513004854639
    Empirical Dispersion Energy =           0.0000000000000000
    VV10 Nonlocal Energy =                  0.0000000000000000
    Total Energy =                       -343.8071757249012990

  UHF NO Occupations:
  HONO-2 :    5 A1 1.9985182
  HONO-1 :    2 B2 1.0000000
  HONO-0 :    2 B1 1.0000000
  LUNO+0 :    6 A1 0.0014818
  LUNO+1 :    7 A1 0.0000276
  LUNO+2 :    8 A1 0.0000000
  LUNO+3 :    3 B2 0.0000000

Computation Completed

Properties will be evaluated at   0.000000,   0.000000,   0.000000 [a0]

Properties computed using the SCF density matrix

 Multipole Moments:

 ------------------------------------------------------------------------------------
     Multipole            Electronic (a.u.)      Nuclear  (a.u.)        Total (a.u.)
 ------------------------------------------------------------------------------------

 L = 1.  Multiply by 2.5417464519 to convert [e a0] to [Debye]
 Dipole X            :          0.0000000            0.0000000            0.0000000
 Dipole Y            :          0.0000000            0.0000000            0.0000000
 Dipole Z            :         -0.4360805            0.2218967           -0.2141838
 Magnitude           :                                                    0.2141838

 ------------------------------------------------------------------------------------

*** tstop() called on Joses-MacBook-Pro-2.local at Thu Jul 17 12:40:50 2025
Module time:
	user time   =       2.15 seconds =       0.04 minutes
	system time =       3.25 seconds =       0.05 minutes
	total time  =          0 seconds =       0.00 minutes
Total time:
	user time   =      50.90 seconds =       0.85 minutes
	system time =      62.46 seconds =       1.04 minutes
	total time  =        173 seconds =       2.88 minutes

*** tstart() called on Joses-MacBook-Pro-2.local
*** at Thu Jul 17 12:40:50 2025

         ------------------------------------------------------------
                                   SCF GRAD
                          Rob Parrish, Justin Turney,
                       Andy Simmonett, and Alex Sokolov
         ------------------------------------------------------------

  ==> Geometry <==

    Molecular point group: c2v
    Full point group: C_inf_v

    Geometry (in Angstrom), charge = 1, multiplicity = 3:

       Center              X                  Y                   Z               Mass
    ------------   -----------------  -----------------  -----------------  -----------------
         HE           0.000000000000     0.000000000000     1.905721543138     4.002603254130
         P            0.000000000000     0.000000000000    -0.246268026803    30.973761998420

  Nuclear repulsion =    7.377041479123877

  ==> Basis Set <==

  Basis Set: CC-PVDZ
    Blend: CC-PVDZ
    Number of shells: 11
    Number of basis functions: 23
    Number of Cartesian functions: 24
    Spherical Harmonics?: true
    Max angular momentum: 2

  ==> DFJKGrad: Density-Fitted SCF Gradients <==

    Gradient:                    1
    J tasked:                  Yes
    K tasked:                  Yes
    wK tasked:                  No
    OpenMP threads:              1
    Integrals threads:           1
    Memory [MiB]:              375
    Schwarz Cutoff:          1E-12
    Fitting Condition:       1E-10

   => Auxiliary Basis Set <=

  Basis Set: (CC-PVDZ AUX)
    Blend: CC-PVDZ-JKFIT + DEF2-UNIVERSAL-JKFIT
    Number of shells: 45
    Number of basis functions: 135
    Number of Cartesian functions: 155
    Spherical Harmonics?: true
    Max angular momentum: 3

  ==> DFT Potential <==

   => LibXC <=

    Version 6.2.2
    S. Lehtola, C. Steigemann, M. J.T. Oliveira, and M. A.L. Marques.,  SoftwareX 7, 1â€“5 (2018) (10.1016/j.softx.2017.11.002)

   => Composite Functional: B3LYP <=

    B3LYP Hyb-GGA Exchange-Correlation Functional

    P. J. Stephens, F. J. Devlin, C. F. Chabalowski, and M. J. Frisch.,  J. Phys. Chem. 98, 11623 (1994) (10.1021/j100096a001)

    Deriv               =              1
    GGA                 =           TRUE
    Meta                =          FALSE

    Exchange Hybrid     =           TRUE
    MP2 Hybrid          =          FALSE

   => Exchange Functionals <=

    0.0800   Slater exchange
    0.7200         Becke 88

   => Exact (HF) Exchange <=

    0.2000               HF

   => Correlation Functionals <=

    0.1900   Vosko, Wilk & Nusair (VWN5_RPA)
    0.8100   Lee, Yang & Parr

   => LibXC Density Thresholds  <==

    XC_HYB_GGA_XC_B3LYP:  1.00E-15

   => Molecular Quadrature <=

    Radial Scheme          =       TREUTLER
    Pruning Scheme         =           NONE
    Nuclear Scheme         =       TREUTLER

    Blocking Scheme        =         OCTREE
    BS radius alpha        =              1
    Pruning alpha          =              1
    Radial Points          =             75
    Spherical Points       =            302
    Total Points           =          42743
    Total Blocks           =            380
    Max Points             =            253
    Max Functions          =             23
    Weights Tolerance      =       1.00E-15

  -Total Gradient:
     Atom            X                  Y                   Z
    ------   -----------------  -----------------  -----------------
       1        0.000000000000     0.000000000000    -0.000007661252
       2        0.000000000000    -0.000000000000     0.000015898767

*** tstop() called on Joses-MacBook-Pro-2.local at Thu Jul 17 12:40:51 2025
Module time:
	user time   =       0.56 seconds =       0.01 minutes
	system time =       1.34 seconds =       0.02 minutes
	total time  =          1 seconds =       0.02 minutes
Total time:
	user time   =      51.46 seconds =       0.86 minutes
	system time =      63.80 seconds =       1.06 minutes
	total time  =        174 seconds =       2.90 minutes

    			-----------------------------------------

    			 OPTKING 3.0: for geometry optimizations

    			     By R.A. King, Bethel University

    			        with contributions from

    			    A.V. Copan, J. Cayton, A. Heide

    			-----------------------------------------

	                            ===> Fragment 1 <==

	 Z (Atomic Numbers)          Masses                          Geom
	       2.000000             4.002603          0.00000000  0.00000000  3.60129179
	      15.000000            30.973762          0.00000000  0.00000000 -0.46537912

	 - Coordinate -           - BOHR/RAD -       - ANG/DEG -
	 R(1,2)           =         4.066671           2.151990

	        --- Internal Coordinate Step in ANG or DEG, aJ/ANG or AJ/DEG ---
	-------------------------------------------------------------------------------
	           Coordinate      Previous         Force          Change          New
	           ----------      --------        ------          ------        ------
	               R(1,2)       2.15199        0.00010        0.00058       2.15257
	-------------------------------------------------------------------------------

	                                 ==> Convergence Check <==

	Measures of convergence in internal coordinates in au.

	Criteria marked as inactive (o), active & met (*), and active & unmet ( ).

	----------------------------------------------------------------------------------------------
	   Step    Total Energy     Delta E     Max Force     RMS Force      Max Disp      RMS Disp
	----------------------------------------------------------------------------------------------
	  Convergence Criteria     1.00e-06 *    3.00e-04 *             o    1.20e-03 *             o
	----------------------------------------------------------------------------------------------
	    13    -343.80717572   -1.80e-07 *    1.18e-05 *    1.18e-05 o    1.10e-03 *    1.10e-03 o  ~
	----------------------------------------------------------------------------------------------

Next Geometry in Ang
	Fragment 1 (Ang)

	   He   0.0000000000   0.0000000000   1.9060119849
	    P   0.0000000000   0.0000000000  -0.2465584686

    Final optimized geometry and variables:
    Molecular point group: c2v
    Full point group: C_inf_v

    Geometry (in Angstrom), charge = 1, multiplicity = 3:

    HE           0.000000000000     0.000000000000     1.905721543138
    P            0.000000000000     0.000000000000    -0.246268026803

    Psi4 stopped on: Thursday, 17 July 2025 12:40PM
    Psi4 wall time for execution: 0:02:54.01

*** Psi4 exiting successfully. Buy a developer a beer!
