                               Psi4 1.9.1 release

  ==> Input File <==

--------------------------------------------------------------------------
molecule {
1 3
C   0.00000        0.60000        0.00000
P   0.00000       -0.60000        0.00000
}

set {
basis              cc-pvdz
reference          uks
maxiter            500
geom_maxiter       500
DAMPING_PERCENTAGE 1
guess              SAP
}

optimize('b3lyp')
--------------------------------------------------------------------------

    Molecular point group: c2v
  Charge       = 1
  Multiplicity = 3
  Basis Set: CC-PVDZ
    Blend: CC-PVDZ
  Basis Set: (CC-PVDZ AUX)
    Blend: CC-PVDZ-JKFIT
  @DF-UKS Final Energy:  -378.58849521221191
    Total Energy =                       -378.5884952122119103
 Dipole X            :          0.0000000            0.0000000            0.0000000
 Dipole Y            :          0.0000000            0.0000000            0.0000000
 Dipole Z            :         -0.3388434            0.3083052           -0.0305382
 Magnitude           :                                                    0.0305382
    Molecular point group: c2v
  Basis Set: CC-PVDZ
    Blend: CC-PVDZ
  Basis Set: (CC-PVDZ AUX)
    Blend: CC-PVDZ-JKFIT
  Basis Set: CC-PVDZ
    Blend: CC-PVDZ
  Basis Set: (CC-PVDZ AUX)
    Blend: CC-PVDZ-JKFIT
  @DF-UKS Final Energy:  -378.80224310197110
    Total Energy =                       -378.8022431019711007
  Basis Set: CC-PVDZ
    Blend: CC-PVDZ
  Basis Set: (CC-PVDZ AUX)
    Blend: CC-PVDZ-JKFIT
  Basis Set: CC-PVDZ
    Blend: CC-PVDZ
  @DF-UKS Final Energy:  -378.88254395757093
    Total Energy =                       -378.8825439575709311
  @DF-UKS Final Energy:  -378.90558625040944
    Total Energy =                       -378.9055862504093852
  @DF-UKS Final Energy:  -378.91602354693168
    Total Energy =                       -378.9160235469316831
  @DF-UKS Final Energy:  -378.91856766447859
    Total Energy =                       -378.9185676644785872
  @DF-UKS Final Energy:  -378.91943367937864
    Total Energy =                       -378.9194336793786420
  @DF-UKS Final Energy:  -378.91956716016301
    Total Energy =                       -378.9195671601630124
  Basis Set: (CC-PVDZ AUX)
    Blend: CC-PVDZ-JKFIT
  Basis Set: CC-PVDZ
    Blend: CC-PVDZ
  Basis Set: (CC-PVDZ AUX)
    Blend: CC-PVDZ-JKFIT
  @DF-UKS Final Energy:  -378.91959137303468
    Total Energy =                       -378.9195913730347343
  Basis Set: CC-PVDZ
    Blend: CC-PVDZ
  Basis Set: (CC-PVDZ AUX)
    Blend: CC-PVDZ-JKFIT
  Charge       = 1
  Multiplicity = 3
  Basis Set: CC-PVDZ
    Blend: CC-PVDZ
  Basis Set: (CC-PVDZ AUX)
    Blend: CC-PVDZ-JKFIT

    Orbital Energies [Eh]
    ---------------------

    Alpha Occupied:

       1A1   -77.481374     2A1   -10.623938     3A1    -6.944497
       1B2    -5.111542     4A1    -5.105567     1B1    -5.100057
       5A1    -1.066397     6A1    -0.784734     7A1    -0.640316
       2B2    -0.632610     2B1    -0.602606

    Alpha Virtual:

       3B2    -0.398947     3B1    -0.372955     8A1    -0.187403
       9A1     0.072868     4B2     0.110783     4B1     0.131242
      10A1     0.143370     1A2     0.145031    11A1     0.154213
      12A1     0.164278     5B2     0.186433     5B1     0.209386
       6B2     0.254380     6B1     0.268792    13A1     0.564759
      14A1     0.630770     2A2     0.842729    15A1     0.842915
       7B2     1.054279     7B1     1.076729    16A1     1.446584

    Beta Occupied:

       1A1   -77.478641     2A1   -10.598357     3A1    -6.941588
       1B2    -5.103629     1B1    -5.100839     4A1    -5.099484
       5A1    -1.007186     6A1    -0.720476     2B1    -0.579903

    Beta Virtual:

       2B2    -0.501640     7A1    -0.468777     3B1    -0.346494
       3B2    -0.324526     8A1    -0.158424     9A1     0.089493
       4B1     0.133693     4B2     0.139411     1A2     0.162965
      10A1     0.165674    11A1     0.188747    12A1     0.209432
       5B1     0.234299     5B2     0.244126     6B1     0.282886
       6B2     0.287642    13A1     0.604452    14A1     0.670548
       2A2     0.901388    15A1     0.904388     7B1     1.134173
       7B2     1.142016    16A1     1.517769

    Final Occupation by Irrep:
             A1    A2    B1    B2
    DOCC [     6,    0,    2,    1 ]
    SOCC [     1,    0,    0,    1 ]
    NA   [     7,    0,    2,    2 ]
    NB   [     6,    0,    2,    1 ]

  @DF-UKS Final Energy:  -378.91959358504118

   => Energetics <=

    Nuclear Repulsion Energy =             29.0501747901866807
    One-Electron Energy =                -572.9920860737302064
    Two-Electron Energy =                 187.7569557092503203
    DFT Exchange-Correlation Energy =     -22.7346380107480286
    Empirical Dispersion Energy =           0.0000000000000000
    VV10 Nonlocal Energy =                  0.0000000000000000
    Total Energy =                       -378.9195935850412411

  UHF NO Occupations:
  HONO-2 :    2 B1 1.9862559
  HONO-1 :    2 B2 1.0000000
  HONO-0 :    7 A1 1.0000000
  LUNO+0 :    3 B1 0.0137441
  LUNO+1 :    8 A1 0.0007281
  LUNO+2 :    9 A1 0.0003490
  LUNO+3 :   10 A1 0.0000001

Computation Completed

Properties will be evaluated at   0.000000,   0.000000,   0.000000 [a0]

Properties computed using the SCF density matrix

 Multipole Moments:

 ------------------------------------------------------------------------------------
     Multipole            Electronic (a.u.)      Nuclear  (a.u.)        Total (a.u.)
 ------------------------------------------------------------------------------------

 L = 1.  Multiply by 2.5417464519 to convert [e a0] to [Debye]
 Dipole X            :          0.0000000            0.0000000            0.0000000
 Dipole Y            :          0.0000000            0.0000000            0.0000000
 Dipole Z            :         -0.5241045            0.4212059           -0.1028986
 Magnitude           :                                                    0.1028986

 ------------------------------------------------------------------------------------

*** tstop() called on Joses-MacBook-Pro-2.local at Thu Jul 17 13:45:26 2025
Module time:
	user time   =       2.42 seconds =       0.04 minutes
	system time =       4.60 seconds =       0.08 minutes
	total time  =          0 seconds =       0.00 minutes
Total time:
	user time   =      40.86 seconds =       0.68 minutes
	system time =      67.81 seconds =       1.13 minutes
	total time  =         10 seconds =       0.17 minutes

*** tstart() called on Joses-MacBook-Pro-2.local
*** at Thu Jul 17 13:45:26 2025

         ------------------------------------------------------------
                                   SCF GRAD
                          Rob Parrish, Justin Turney,
                       Andy Simmonett, and Alex Sokolov
         ------------------------------------------------------------

  ==> Geometry <==

    Molecular point group: c2v
    Full point group: C_inf_v

    Geometry (in Angstrom), charge = 1, multiplicity = 3:

       Center              X                  Y                   Z               Mass
    ------------   -----------------  -----------------  -----------------  -----------------
         C            0.000000000000     0.000000000000     1.181640792034    12.000000000000
         P            0.000000000000     0.000000000000    -0.457796812190    30.973761998420

  Nuclear repulsion =   29.050174790186681

  ==> Basis Set <==

  Basis Set: CC-PVDZ
    Blend: CC-PVDZ
    Number of shells: 14
    Number of basis functions: 32
    Number of Cartesian functions: 34
    Spherical Harmonics?: true
    Max angular momentum: 2

  ==> DFJKGrad: Density-Fitted SCF Gradients <==

    Gradient:                    1
    J tasked:                  Yes
    K tasked:                  Yes
    wK tasked:                  No
    OpenMP threads:              1
    Integrals threads:           1
    Memory [MiB]:              375
    Schwarz Cutoff:          1E-12
    Fitting Condition:       1E-10

   => Auxiliary Basis Set <=

  Basis Set: (CC-PVDZ AUX)
    Blend: CC-PVDZ-JKFIT
    Number of shells: 60
    Number of basis functions: 182
    Number of Cartesian functions: 211
    Spherical Harmonics?: true
    Max angular momentum: 3

  ==> DFT Potential <==

   => LibXC <=

    Version 6.2.2
    S. Lehtola, C. Steigemann, M. J.T. Oliveira, and M. A.L. Marques.,  SoftwareX 7, 1â€“5 (2018) (10.1016/j.softx.2017.11.002)

   => Composite Functional: B3LYP <=

    B3LYP Hyb-GGA Exchange-Correlation Functional

    P. J. Stephens, F. J. Devlin, C. F. Chabalowski, and M. J. Frisch.,  J. Phys. Chem. 98, 11623 (1994) (10.1021/j100096a001)

    Deriv               =              1
    GGA                 =           TRUE
    Meta                =          FALSE

    Exchange Hybrid     =           TRUE
    MP2 Hybrid          =          FALSE

   => Exchange Functionals <=

    0.0800   Slater exchange
    0.7200         Becke 88

   => Exact (HF) Exchange <=

    0.2000               HF

   => Correlation Functionals <=

    0.1900   Vosko, Wilk & Nusair (VWN5_RPA)
    0.8100   Lee, Yang & Parr

   => LibXC Density Thresholds  <==

    XC_HYB_GGA_XC_B3LYP:  1.00E-15

   => Molecular Quadrature <=

    Radial Scheme          =       TREUTLER
    Pruning Scheme         =           NONE
    Nuclear Scheme         =       TREUTLER

    Blocking Scheme        =         OCTREE
    BS radius alpha        =              1
    Pruning alpha          =              1
    Radial Points          =             75
    Spherical Points       =            302
    Total Points           =          41901
    Total Blocks           =            375
    Max Points             =            256
    Max Functions          =             32
    Weights Tolerance      =       1.00E-15

  -Total Gradient:
     Atom            X                  Y                   Z
    ------   -----------------  -----------------  -----------------
       1       -0.000000000000     0.000000000000    -0.000239232187
       2        0.000000000000    -0.000000000000     0.000223614343

*** tstop() called on Joses-MacBook-Pro-2.local at Thu Jul 17 13:45:26 2025
Module time:
	user time   =       0.76 seconds =       0.01 minutes
	system time =       1.60 seconds =       0.03 minutes
	total time  =          0 seconds =       0.00 minutes
Total time:
	user time   =      41.62 seconds =       0.69 minutes
	system time =      69.42 seconds =       1.16 minutes
	total time  =         10 seconds =       0.17 minutes

    			-----------------------------------------

    			 OPTKING 3.0: for geometry optimizations

    			     By R.A. King, Bethel University

    			        with contributions from

    			    A.V. Copan, J. Cayton, A. Heide

    			-----------------------------------------

	                            ===> Fragment 1 <==

	 Z (Atomic Numbers)          Masses                          Geom
	       6.000000            12.000000          0.00000000  0.00000000  2.23297748
	      15.000000            30.973762          0.00000000  0.00000000 -0.86511060

	 - Coordinate -           - BOHR/RAD -       - ANG/DEG -
	 R(1,2)           =         3.098088           1.639438

	        --- Internal Coordinate Step in ANG or DEG, aJ/ANG or AJ/DEG ---
	-------------------------------------------------------------------------------
	           Coordinate      Previous         Force          Change          New
	           ----------      --------        ------          ------        ------
	               R(1,2)       1.63944        0.00191        0.00028       1.63971
	-------------------------------------------------------------------------------

	                                 ==> Convergence Check <==

	Measures of convergence in internal coordinates in au.

	Criteria marked as inactive (o), active & met (*), and active & unmet ( ).

	----------------------------------------------------------------------------------------------
	   Step    Total Energy     Delta E     Max Force     RMS Force      Max Disp      RMS Disp
	----------------------------------------------------------------------------------------------
	  Convergence Criteria     1.00e-06 *    3.00e-04 *             o    1.20e-03 *             o
	----------------------------------------------------------------------------------------------
	    10    -378.91959359   -2.21e-06      2.31e-04 *    2.31e-04 o    5.22e-04 *    5.22e-04 o  ~
	----------------------------------------------------------------------------------------------

Next Geometry in Ang
	Fragment 1 (Ang)

	    C   0.0000000000   0.0000000000   1.1817789030
	    P   0.0000000000   0.0000000000  -0.4579349232

    Final optimized geometry and variables:
    Molecular point group: c2v
    Full point group: C_inf_v

    Geometry (in Angstrom), charge = 1, multiplicity = 3:

    C            0.000000000000     0.000000000000     1.181640792034
    P            0.000000000000     0.000000000000    -0.457796812190

    Psi4 stopped on: Thursday, 17 July 2025 01:45PM
    Psi4 wall time for execution: 0:00:11.16

*** Psi4 exiting successfully. Buy a developer a beer!
