                               Psi4 1.9.1 release

  ==> Input File <==

--------------------------------------------------------------------------
molecule {
1 3
Ne   0.00000        0.60000        0.00000
Al   0.00000       -0.60000        0.00000
}

set {
basis              cc-pvdz
reference          uks
maxiter            500
geom_maxiter       500
DAMPING_PERCENTAGE 1
guess              SAP
}

optimize('b3lyp')
--------------------------------------------------------------------------

    Molecular point group: c2v
  Charge       = 1
  Multiplicity = 3
  Basis Set: CC-PVDZ
    Blend: CC-PVDZ
  Basis Set: (CC-PVDZ AUX)
    Blend: CC-PVDZ-JKFIT
  @DF-UKS Final Energy:  -370.47471717681952
    Total Energy =                       -370.4747171768195244
 Dipole X            :          0.0000000            0.0000000            0.0000000
 Dipole Y            :          0.0000000            0.0000000            0.0000000
 Dipole Z            :         -0.5393296            0.4785826           -0.0607470
 Magnitude           :                                                    0.0607470
    Molecular point group: c2v
  Basis Set: CC-PVDZ
    Blend: CC-PVDZ
  Basis Set: (CC-PVDZ AUX)
    Blend: CC-PVDZ-JKFIT
  Basis Set: CC-PVDZ
    Blend: CC-PVDZ
  Basis Set: (CC-PVDZ AUX)
    Blend: CC-PVDZ-JKFIT
  @DF-UKS Final Energy:  -370.68589468148292
    Total Energy =                       -370.6858946814829210
  Basis Set: CC-PVDZ
    Blend: CC-PVDZ
  Basis Set: (CC-PVDZ AUX)
    Blend: CC-PVDZ-JKFIT
  Basis Set: CC-PVDZ
    Blend: CC-PVDZ
  @DF-UKS Final Energy:  -370.79526712358745
    Total Energy =                       -370.7952671235874504
  @DF-UKS Final Energy:  -370.85628434124021
    Total Energy =                       -370.8562843412402117
  @DF-UKS Final Energy:  -370.88758866153984
    Total Energy =                       -370.8875886615398940
  @DF-UKS Final Energy:  -370.90265160446222
    Total Energy =                       -370.9026516044621644
  @DF-UKS Final Energy:  -370.90927304565611
    Total Energy =                       -370.9092730456561071
  @DF-UKS Final Energy:  -370.91130651636331
    Total Energy =                       -370.9113065163633678
  @DF-UKS Final Energy:  -370.91229133232304
    Total Energy =                       -370.9122913323230932
  @DF-UKS Final Energy:  -370.91262850075827
    Total Energy =                       -370.9126285007582737
  @DF-UKS Final Energy:  -370.91268775116635
    Total Energy =                       -370.9126877511663452
  @DF-UKS Final Energy:  -370.91269961965673
    Total Energy =                       -370.9126996196567347
  Basis Set: (CC-PVDZ AUX)
    Blend: CC-PVDZ-JKFIT
  Basis Set: CC-PVDZ
    Blend: CC-PVDZ
  Basis Set: (CC-PVDZ AUX)
    Blend: CC-PVDZ-JKFIT
  @DF-UKS Final Energy:  -370.91270240659088
    Total Energy =                       -370.9127024065908245
  Basis Set: CC-PVDZ
    Blend: CC-PVDZ
  Basis Set: (CC-PVDZ AUX)
    Blend: CC-PVDZ-JKFIT
  Charge       = 1
  Multiplicity = 3
  Basis Set: CC-PVDZ
    Blend: CC-PVDZ
  Basis Set: (CC-PVDZ AUX)
    Blend: CC-PVDZ-JKFIT

    Orbital Energies [Eh]
    ---------------------

    Alpha Occupied:

       1A1   -56.434244     2A1   -31.280397     3A1    -4.505946
       1B1    -3.060069     4A1    -3.059872     1B2    -3.055450
       5A1    -1.739103     6A1    -0.864532     2B1    -0.840108
       2B2    -0.839616     7A1    -0.607277     3B2    -0.400756

    Alpha Virtual:

       3B1    -0.334640     8A1    -0.305017     9A1    -0.058129
       1A2    -0.014173     4B2    -0.014106     5B2    -0.008652
      10A1    -0.007685    11A1    -0.006604     4B1    -0.005174
       5B1     0.003786    12A1     0.056229     6B1     1.137650
       6B2     1.139305    13A1     1.220179    14A1     1.885868
       7B1     4.421553     7B2     4.422291    15A1     4.425604
       2A2     4.425875    16A1     4.430531

    Beta Occupied:

       1A1   -56.426223     2A1   -31.278714     3A1    -4.493797
       1B1    -3.052633     4A1    -3.052391     1B2    -3.038355
       5A1    -1.735767     6A1    -0.856542     2B1    -0.838873
       2B2    -0.836972

    Beta Virtual:

       7A1    -0.467060     3B1    -0.280563     8A1    -0.257976
       3B2    -0.248573     9A1    -0.033464    10A1     0.013298
       4B1     0.015146     4B2     0.034439     5B1     0.041262
      11A1     0.066076     5B2     0.067412     1A2     0.072877
      12A1     0.108259     6B1     1.139340     6B2     1.142908
      13A1     1.224855    14A1     1.891805     7B1     4.424611
       7B2     4.425914    15A1     4.426882     2A2     4.427185
      16A1     4.434595

    Final Occupation by Irrep:
             A1    A2    B1    B2
    DOCC [     6,    0,    2,    2 ]
    SOCC [     1,    0,    0,    1 ]
    NA   [     7,    0,    2,    3 ]
    NB   [     6,    0,    2,    2 ]

  @DF-UKS Final Energy:  -370.91270274323489

   => Energetics <=

    Nuclear Repulsion Energy =             30.6440475680684976
    One-Electron Energy =                -573.0363122360306534
    Two-Electron Energy =                 196.3703365695933485
    DFT Exchange-Correlation Energy =     -24.8907746448659744
    Empirical Dispersion Energy =           0.0000000000000000
    VV10 Nonlocal Energy =                  0.0000000000000000
    Total Energy =                       -370.9127027432348314

  UHF NO Occupations:
  HONO-2 :    6 A1 1.9999653
  HONO-1 :    7 A1 1.0000000
  HONO-0 :    3 B2 1.0000000
  LUNO+0 :    8 A1 0.0000347
  LUNO+1 :    3 B1 0.0000064
  LUNO+2 :    4 B2 0.0000044
  LUNO+3 :    9 A1 0.0000012

Computation Completed

Properties will be evaluated at   0.000000,   0.000000,   0.000000 [a0]

Properties computed using the SCF density matrix

 Multipole Moments:

 ------------------------------------------------------------------------------------
     Multipole            Electronic (a.u.)      Nuclear  (a.u.)        Total (a.u.)
 ------------------------------------------------------------------------------------

 L = 1.  Multiply by 2.5417464519 to convert [e a0] to [Debye]
 Dipole X            :          0.0000000            0.0000000            0.0000000
 Dipole Y            :          0.0000000            0.0000000            0.0000000
 Dipole Z            :         -2.2393224            0.8953112           -1.3440111
 Magnitude           :                                                    1.3440111

 ------------------------------------------------------------------------------------

*** tstop() called on Joses-MacBook-Pro-2.local at Thu Jul 17 14:39:30 2025
Module time:
	user time   =       2.98 seconds =       0.05 minutes
	system time =       2.53 seconds =       0.04 minutes
	total time  =          0 seconds =       0.00 minutes
Total time:
	user time   =      86.92 seconds =       1.45 minutes
	system time =      55.14 seconds =       0.92 minutes
	total time  =         14 seconds =       0.23 minutes

*** tstart() called on Joses-MacBook-Pro-2.local
*** at Thu Jul 17 14:39:30 2025

         ------------------------------------------------------------
                                   SCF GRAD
                          Rob Parrish, Justin Turney,
                       Andy Simmonett, and Alex Sokolov
         ------------------------------------------------------------

  ==> Geometry <==

    Molecular point group: c2v
    Full point group: C_inf_v

    Geometry (in Angstrom), charge = 1, multiplicity = 3:

       Center              X                  Y                   Z               Mass
    ------------   -----------------  -----------------  -----------------  -----------------
         NE           0.000000000000     0.000000000000     1.289459543759    19.992440176200
         AL           0.000000000000     0.000000000000    -0.955447472336    26.981538530000

  Nuclear repulsion =   30.644047568068498

  ==> Basis Set <==

  Basis Set: CC-PVDZ
    Blend: CC-PVDZ
    Number of shells: 14
    Number of basis functions: 32
    Number of Cartesian functions: 34
    Spherical Harmonics?: true
    Max angular momentum: 2

  ==> DFJKGrad: Density-Fitted SCF Gradients <==

    Gradient:                    1
    J tasked:                  Yes
    K tasked:                  Yes
    wK tasked:                  No
    OpenMP threads:              1
    Integrals threads:           1
    Memory [MiB]:              375
    Schwarz Cutoff:          1E-12
    Fitting Condition:       1E-10

   => Auxiliary Basis Set <=

  Basis Set: (CC-PVDZ AUX)
    Blend: CC-PVDZ-JKFIT
    Number of shells: 60
    Number of basis functions: 182
    Number of Cartesian functions: 211
    Spherical Harmonics?: true
    Max angular momentum: 3

  ==> DFT Potential <==

   => LibXC <=

    Version 6.2.2
    S. Lehtola, C. Steigemann, M. J.T. Oliveira, and M. A.L. Marques.,  SoftwareX 7, 1â€“5 (2018) (10.1016/j.softx.2017.11.002)

   => Composite Functional: B3LYP <=

    B3LYP Hyb-GGA Exchange-Correlation Functional

    P. J. Stephens, F. J. Devlin, C. F. Chabalowski, and M. J. Frisch.,  J. Phys. Chem. 98, 11623 (1994) (10.1021/j100096a001)

    Deriv               =              1
    GGA                 =           TRUE
    Meta                =          FALSE

    Exchange Hybrid     =           TRUE
    MP2 Hybrid          =          FALSE

   => Exchange Functionals <=

    0.0800   Slater exchange
    0.7200         Becke 88

   => Exact (HF) Exchange <=

    0.2000               HF

   => Correlation Functionals <=

    0.1900   Vosko, Wilk & Nusair (VWN5_RPA)
    0.8100   Lee, Yang & Parr

   => LibXC Density Thresholds  <==

    XC_HYB_GGA_XC_B3LYP:  1.00E-15

   => Molecular Quadrature <=

    Radial Scheme          =       TREUTLER
    Pruning Scheme         =           NONE
    Nuclear Scheme         =       TREUTLER

    Blocking Scheme        =         OCTREE
    BS radius alpha        =              1
    Pruning alpha          =              1
    Radial Points          =             75
    Spherical Points       =            302
    Total Points           =          43470
    Total Blocks           =            401
    Max Points             =            256
    Max Functions          =             32
    Weights Tolerance      =       1.00E-15

  -Total Gradient:
     Atom            X                  Y                   Z
    ------   -----------------  -----------------  -----------------
       1       -0.000000000000     0.000000000000     0.000012725381
       2        0.000000000000    -0.000000000000     0.000071282021

*** tstop() called on Joses-MacBook-Pro-2.local at Thu Jul 17 14:39:31 2025
Module time:
	user time   =       1.29 seconds =       0.02 minutes
	system time =       1.03 seconds =       0.02 minutes
	total time  =          1 seconds =       0.02 minutes
Total time:
	user time   =      88.21 seconds =       1.47 minutes
	system time =      56.17 seconds =       0.94 minutes
	total time  =         15 seconds =       0.25 minutes

    			-----------------------------------------

    			 OPTKING 3.0: for geometry optimizations

    			     By R.A. King, Bethel University

    			        with contributions from

    			    A.V. Copan, J. Cayton, A. Heide

    			-----------------------------------------

	                            ===> Fragment 1 <==

	 Z (Atomic Numbers)          Masses                          Geom
	      10.000000            19.992440          0.00000000  0.00000000  2.43672539
	      13.000000            26.981539          0.00000000  0.00000000 -1.80553405

	 - Coordinate -           - BOHR/RAD -       - ANG/DEG -
	 R(1,2)           =         4.242259           2.244907

	        --- Internal Coordinate Step in ANG or DEG, aJ/ANG or AJ/DEG ---
	-------------------------------------------------------------------------------
	           Coordinate      Previous         Force          Change          New
	           ----------      --------        ------          ------        ------
	               R(1,2)       2.24491        0.00024        0.00063       2.24554
	-------------------------------------------------------------------------------

	                                 ==> Convergence Check <==

	Measures of convergence in internal coordinates in au.

	Criteria marked as inactive (o), active & met (*), and active & unmet ( ).

	----------------------------------------------------------------------------------------------
	   Step    Total Energy     Delta E     Max Force     RMS Force      Max Disp      RMS Disp
	----------------------------------------------------------------------------------------------
	  Convergence Criteria     1.00e-06 *    3.00e-04 *             o    1.20e-03 *             o
	----------------------------------------------------------------------------------------------
	    14    -370.91270274   -3.37e-07 *    2.93e-05 *    2.93e-05 o    1.20e-03 *    1.20e-03 o  ~
	----------------------------------------------------------------------------------------------

Next Geometry in Ang
	Fragment 1 (Ang)

	   Ne   0.0000000000   0.0000000000   1.2897758062
	   Al   0.0000000000   0.0000000000  -0.9557637348

    Final optimized geometry and variables:
    Molecular point group: c2v
    Full point group: C_inf_v

    Geometry (in Angstrom), charge = 1, multiplicity = 3:

    NE           0.000000000000     0.000000000000     1.289459543759
    AL           0.000000000000     0.000000000000    -0.955447472336

    Psi4 stopped on: Thursday, 17 July 2025 02:39PM
    Psi4 wall time for execution: 0:00:15.84

*** Psi4 exiting successfully. Buy a developer a beer!
