                               Psi4 1.9.1 release

  ==> Input File <==

--------------------------------------------------------------------------
molecule {
1 3
O   0.00000        0.60000        0.00000
F   0.00000       -0.60000        0.00000
}

set {
basis              cc-pvdz
reference          uks
maxiter            500
geom_maxiter       500
DAMPING_PERCENTAGE 1
guess              SAP
}

optimize('b3lyp')
--------------------------------------------------------------------------

    Molecular point group: c2v
  Charge       = 1
  Multiplicity = 3
  Basis Set: CC-PVDZ
    Blend: CC-PVDZ
  Basis Set: (CC-PVDZ AUX)
    Blend: CC-PVDZ-JKFIT
  @DF-UKS Final Energy:  -174.41527749470276
    Total Energy =                       -174.4152774947027638
 Dipole X            :          0.0000000            0.0000000            0.0000000
 Dipole Y            :          0.0000000            0.0000000            0.0000000
 Dipole Z            :         -0.2373758            0.5205619            0.2831861
 Magnitude           :                                                    0.2831861
    Molecular point group: c2v
  Basis Set: CC-PVDZ
    Blend: CC-PVDZ
  Basis Set: (CC-PVDZ AUX)
    Blend: CC-PVDZ-JKFIT
  Basis Set: CC-PVDZ
    Blend: CC-PVDZ
  Basis Set: (CC-PVDZ AUX)
    Blend: CC-PVDZ-JKFIT
  @DF-UKS Final Energy:  -174.41628135378684
    Total Energy =                       -174.4162813537868431
  Basis Set: CC-PVDZ
    Blend: CC-PVDZ
  Basis Set: (CC-PVDZ AUX)
    Blend: CC-PVDZ-JKFIT
  Basis Set: CC-PVDZ
    Blend: CC-PVDZ
  Basis Set: (CC-PVDZ AUX)
    Blend: CC-PVDZ-JKFIT
  @DF-UKS Final Energy:  -174.41639620816412
    Total Energy =                       -174.4163962081641159
  Basis Set: CC-PVDZ
    Blend: CC-PVDZ
  Basis Set: (CC-PVDZ AUX)
    Blend: CC-PVDZ-JKFIT
  Charge       = 1
  Multiplicity = 3
  Basis Set: CC-PVDZ
    Blend: CC-PVDZ
  Basis Set: (CC-PVDZ AUX)
    Blend: CC-PVDZ-JKFIT

    Orbital Energies [Eh]
    ---------------------

    Alpha Occupied:

       1A1   -25.325914     2A1   -19.872404     3A1    -1.915718
       4A1    -1.436586     1B1    -1.074130     1B2    -1.074130
       5A1    -1.072722     2B1    -0.853442     2B2    -0.853442

    Alpha Virtual:

       6A1    -0.400223     7A1     0.407585     3B1     0.411279
       3B2     0.411279     8A1     0.671284     4B1     0.723191
       4B2     0.723191     9A1     0.757106    10A1     1.592931
       5B2     1.857334     5B1     1.857334     1A2     1.935407
      11A1     1.935408    12A1     2.320354     2A2     2.993217
      13A1     2.993217     6B2     3.328179     6B1     3.328179
      14A1     3.990077

    Beta Occupied:

       1A1   -25.306661     2A1   -19.826134     3A1    -1.862703
       4A1    -1.334867     5A1    -1.027017     1B2    -0.974057
       1B1    -0.974057

    Beta Virtual:

       2B1    -0.624479     2B2    -0.624479     6A1    -0.350976
       7A1     0.426342     3B1     0.489053     3B2     0.489053
       8A1     0.716065     4B1     0.758775     4B2     0.758775
       9A1     0.772738    10A1     1.617786     5B2     1.919619
       5B1     1.919619    11A1     2.068675     1A2     2.068675
      12A1     2.374907     2A2     3.046947    13A1     3.046948
       6B2     3.367972     6B1     3.367972    14A1     4.022046

    Final Occupation by Irrep:
             A1    A2    B1    B2
    DOCC [     5,    0,    1,    1 ]
    SOCC [     0,    0,    1,    1 ]
    NA   [     5,    0,    2,    2 ]
    NB   [     5,    0,    1,    1 ]

  @DF-UKS Final Energy:  -174.41639748851333

   => Energetics <=

    Nuclear Repulsion Energy =             30.9679604029494975
    One-Electron Energy =                -295.2684217099136958
    Two-Electron Energy =                 104.8132120379608807
    DFT Exchange-Correlation Energy =     -14.9291482195099814
    Empirical Dispersion Energy =           0.0000000000000000
    VV10 Nonlocal Energy =                  0.0000000000000000
    Total Energy =                       -174.4163974885133257

  UHF NO Occupations:
  HONO-2 :    5 A1 1.9989560
  HONO-1 :    2 B2 1.0000000
  HONO-0 :    2 B1 1.0000000
  LUNO+0 :    6 A1 0.0010440
  LUNO+1 :    3 B1 0.0007317
  LUNO+2 :    3 B2 0.0007317
  LUNO+3 :    7 A1 0.0001870

Computation Completed

Properties will be evaluated at   0.000000,   0.000000,   0.000000 [a0]

Properties computed using the SCF density matrix

 Multipole Moments:

 ------------------------------------------------------------------------------------
     Multipole            Electronic (a.u.)      Nuclear  (a.u.)        Total (a.u.)
 ------------------------------------------------------------------------------------

 L = 1.  Multiply by 2.5417464519 to convert [e a0] to [Debye]
 Dipole X            :          0.0000000            0.0000000            0.0000000
 Dipole Y            :          0.0000000            0.0000000            0.0000000
 Dipole Z            :         -0.2102547            0.5337184            0.3234637
 Magnitude           :                                                    0.3234637

 ------------------------------------------------------------------------------------

*** tstop() called on Joses-MacBook-Pro-2.local at Thu Jul 17 14:01:22 2025
Module time:
	user time   =       2.02 seconds =       0.03 minutes
	system time =       5.35 seconds =       0.09 minutes
	total time  =          1 seconds =       0.02 minutes
Total time:
	user time   =      10.76 seconds =       0.18 minutes
	system time =      27.88 seconds =       0.46 minutes
	total time  =          4 seconds =       0.07 minutes

*** tstart() called on Joses-MacBook-Pro-2.local
*** at Thu Jul 17 14:01:22 2025

         ------------------------------------------------------------
                                   SCF GRAD
                          Rob Parrish, Justin Turney,
                       Andy Simmonett, and Alex Sokolov
         ------------------------------------------------------------

  ==> Geometry <==

    Molecular point group: c2v
    Full point group: C_inf_v

    Geometry (in Angstrom), charge = 1, multiplicity = 3:

       Center              X                  Y                   Z               Mass
    ------------   -----------------  -----------------  -----------------  -----------------
         O            0.000000000000     0.000000000000     0.667963920448    15.994914619570
         F            0.000000000000     0.000000000000    -0.562364414788    18.998403162730

  Nuclear repulsion =   30.967960402949497

  ==> Basis Set <==

  Basis Set: CC-PVDZ
    Blend: CC-PVDZ
    Number of shells: 12
    Number of basis functions: 28
    Number of Cartesian functions: 30
    Spherical Harmonics?: true
    Max angular momentum: 2

  ==> DFJKGrad: Density-Fitted SCF Gradients <==

    Gradient:                    1
    J tasked:                  Yes
    K tasked:                  Yes
    wK tasked:                  No
    OpenMP threads:              1
    Integrals threads:           1
    Memory [MiB]:              375
    Schwarz Cutoff:          1E-12
    Fitting Condition:       1E-10

   => Auxiliary Basis Set <=

  Basis Set: (CC-PVDZ AUX)
    Blend: CC-PVDZ-JKFIT
    Number of shells: 48
    Number of basis functions: 140
    Number of Cartesian functions: 162
    Spherical Harmonics?: true
    Max angular momentum: 3

  ==> DFT Potential <==

   => LibXC <=

    Version 6.2.2
    S. Lehtola, C. Steigemann, M. J.T. Oliveira, and M. A.L. Marques.,  SoftwareX 7, 1â€“5 (2018) (10.1016/j.softx.2017.11.002)

   => Composite Functional: B3LYP <=

    B3LYP Hyb-GGA Exchange-Correlation Functional

    P. J. Stephens, F. J. Devlin, C. F. Chabalowski, and M. J. Frisch.,  J. Phys. Chem. 98, 11623 (1994) (10.1021/j100096a001)

    Deriv               =              1
    GGA                 =           TRUE
    Meta                =          FALSE

    Exchange Hybrid     =           TRUE
    MP2 Hybrid          =          FALSE

   => Exchange Functionals <=

    0.0800   Slater exchange
    0.7200         Becke 88

   => Exact (HF) Exchange <=

    0.2000               HF

   => Correlation Functionals <=

    0.1900   Vosko, Wilk & Nusair (VWN5_RPA)
    0.8100   Lee, Yang & Parr

   => LibXC Density Thresholds  <==

    XC_HYB_GGA_XC_B3LYP:  1.00E-15

   => Molecular Quadrature <=

    Radial Scheme          =       TREUTLER
    Pruning Scheme         =           NONE
    Nuclear Scheme         =       TREUTLER

    Blocking Scheme        =         OCTREE
    BS radius alpha        =              1
    Pruning alpha          =              1
    Radial Points          =             75
    Spherical Points       =            302
    Total Points           =          42012
    Total Blocks           =            366
    Max Points             =            254
    Max Functions          =             28
    Weights Tolerance      =       1.00E-15

  -Total Gradient:
     Atom            X                  Y                   Z
    ------   -----------------  -----------------  -----------------
       1       -0.000000000000     0.000000000000    -0.000135621586
       2        0.000000000000    -0.000000000000     0.000139094547

*** tstop() called on Joses-MacBook-Pro-2.local at Thu Jul 17 14:01:22 2025
Module time:
	user time   =       0.42 seconds =       0.01 minutes
	system time =       1.57 seconds =       0.03 minutes
	total time  =          0 seconds =       0.00 minutes
Total time:
	user time   =      11.18 seconds =       0.19 minutes
	system time =      29.46 seconds =       0.49 minutes
	total time  =          4 seconds =       0.07 minutes

    			-----------------------------------------

    			 OPTKING 3.0: for geometry optimizations

    			     By R.A. King, Bethel University

    			        with contributions from

    			    A.V. Copan, J. Cayton, A. Heide

    			-----------------------------------------

	                            ===> Fragment 1 <==

	 Z (Atomic Numbers)          Masses                          Geom
	       8.000000            15.994915          0.00000000  0.00000000  1.26226887
	       9.000000            18.998403          0.00000000  0.00000000 -1.06271473

	 - Coordinate -           - BOHR/RAD -       - ANG/DEG -
	 R(1,2)           =         2.324984           1.230328

	        --- Internal Coordinate Step in ANG or DEG, aJ/ANG or AJ/DEG ---
	-------------------------------------------------------------------------------
	           Coordinate      Previous         Force          Change          New
	           ----------      --------        ------          ------        ------
	               R(1,2)       1.23033        0.00113        0.00010       1.23043
	-------------------------------------------------------------------------------

	                                 ==> Convergence Check <==

	Measures of convergence in internal coordinates in au.

	Criteria marked as inactive (o), active & met (*), and active & unmet ( ).

	----------------------------------------------------------------------------------------------
	   Step    Total Energy     Delta E     Max Force     RMS Force      Max Disp      RMS Disp
	----------------------------------------------------------------------------------------------
	  Convergence Criteria     1.00e-06 *    3.00e-04 *             o    1.20e-03 *             o
	----------------------------------------------------------------------------------------------
	     4    -174.41639749   -1.28e-06      1.37e-04 *    1.37e-04 o    1.95e-04 *    1.95e-04 o  ~
	----------------------------------------------------------------------------------------------

Next Geometry in Ang
	Fragment 1 (Ang)

	    O   0.0000000000   0.0000000000   0.6680156012
	    F   0.0000000000   0.0000000000  -0.5624160956

    Final optimized geometry and variables:
    Molecular point group: c2v
    Full point group: C_inf_v

    Geometry (in Angstrom), charge = 1, multiplicity = 3:

    O            0.000000000000     0.000000000000     0.667963920448
    F            0.000000000000     0.000000000000    -0.562364414788

    Psi4 stopped on: Thursday, 17 July 2025 02:01PM
    Psi4 wall time for execution: 0:00:04.72

*** Psi4 exiting successfully. Buy a developer a beer!
