                               Psi4 1.9.1 release

  ==> Input File <==

--------------------------------------------------------------------------
molecule {
1 3
N   0.00000        0.60000        0.00000
Si   0.00000       -0.60000        0.00000
}

set {
basis              cc-pvdz
reference          uks
maxiter            500
geom_maxiter       500
DAMPING_PERCENTAGE 1
guess              SAP
}

optimize('b3lyp')
--------------------------------------------------------------------------

    Molecular point group: c2v
  Charge       = 1
  Multiplicity = 3
  Basis Set: CC-PVDZ
    Blend: CC-PVDZ
  Basis Set: (CC-PVDZ AUX)
    Blend: CC-PVDZ-JKFIT
  @DF-UKS Final Energy:  -343.42643706620277
    Total Energy =                       -343.4264370662028796
 Dipole X            :          0.0000000            0.0000000            0.0000000
 Dipole Y            :          0.0000000            0.0000000            0.0000000
 Dipole Z            :         -1.2490040           -0.0110494           -1.2600534
 Magnitude           :                                                    1.2600534
    Molecular point group: c2v
  Basis Set: CC-PVDZ
    Blend: CC-PVDZ
  Basis Set: (CC-PVDZ AUX)
    Blend: CC-PVDZ-JKFIT
  Basis Set: CC-PVDZ
    Blend: CC-PVDZ
  Basis Set: (CC-PVDZ AUX)
    Blend: CC-PVDZ-JKFIT
  @DF-UKS Final Energy:  -343.57409837950053
    Total Energy =                       -343.5740983795005263
  Basis Set: CC-PVDZ
    Blend: CC-PVDZ
  Basis Set: (CC-PVDZ AUX)
    Blend: CC-PVDZ-JKFIT
  Basis Set: CC-PVDZ
    Blend: CC-PVDZ
  @DF-UKS Final Energy:  -343.62823974794344
    Total Energy =                       -343.6282397479434394
  @DF-UKS Final Energy:  -343.71979990736082
    Total Energy =                       -343.7197999073608798
  @DF-UKS Final Energy:  -343.75082823035035
    Total Energy =                       -343.7508282303503506
  @DF-UKS Final Energy:  -343.76374330623480
    Total Energy =                       -343.7637433062346872
  Basis Set: (CC-PVDZ AUX)
    Blend: CC-PVDZ-JKFIT
  Basis Set: CC-PVDZ
    Blend: CC-PVDZ
  Basis Set: (CC-PVDZ AUX)
    Blend: CC-PVDZ-JKFIT
  @DF-UKS Final Energy:  -343.76606103502559
    Total Energy =                       -343.7660610350255865
  Basis Set: CC-PVDZ
    Blend: CC-PVDZ
  Basis Set: (CC-PVDZ AUX)
    Blend: CC-PVDZ-JKFIT
  Charge       = 1
  Multiplicity = 3
  Basis Set: CC-PVDZ
    Blend: CC-PVDZ
  Basis Set: (CC-PVDZ AUX)
    Blend: CC-PVDZ-JKFIT

    Orbital Energies [Eh]
    ---------------------

    Alpha Occupied:

       1A1   -66.541894     2A1   -14.707426     3A1    -5.675200
       1B1    -4.036141     4A1    -4.033973     1B2    -4.030678
       5A1    -1.125785     6A1    -0.754421     2B1    -0.642013
       7A1    -0.617006     2B2    -0.597134

    Alpha Virtual:

       3B1    -0.371083     3B2    -0.352592     8A1    -0.218721
       9A1    -0.002144     4B1     0.047558     4B2     0.056896
      10A1     0.067350     1A2     0.067474    11A1     0.078860
       5B1     0.112780     5B2     0.130184    12A1     0.307618
       6B1     0.491844     6B2     0.520584    13A1     0.541281
      14A1     0.932516     2A2     1.441977    15A1     1.442111
       7B1     1.546079     7B2     1.581164    16A1     1.961170

    Beta Occupied:

       1A1   -66.540301     2A1   -14.673286     3A1    -5.673428
       1B1    -4.033588     1B2    -4.031251     4A1    -4.028166
       5A1    -1.026772     6A1    -0.679443     2B2    -0.557175

    Beta Virtual:

       7A1    -0.466320     2B1    -0.463668     3B2    -0.337574
       3B1    -0.313033     8A1    -0.188596     9A1     0.007854
       4B2     0.054114     4B1     0.055445     1A2     0.071941
      10A1     0.073049    11A1     0.106757     5B2     0.150037
       5B1     0.157060    12A1     0.341659     6B2     0.548963
       6B1     0.568052    13A1     0.608335    14A1     0.991071
       2A2     1.519469    15A1     1.525411     7B2     1.645056
       7B1     1.660177    16A1     2.042088

    Final Occupation by Irrep:
             A1    A2    B1    B2
    DOCC [     6,    0,    1,    2 ]
    SOCC [     1,    0,    1,    0 ]
    NA   [     7,    0,    2,    2 ]
    NB   [     6,    0,    1,    2 ]

  @DF-UKS Final Energy:  -343.76606148758526

   => Energetics <=

    Nuclear Repulsion Energy =             30.4888633576087180
    One-Electron Energy =                -528.7276132305767078
    Two-Electron Energy =                 176.5547105070108671
    DFT Exchange-Correlation Energy =     -22.0820221216280927
    Empirical Dispersion Energy =           0.0000000000000000
    VV10 Nonlocal Energy =                  0.0000000000000000
    Total Energy =                       -343.7660614875852048

  UHF NO Occupations:
  HONO-2 :    2 B2 1.9886847
  HONO-1 :    2 B1 1.0000000
  HONO-0 :    7 A1 1.0000000
  LUNO+0 :    3 B2 0.0113153
  LUNO+1 :    8 A1 0.0025322
  LUNO+2 :    9 A1 0.0005500
  LUNO+3 :   10 A1 0.0000001

Computation Completed

Properties will be evaluated at   0.000000,   0.000000,   0.000000 [a0]

Properties computed using the SCF density matrix

 Multipole Moments:

 ------------------------------------------------------------------------------------
     Multipole            Electronic (a.u.)      Nuclear  (a.u.)        Total (a.u.)
 ------------------------------------------------------------------------------------

 L = 1.  Multiply by 2.5417464519 to convert [e a0] to [Debye]
 Dipole X            :          0.0000000            0.0000000            0.0000000
 Dipole Y            :          0.0000000            0.0000000            0.0000000
 Dipole Z            :         -1.0463981           -0.0156618           -1.0620599
 Magnitude           :                                                    1.0620599

 ------------------------------------------------------------------------------------

*** tstop() called on Joses-MacBook-Pro-2.local at Thu Jul 17 13:55:44 2025
Module time:
	user time   =       1.92 seconds =       0.03 minutes
	system time =       6.02 seconds =       0.10 minutes
	total time  =          1 seconds =       0.02 minutes
Total time:
	user time   =      27.29 seconds =       0.45 minutes
	system time =      67.13 seconds =       1.12 minutes
	total time  =         10 seconds =       0.17 minutes

*** tstart() called on Joses-MacBook-Pro-2.local
*** at Thu Jul 17 13:55:44 2025

         ------------------------------------------------------------
                                   SCF GRAD
                          Rob Parrish, Justin Turney,
                       Andy Simmonett, and Alex Sokolov
         ------------------------------------------------------------

  ==> Geometry <==

    Molecular point group: c2v
    Full point group: C_inf_v

    Geometry (in Angstrom), charge = 1, multiplicity = 3:

       Center              X                  Y                   Z               Mass
    ------------   -----------------  -----------------  -----------------  -----------------
         N            0.000000000000     0.000000000000     1.133557454116    14.003074004430
         SI           0.000000000000     0.000000000000    -0.567370718817    27.976926534650

  Nuclear repulsion =   30.488863357608718

  ==> Basis Set <==

  Basis Set: CC-PVDZ
    Blend: CC-PVDZ
    Number of shells: 14
    Number of basis functions: 32
    Number of Cartesian functions: 34
    Spherical Harmonics?: true
    Max angular momentum: 2

  ==> DFJKGrad: Density-Fitted SCF Gradients <==

    Gradient:                    1
    J tasked:                  Yes
    K tasked:                  Yes
    wK tasked:                  No
    OpenMP threads:              1
    Integrals threads:           1
    Memory [MiB]:              375
    Schwarz Cutoff:          1E-12
    Fitting Condition:       1E-10

   => Auxiliary Basis Set <=

  Basis Set: (CC-PVDZ AUX)
    Blend: CC-PVDZ-JKFIT
    Number of shells: 60
    Number of basis functions: 182
    Number of Cartesian functions: 211
    Spherical Harmonics?: true
    Max angular momentum: 3

  ==> DFT Potential <==

   => LibXC <=

    Version 6.2.2
    S. Lehtola, C. Steigemann, M. J.T. Oliveira, and M. A.L. Marques.,  SoftwareX 7, 1â€“5 (2018) (10.1016/j.softx.2017.11.002)

   => Composite Functional: B3LYP <=

    B3LYP Hyb-GGA Exchange-Correlation Functional

    P. J. Stephens, F. J. Devlin, C. F. Chabalowski, and M. J. Frisch.,  J. Phys. Chem. 98, 11623 (1994) (10.1021/j100096a001)

    Deriv               =              1
    GGA                 =           TRUE
    Meta                =          FALSE

    Exchange Hybrid     =           TRUE
    MP2 Hybrid          =          FALSE

   => Exchange Functionals <=

    0.0800   Slater exchange
    0.7200         Becke 88

   => Exact (HF) Exchange <=

    0.2000               HF

   => Correlation Functionals <=

    0.1900   Vosko, Wilk & Nusair (VWN5_RPA)
    0.8100   Lee, Yang & Parr

   => LibXC Density Thresholds  <==

    XC_HYB_GGA_XC_B3LYP:  1.00E-15

   => Molecular Quadrature <=

    Radial Scheme          =       TREUTLER
    Pruning Scheme         =           NONE
    Nuclear Scheme         =       TREUTLER

    Blocking Scheme        =         OCTREE
    BS radius alpha        =              1
    Pruning alpha          =              1
    Radial Points          =             75
    Spherical Points       =            302
    Total Points           =          42656
    Total Blocks           =            394
    Max Points             =            255
    Max Functions          =             32
    Weights Tolerance      =       1.00E-15

  -Total Gradient:
     Atom            X                  Y                   Z
    ------   -----------------  -----------------  -----------------
       1        0.000000000000    -0.000000000000    -0.000299529523
       2        0.000000000000    -0.000000000000     0.000281969029

*** tstop() called on Joses-MacBook-Pro-2.local at Thu Jul 17 13:55:44 2025
Module time:
	user time   =       0.61 seconds =       0.01 minutes
	system time =       2.13 seconds =       0.04 minutes
	total time  =          0 seconds =       0.00 minutes
Total time:
	user time   =      27.91 seconds =       0.47 minutes
	system time =      69.26 seconds =       1.15 minutes
	total time  =         10 seconds =       0.17 minutes

    			-----------------------------------------

    			 OPTKING 3.0: for geometry optimizations

    			     By R.A. King, Bethel University

    			        with contributions from

    			    A.V. Copan, J. Cayton, A. Heide

    			-----------------------------------------

	                            ===> Fragment 1 <==

	 Z (Atomic Numbers)          Masses                          Geom
	       7.000000            14.003074          0.00000000  0.00000000  2.14211314
	      14.000000            27.976927          0.00000000  0.00000000 -1.07217527

	 - Coordinate -           - BOHR/RAD -       - ANG/DEG -
	 R(1,2)           =         3.214288           1.700928

	        --- Internal Coordinate Step in ANG or DEG, aJ/ANG or AJ/DEG ---
	-------------------------------------------------------------------------------
	           Coordinate      Previous         Force          Change          New
	           ----------      --------        ------          ------        ------
	               R(1,2)       1.70093        0.00240        0.00028       1.70121
	-------------------------------------------------------------------------------

	                                 ==> Convergence Check <==

	Measures of convergence in internal coordinates in au.

	Criteria marked as inactive (o), active & met (*), and active & unmet ( ).

	----------------------------------------------------------------------------------------------
	   Step    Total Energy     Delta E     Max Force     RMS Force      Max Disp      RMS Disp
	----------------------------------------------------------------------------------------------
	  Convergence Criteria     1.00e-06 *    3.00e-04 *             o    1.20e-03 *             o
	----------------------------------------------------------------------------------------------
	     8    -343.76606149   -4.53e-07 *    2.91e-04 *    2.91e-04 o    5.26e-04 *    5.26e-04 o  ~
	----------------------------------------------------------------------------------------------

Next Geometry in Ang
	Fragment 1 (Ang)

	    N   0.0000000000   0.0000000000   1.1336966220
	   Si   0.0000000000   0.0000000000  -0.5675098867

    Final optimized geometry and variables:
    Molecular point group: c2v
    Full point group: C_inf_v

    Geometry (in Angstrom), charge = 1, multiplicity = 3:

    N            0.000000000000     0.000000000000     1.133557454116
    SI           0.000000000000     0.000000000000    -0.567370718817

    Psi4 stopped on: Thursday, 17 July 2025 01:55PM
    Psi4 wall time for execution: 0:00:10.67

*** Psi4 exiting successfully. Buy a developer a beer!
