                               Psi4 1.9.1 release

  ==> Input File <==

--------------------------------------------------------------------------
molecule {
1 3
N   0.00000        0.60000        0.00000
O   0.00000       -0.60000        0.00000
}

set {
basis              cc-pvdz
reference          uks
maxiter            500
geom_maxiter       500
DAMPING_PERCENTAGE 1
guess              SAP
}

optimize('b3lyp')
--------------------------------------------------------------------------

    Molecular point group: c2v
  Charge       = 1
  Multiplicity = 3
  Basis Set: CC-PVDZ
    Blend: CC-PVDZ
  Basis Set: (CC-PVDZ AUX)
    Blend: CC-PVDZ-JKFIT
  @DF-UKS Final Energy:  -129.29050414630632
    Total Energy =                       -129.2905041463063185
 Dipole X            :          0.0000000            0.0000000            0.0000000
 Dipole Y            :          0.0000000            0.0000000            0.0000000
 Dipole Z            :          0.5457177           -0.0045500            0.5411678
 Magnitude           :                                                    0.5411678
    Molecular point group: c2v
  Basis Set: CC-PVDZ
    Blend: CC-PVDZ
  Basis Set: (CC-PVDZ AUX)
    Blend: CC-PVDZ-JKFIT
  Basis Set: CC-PVDZ
    Blend: CC-PVDZ
  Basis Set: (CC-PVDZ AUX)
    Blend: CC-PVDZ-JKFIT
  @DF-UKS Final Energy:  -129.29232898741310
    Total Energy =                       -129.2923289874131001
  Basis Set: CC-PVDZ
    Blend: CC-PVDZ
  Basis Set: (CC-PVDZ AUX)
    Blend: CC-PVDZ-JKFIT
  Basis Set: CC-PVDZ
    Blend: CC-PVDZ
  @DF-UKS Final Energy:  -129.29241363949396
    Total Energy =                       -129.2924136394939580
  Basis Set: (CC-PVDZ AUX)
    Blend: CC-PVDZ-JKFIT
  Basis Set: CC-PVDZ
    Blend: CC-PVDZ
  Basis Set: (CC-PVDZ AUX)
    Blend: CC-PVDZ-JKFIT
  @DF-UKS Final Energy:  -129.29241574993569
    Total Energy =                       -129.2924157499356852
  Basis Set: CC-PVDZ
    Blend: CC-PVDZ
  Basis Set: (CC-PVDZ AUX)
    Blend: CC-PVDZ-JKFIT
  Charge       = 1
  Multiplicity = 3
  Basis Set: CC-PVDZ
    Blend: CC-PVDZ
  Basis Set: (CC-PVDZ AUX)
    Blend: CC-PVDZ-JKFIT

    Orbital Energies [Eh]
    ---------------------

    Alpha Occupied:

       1A1   -19.762144     2A1   -14.996902     3A1    -1.689872
       4A1    -1.158847     5A1    -0.982223     1B2    -0.963743
       1B1    -0.931298     2B2    -0.669546

    Alpha Virtual:

       2B1    -0.553523     6A1    -0.095539     7A1     0.254726
       3B2     0.279655     3B1     0.288477     8A1     0.376543
       9A1     0.478541     4B2     0.544717     4B1     0.555475
       5B1     1.192615     1A2     1.193168     5B2     1.193357
      10A1     1.195786    11A1     1.312277    12A1     1.961073
       2A2     2.121710    13A1     2.123768     6B2     2.643737
       6B1     2.645104    14A1     2.992224

    Beta Occupied:

       1A1   -19.744063     2A1   -14.959567     3A1    -1.643732
       4A1    -1.038282     1B1    -0.909510     1B2    -0.868463

    Beta Virtual:

       5A1    -0.761237     2B1    -0.506050     2B2    -0.462141
       6A1    -0.037521     7A1     0.312562     3B1     0.312795
       3B2     0.338963     8A1     0.441049     9A1     0.513994
       4B1     0.560353     4B2     0.585287     5B1     1.253538
      10A1     1.265146     1A2     1.265257     5B2     1.286313
      11A1     1.337699    12A1     2.050995    13A1     2.155233
       2A2     2.155255     6B1     2.682986     6B2     2.717113
      14A1     3.044604

    Final Occupation by Irrep:
             A1    A2    B1    B2
    DOCC [     4,    0,    1,    1 ]
    SOCC [     1,    0,    0,    1 ]
    NA   [     5,    0,    1,    2 ]
    NB   [     4,    0,    1,    1 ]

  @DF-UKS Final Energy:  -129.29241580507460

   => Energetics <=

    Nuclear Repulsion Energy =             25.4360626370165086
    One-Electron Energy =                -220.4586476433462963
    Two-Electron Energy =                  77.8021424296270965
    DFT Exchange-Correlation Energy =     -12.0719732283718937
    Empirical Dispersion Energy =           0.0000000000000000
    VV10 Nonlocal Energy =                  0.0000000000000000
    Total Energy =                       -129.2924158050745973

  UHF NO Occupations:
  HONO-2 :    1 B1 1.9955650
  HONO-1 :    2 B2 1.0000000
  HONO-0 :    5 A1 1.0000000
  LUNO+0 :    2 B1 0.0044350
  LUNO+1 :    3 B2 0.0010163
  LUNO+2 :    6 A1 0.0009942
  LUNO+3 :    7 A1 0.0000959

Computation Completed

Properties will be evaluated at   0.000000,   0.000000,   0.000000 [a0]

Properties computed using the SCF density matrix

 Multipole Moments:

 ------------------------------------------------------------------------------------
     Multipole            Electronic (a.u.)      Nuclear  (a.u.)        Total (a.u.)
 ------------------------------------------------------------------------------------

 L = 1.  Multiply by 2.5417464519 to convert [e a0] to [Debye]
 Dipole X            :          0.0000000            0.0000000            0.0000000
 Dipole Y            :          0.0000000            0.0000000            0.0000000
 Dipole Z            :          0.5509151           -0.0044174            0.5464977
 Magnitude           :                                                    0.5464977

 ------------------------------------------------------------------------------------

*** tstop() called on Joses-MacBook-Pro-2.local at Thu Jul 17 13:51:27 2025
Module time:
	user time   =       3.55 seconds =       0.06 minutes
	system time =       2.31 seconds =       0.04 minutes
	total time  =          1 seconds =       0.02 minutes
Total time:
	user time   =      35.72 seconds =       0.60 minutes
	system time =      16.49 seconds =       0.27 minutes
	total time  =          6 seconds =       0.10 minutes

*** tstart() called on Joses-MacBook-Pro-2.local
*** at Thu Jul 17 13:51:27 2025

         ------------------------------------------------------------
                                   SCF GRAD
                          Rob Parrish, Justin Turney,
                       Andy Simmonett, and Alex Sokolov
         ------------------------------------------------------------

  ==> Geometry <==

    Molecular point group: c2v
    Full point group: C_inf_v

    Geometry (in Angstrom), charge = 1, multiplicity = 3:

       Center              X                  Y                   Z               Mass
    ------------   -----------------  -----------------  -----------------  -----------------
         N            0.000000000000     0.000000000000     0.621196591482    14.003074004430
         O            0.000000000000     0.000000000000    -0.543839216946    15.994914619570

  Nuclear repulsion =   25.436062637016509

  ==> Basis Set <==

  Basis Set: CC-PVDZ
    Blend: CC-PVDZ
    Number of shells: 12
    Number of basis functions: 28
    Number of Cartesian functions: 30
    Spherical Harmonics?: true
    Max angular momentum: 2

  ==> DFJKGrad: Density-Fitted SCF Gradients <==

    Gradient:                    1
    J tasked:                  Yes
    K tasked:                  Yes
    wK tasked:                  No
    OpenMP threads:              1
    Integrals threads:           1
    Memory [MiB]:              375
    Schwarz Cutoff:          1E-12
    Fitting Condition:       1E-10

   => Auxiliary Basis Set <=

  Basis Set: (CC-PVDZ AUX)
    Blend: CC-PVDZ-JKFIT
    Number of shells: 48
    Number of basis functions: 140
    Number of Cartesian functions: 162
    Spherical Harmonics?: true
    Max angular momentum: 3

  ==> DFT Potential <==

   => LibXC <=

    Version 6.2.2
    S. Lehtola, C. Steigemann, M. J.T. Oliveira, and M. A.L. Marques.,  SoftwareX 7, 1â€“5 (2018) (10.1016/j.softx.2017.11.002)

   => Composite Functional: B3LYP <=

    B3LYP Hyb-GGA Exchange-Correlation Functional

    P. J. Stephens, F. J. Devlin, C. F. Chabalowski, and M. J. Frisch.,  J. Phys. Chem. 98, 11623 (1994) (10.1021/j100096a001)

    Deriv               =              1
    GGA                 =           TRUE
    Meta                =          FALSE

    Exchange Hybrid     =           TRUE
    MP2 Hybrid          =          FALSE

   => Exchange Functionals <=

    0.0800   Slater exchange
    0.7200         Becke 88

   => Exact (HF) Exchange <=

    0.2000               HF

   => Correlation Functionals <=

    0.1900   Vosko, Wilk & Nusair (VWN5_RPA)
    0.8100   Lee, Yang & Parr

   => LibXC Density Thresholds  <==

    XC_HYB_GGA_XC_B3LYP:  1.00E-15

   => Molecular Quadrature <=

    Radial Scheme          =       TREUTLER
    Pruning Scheme         =           NONE
    Nuclear Scheme         =       TREUTLER

    Blocking Scheme        =         OCTREE
    BS radius alpha        =              1
    Pruning alpha          =              1
    Radial Points          =             75
    Spherical Points       =            302
    Total Points           =          42108
    Total Blocks           =            371
    Max Points             =            255
    Max Functions          =             28
    Weights Tolerance      =       1.00E-15

  -Total Gradient:
     Atom            X                  Y                   Z
    ------   -----------------  -----------------  -----------------
       1        0.000000000000     0.000000000000    -0.000047870371
       2        0.000000000000     0.000000000000     0.000049464816

*** tstop() called on Joses-MacBook-Pro-2.local at Thu Jul 17 13:51:27 2025
Module time:
	user time   =       1.57 seconds =       0.03 minutes
	system time =       0.60 seconds =       0.01 minutes
	total time  =          0 seconds =       0.00 minutes
Total time:
	user time   =      37.30 seconds =       0.62 minutes
	system time =      17.09 seconds =       0.28 minutes
	total time  =          6 seconds =       0.10 minutes

    			-----------------------------------------

    			 OPTKING 3.0: for geometry optimizations

    			     By R.A. King, Bethel University

    			        with contributions from

    			    A.V. Copan, J. Cayton, A. Heide

    			-----------------------------------------

	                            ===> Fragment 1 <==

	 Z (Atomic Numbers)          Masses                          Geom
	       7.000000            14.003074          0.00000000  0.00000000  1.17389143
	       8.000000            15.994915          0.00000000  0.00000000 -1.02770718

	 - Coordinate -           - BOHR/RAD -       - ANG/DEG -
	 R(1,2)           =         2.201599           1.165036

	        --- Internal Coordinate Step in ANG or DEG, aJ/ANG or AJ/DEG ---
	-------------------------------------------------------------------------------
	           Coordinate      Previous         Force          Change          New
	           ----------      --------        ------          ------        ------
	               R(1,2)       1.16504        0.00040        0.00003       1.16507
	-------------------------------------------------------------------------------

	                                 ==> Convergence Check <==

	Measures of convergence in internal coordinates in au.

	Criteria marked as inactive (o), active & met (*), and active & unmet ( ).

	----------------------------------------------------------------------------------------------
	   Step    Total Energy     Delta E     Max Force     RMS Force      Max Disp      RMS Disp
	----------------------------------------------------------------------------------------------
	  Convergence Criteria     1.00e-06 *    3.00e-04 *             o    1.20e-03 *             o
	----------------------------------------------------------------------------------------------
	     5    -129.29241581   -5.51e-08 *    4.87e-05 *    4.87e-05 o    5.82e-05 *    5.82e-05 o  ~
	----------------------------------------------------------------------------------------------

Next Geometry in Ang
	Fragment 1 (Ang)

	    N   0.0000000000   0.0000000000   0.6212120019
	    O   0.0000000000   0.0000000000  -0.5438546274

    Final optimized geometry and variables:
    Molecular point group: c2v
    Full point group: C_inf_v

    Geometry (in Angstrom), charge = 1, multiplicity = 3:

    N            0.000000000000     0.000000000000     0.621196591482
    O            0.000000000000     0.000000000000    -0.543839216946

    Psi4 stopped on: Thursday, 17 July 2025 01:51PM
    Psi4 wall time for execution: 0:00:06.90

*** Psi4 exiting successfully. Buy a developer a beer!
