                               Psi4 1.9.1 release

  ==> Input File <==

--------------------------------------------------------------------------
molecule {
1 3
H   0.00000        0.60000        0.00000
Mg   0.00000       -0.60000        0.00000
}

set {
basis              cc-pvdz
reference          uks
maxiter            500
geom_maxiter       500
DAMPING_PERCENTAGE 1
guess              SAP
}

optimize('b3lyp')
--------------------------------------------------------------------------

    Molecular point group: c2v
  Charge       = 1
  Multiplicity = 3
  Basis Set: CC-PVDZ
    Blend: CC-PVDZ
  Basis Set: (CC-PVDZ AUX)
    Blend: CC-PVDZ-JKFIT + DEF2-UNIVERSAL-JKFIT
  @DF-UKS Final Energy:  -200.13329409783583
    Total Energy =                       -200.1332940978358295
 Dipole X            :          0.0000000            0.0000000            0.0000000
 Dipole Y            :          0.0000000            0.0000000            0.0000000
 Dipole Z            :         -0.0005909            1.0789159            1.0783250
 Magnitude           :                                                    1.0783250
    Molecular point group: c2v
  Basis Set: CC-PVDZ
    Blend: CC-PVDZ
  Basis Set: (CC-PVDZ AUX)
    Blend: CC-PVDZ-JKFIT + DEF2-UNIVERSAL-JKFIT
  Basis Set: CC-PVDZ
    Blend: CC-PVDZ
  Basis Set: (CC-PVDZ AUX)
    Blend: CC-PVDZ-JKFIT + DEF2-UNIVERSAL-JKFIT
  @DF-UKS Final Energy:  -200.22459769437376
    Total Energy =                       -200.2245976943737560
  Basis Set: CC-PVDZ
    Blend: CC-PVDZ
  Basis Set: (CC-PVDZ AUX)
    Blend: CC-PVDZ-JKFIT + DEF2-UNIVERSAL-JKFIT
  Basis Set: CC-PVDZ
    Blend: CC-PVDZ
  @DF-UKS Final Energy:  -200.25724839038182
    Total Energy =                       -200.2572483903818181
  @DF-UKS Final Energy:  -200.28032969834061
    Total Energy =                       -200.2803296983406085
  @DF-UKS Final Energy:  -200.29307483376905
    Total Energy =                       -200.2930748337690545
  @DF-UKS Final Energy:  -200.30015058730083
    Total Energy =                       -200.3001505873008341
  @DF-UKS Final Energy:  -200.30391575014892
    Total Energy =                       -200.3039157501489171
  @DF-UKS Final Energy:  -200.30585142169258
    Total Energy =                       -200.3058514216925801
  @DF-UKS Final Energy:  -200.30682064628687
    Total Energy =                       -200.3068206462868659
  @DF-UKS Final Energy:  -200.30730202853391
    Total Energy =                       -200.3073020285339112
  @DF-UKS Final Energy:  -200.30753579408076
    Total Energy =                       -200.3075357940807919
  @DF-UKS Final Energy:  -200.30764046005714
    Total Energy =                       -200.3076404600571436
  @DF-UKS Final Energy:  -200.30767919322730
    Total Energy =                       -200.3076791932273011
  @DF-UKS Final Energy:  -200.30768906133446
    Total Energy =                       -200.3076890613344574
  Basis Set: (CC-PVDZ AUX)
    Blend: CC-PVDZ-JKFIT + DEF2-UNIVERSAL-JKFIT
  Basis Set: CC-PVDZ
    Blend: CC-PVDZ
  Basis Set: (CC-PVDZ AUX)
    Blend: CC-PVDZ-JKFIT + DEF2-UNIVERSAL-JKFIT
  @DF-UKS Final Energy:  -200.30769022244166
    Total Energy =                       -200.3076902224416642
  Basis Set: CC-PVDZ
    Blend: CC-PVDZ
  Basis Set: (CC-PVDZ AUX)
    Blend: CC-PVDZ-JKFIT + DEF2-UNIVERSAL-JKFIT
  Charge       = 1
  Multiplicity = 3
  Basis Set: CC-PVDZ
    Blend: CC-PVDZ
  Basis Set: (CC-PVDZ AUX)
    Blend: CC-PVDZ-JKFIT + DEF2-UNIVERSAL-JKFIT

    Orbital Energies [Eh]
    ---------------------

    Alpha Occupied:

       1A1   -47.167985     2A1    -3.438333     1B2    -2.181188
       1B1    -2.181188     3A1    -2.181182     4A1    -0.472410
       5A1    -0.453948

    Alpha Virtual:

       2B1    -0.255314     2B2    -0.255314     6A1    -0.251672
       7A1    -0.076072     3B1    -0.031399     3B2    -0.031399
       8A1    -0.021732     9A1     0.051959     1A2     0.054555
      10A1     0.054555     4B1     0.054654     4B2     0.054654
      11A1     0.334888     5B1     1.067802     5B2     1.067802
      12A1     1.078359

    Beta Occupied:

       1A1   -47.164616     2A1    -3.432114     1B2    -2.177067
       1B1    -2.177067     3A1    -2.177036

    Beta Virtual:

       4A1    -0.370639     5A1    -0.224369     2B1    -0.214215
       2B2    -0.214215     6A1    -0.153012     7A1    -0.053155
       3B1    -0.013843     3B2    -0.013843     8A1     0.001972
       4B1     0.095175     4B2     0.095175     9A1     0.095528
       1A2     0.095529    10A1     0.098777    11A1     0.544327
      12A1     1.318984     5B2     1.323138     5B1     1.323138

    Final Occupation by Irrep:
             A1    A2    B1    B2
    DOCC [     3,    0,    1,    1 ]
    SOCC [     2,    0,    0,    0 ]
    NA   [     5,    0,    1,    1 ]
    NB   [     3,    0,    1,    1 ]

  @DF-UKS Final Energy:  -200.30769035961075

   => Energetics <=

    Nuclear Repulsion Energy =              1.6782553383632213
    One-Electron Energy =                -279.2262994853515465
    Two-Electron Energy =                  90.5966181009092537
    DFT Exchange-Correlation Energy =     -13.3562643135316925
    Empirical Dispersion Energy =           0.0000000000000000
    VV10 Nonlocal Energy =                  0.0000000000000000
    Total Energy =                       -200.3076903596107456

  UHF NO Occupations:
  HONO-2 :    1 B2 1.9999985
  HONO-1 :    4 A1 1.0000000
  HONO-0 :    5 A1 1.0000000
  LUNO+0 :    2 B1 0.0000015
  LUNO+1 :    2 B2 0.0000015
  LUNO+2 :    6 A1 0.0000014
  LUNO+3 :    7 A1 0.0000000

Computation Completed

Properties will be evaluated at   0.000000,   0.000000,   0.000000 [a0]

Properties computed using the SCF density matrix

 Multipole Moments:

 ------------------------------------------------------------------------------------
     Multipole            Electronic (a.u.)      Nuclear  (a.u.)        Total (a.u.)
 ------------------------------------------------------------------------------------

 L = 1.  Multiply by 2.5417464519 to convert [e a0] to [Debye]
 Dipole X            :          0.0000000            0.0000000            0.0000000
 Dipole Y            :          0.0000000            0.0000000            0.0000000
 Dipole Z            :         -3.5710786            3.4019715           -0.1691070
 Magnitude           :                                                    0.1691070

 ------------------------------------------------------------------------------------

*** tstop() called on Joses-MacBook-Pro-2.local at Thu Jul 17 12:21:53 2025
Module time:
	user time   =       2.01 seconds =       0.03 minutes
	system time =       2.39 seconds =       0.04 minutes
	total time  =          0 seconds =       0.00 minutes
Total time:
	user time   =      52.68 seconds =       0.88 minutes
	system time =      66.62 seconds =       1.11 minutes
	total time  =         11 seconds =       0.18 minutes

*** tstart() called on Joses-MacBook-Pro-2.local
*** at Thu Jul 17 12:21:53 2025

         ------------------------------------------------------------
                                   SCF GRAD
                          Rob Parrish, Justin Turney,
                       Andy Simmonett, and Alex Sokolov
         ------------------------------------------------------------

  ==> Geometry <==

    Molecular point group: c2v
    Full point group: C_inf_v

    Geometry (in Angstrom), charge = 1, multiplicity = 3:

       Center              X                  Y                   Z               Mass
    ------------   -----------------  -----------------  -----------------  -----------------
         H            0.000000000000     0.000000000000     3.631188095386     1.007825032230
         MG           0.000000000000     0.000000000000    -0.152578523961    23.985041697000

  Nuclear repulsion =    1.678255338363221

  ==> Basis Set <==

  Basis Set: CC-PVDZ
    Blend: CC-PVDZ
    Number of shells: 11
    Number of basis functions: 23
    Number of Cartesian functions: 24
    Spherical Harmonics?: true
    Max angular momentum: 2

  ==> DFJKGrad: Density-Fitted SCF Gradients <==

    Gradient:                    1
    J tasked:                  Yes
    K tasked:                  Yes
    wK tasked:                  No
    OpenMP threads:              1
    Integrals threads:           1
    Memory [MiB]:              375
    Schwarz Cutoff:          1E-12
    Fitting Condition:       1E-10

   => Auxiliary Basis Set <=

  Basis Set: (CC-PVDZ AUX)
    Blend: CC-PVDZ-JKFIT + DEF2-UNIVERSAL-JKFIT
    Number of shells: 43
    Number of basis functions: 135
    Number of Cartesian functions: 162
    Spherical Harmonics?: true
    Max angular momentum: 4

  ==> DFT Potential <==

   => LibXC <=

    Version 6.2.2
    S. Lehtola, C. Steigemann, M. J.T. Oliveira, and M. A.L. Marques.,  SoftwareX 7, 1â€“5 (2018) (10.1016/j.softx.2017.11.002)

   => Composite Functional: B3LYP <=

    B3LYP Hyb-GGA Exchange-Correlation Functional

    P. J. Stephens, F. J. Devlin, C. F. Chabalowski, and M. J. Frisch.,  J. Phys. Chem. 98, 11623 (1994) (10.1021/j100096a001)

    Deriv               =              1
    GGA                 =           TRUE
    Meta                =          FALSE

    Exchange Hybrid     =           TRUE
    MP2 Hybrid          =          FALSE

   => Exchange Functionals <=

    0.0800   Slater exchange
    0.7200         Becke 88

   => Exact (HF) Exchange <=

    0.2000               HF

   => Correlation Functionals <=

    0.1900   Vosko, Wilk & Nusair (VWN5_RPA)
    0.8100   Lee, Yang & Parr

   => LibXC Density Thresholds  <==

    XC_HYB_GGA_XC_B3LYP:  1.00E-15

   => Molecular Quadrature <=

    Radial Scheme          =       TREUTLER
    Pruning Scheme         =           NONE
    Nuclear Scheme         =       TREUTLER

    Blocking Scheme        =         OCTREE
    BS radius alpha        =              1
    Pruning alpha          =              1
    Radial Points          =             75
    Spherical Points       =            302
    Total Points           =          43570
    Total Blocks           =            415
    Max Points             =            251
    Max Functions          =             23
    Weights Tolerance      =       1.00E-15

  -Total Gradient:
     Atom            X                  Y                   Z
    ------   -----------------  -----------------  -----------------
       1       -0.000000000000     0.000000000000    -0.000002641666
       2        0.000000000000     0.000000000000     0.000004146992

*** tstop() called on Joses-MacBook-Pro-2.local at Thu Jul 17 12:21:53 2025
Module time:
	user time   =       0.69 seconds =       0.01 minutes
	system time =       1.16 seconds =       0.02 minutes
	total time  =          0 seconds =       0.00 minutes
Total time:
	user time   =      53.39 seconds =       0.89 minutes
	system time =      67.78 seconds =       1.13 minutes
	total time  =         11 seconds =       0.18 minutes

    			-----------------------------------------

    			 OPTKING 3.0: for geometry optimizations

    			     By R.A. King, Bethel University

    			        with contributions from

    			    A.V. Copan, J. Cayton, A. Heide

    			-----------------------------------------

	                            ===> Fragment 1 <==

	 Z (Atomic Numbers)          Masses                          Geom
	       1.000000             1.007825          0.00000000  0.00000000  6.86195101
	      12.000000            23.985042          0.00000000  0.00000000 -0.28833162

	 - Coordinate -           - BOHR/RAD -       - ANG/DEG -
	 R(1,2)           =         7.150283           3.783767

	        --- Internal Coordinate Step in ANG or DEG, aJ/ANG or AJ/DEG ---
	-------------------------------------------------------------------------------
	           Coordinate      Previous         Force          Change          New
	           ----------      --------        ------          ------        ------
	               R(1,2)       3.78377        0.00003        0.00550       3.78926
	-------------------------------------------------------------------------------

	                                 ==> Convergence Check <==

	Measures of convergence in internal coordinates in au.

	Criteria marked as inactive (o), active & met (*), and active & unmet ( ).

	----------------------------------------------------------------------------------------------
	   Step    Total Energy     Delta E     Max Force     RMS Force      Max Disp      RMS Disp
	----------------------------------------------------------------------------------------------
	  Convergence Criteria     1.00e-06 *    3.00e-04 *             o    1.20e-03 *             o
	----------------------------------------------------------------------------------------------
	    16    -200.30769036   -1.37e-07 *    3.39e-06 *    3.39e-06 o    1.04e-02      1.04e-02 o  ~
	----------------------------------------------------------------------------------------------

Next Geometry in Ang
	Fragment 1 (Ang)

	    H   0.0000000000   0.0000000000   3.6339371901
	   Mg   0.0000000000   0.0000000000  -0.1553276186

    Final optimized geometry and variables:
    Molecular point group: c2v
    Full point group: C_inf_v

    Geometry (in Angstrom), charge = 1, multiplicity = 3:

    H            0.000000000000     0.000000000000     3.631188095386
    MG           0.000000000000     0.000000000000    -0.152578523961

    Psi4 stopped on: Thursday, 17 July 2025 12:21PM
    Psi4 wall time for execution: 0:00:12.20

*** Psi4 exiting successfully. Buy a developer a beer!
