                               Psi4 1.9.1 release

  ==> Input File <==

--------------------------------------------------------------------------
molecule {
1 3
F   0.00000        0.60000        0.00000
Ar   0.00000       -0.60000        0.00000
}

set {
basis              cc-pvdz
reference          uks
maxiter            500
geom_maxiter       500
DAMPING_PERCENTAGE 1
guess              SAP
}

optimize('b3lyp')
--------------------------------------------------------------------------

    Molecular point group: c2v
  Charge       = 1
  Multiplicity = 3
  Basis Set: CC-PVDZ
    Blend: CC-PVDZ
  Basis Set: (CC-PVDZ AUX)
    Blend: CC-PVDZ-JKFIT
  @DF-UKS Final Energy:  -626.20718343189719
    Total Energy =                       -626.2071834318970787
 Dipole X            :          0.0000000            0.0000000            0.0000000
 Dipole Y            :          0.0000000            0.0000000            0.0000000
 Dipole Z            :         -0.6723054            0.6803766            0.0080712
 Magnitude           :                                                    0.0080712
    Molecular point group: c2v
  Basis Set: CC-PVDZ
    Blend: CC-PVDZ
  Basis Set: (CC-PVDZ AUX)
    Blend: CC-PVDZ-JKFIT
  Basis Set: CC-PVDZ
    Blend: CC-PVDZ
  Basis Set: (CC-PVDZ AUX)
    Blend: CC-PVDZ-JKFIT
  @DF-UKS Final Energy:  -626.43975030938395
    Total Energy =                       -626.4397503093839532
  Basis Set: CC-PVDZ
    Blend: CC-PVDZ
  Basis Set: (CC-PVDZ AUX)
    Blend: CC-PVDZ-JKFIT
  Basis Set: CC-PVDZ
    Blend: CC-PVDZ
  @DF-UKS Final Energy:  -626.59609971234318
    Total Energy =                       -626.5960997123431753
  @DF-UKS Final Energy:  -626.68584275437945
    Total Energy =                       -626.6858427543794505
  @DF-UKS Final Energy:  -626.72364795690589
    Total Energy =                       -626.7236479569058929
  @DF-UKS Final Energy:  -626.73942463936442
    Total Energy =                       -626.7394246393644153
  @DF-UKS Final Energy:  -626.74569137129663
    Total Energy =                       -626.7456913712965161
  @DF-UKS Final Energy:  -626.74740176945227
    Total Energy =                       -626.7474017694521535
  @DF-UKS Final Energy:  -626.74809264346732
    Total Energy =                       -626.7480926434674302
  @DF-UKS Final Energy:  -626.74823180264070
    Total Energy =                       -626.7482318026407029
  @DF-UKS Final Energy:  -626.74826298230118
    Total Energy =                       -626.7482629823012985
  @DF-UKS Final Energy:  -626.74827178938551
    Total Energy =                       -626.7482717893855124
  Basis Set: (CC-PVDZ AUX)
    Blend: CC-PVDZ-JKFIT
  Basis Set: CC-PVDZ
    Blend: CC-PVDZ
  Basis Set: (CC-PVDZ AUX)
    Blend: CC-PVDZ-JKFIT
  @DF-UKS Final Energy:  -626.74827286128084
    Total Energy =                       -626.7482728612806113
  Basis Set: CC-PVDZ
    Blend: CC-PVDZ
  Basis Set: (CC-PVDZ AUX)
    Blend: CC-PVDZ-JKFIT
  Charge       = 1
  Multiplicity = 3
  Basis Set: CC-PVDZ
    Blend: CC-PVDZ
  Basis Set: (CC-PVDZ AUX)
    Blend: CC-PVDZ-JKFIT

    Orbital Energies [Eh]
    ---------------------

    Alpha Occupied:

       1A1  -115.508858     2A1   -25.237510     3A1   -11.539863
       4A1    -9.103959     1B1    -9.085718     1B2    -9.084740
       5A1    -1.638117     6A1    -1.351484     2B1    -0.944396
       7A1    -0.922559     2B2    -0.854731     8A1    -0.790877
       3B1    -0.778735     3B2    -0.775031

    Alpha Virtual:

       4B1     0.272488     4B2     0.276220     9A1     0.289657
      10A1     0.369467    11A1     0.405829     5B1     0.430989
       5B2     0.434835     1A2     0.477142    12A1     0.477153
       6B1     0.720970     6B2     0.770284    13A1     0.867494
      14A1     1.314708     7B1     3.029984    15A1     3.033026
       2A2     3.062080     7B2     3.098820    16A1     3.115723

    Beta Occupied:

       1A1  -115.502740     2A1   -25.190937     3A1   -11.534082
       4A1    -9.085525     1B1    -9.081498     1B2    -9.081224
       5A1    -1.509879     6A1    -1.311250     2B2    -0.810568
       7A1    -0.807397     2B1    -0.765698     3B2    -0.760384

    Beta Virtual:

       8A1    -0.633622     3B1    -0.626109     4B1     0.281451
       4B2     0.281505     9A1     0.318841    10A1     0.402323
      11A1     0.449220     5B2     0.475777     5B1     0.476718
       1A2     0.485693    12A1     0.485699     6B2     0.793617
       6B1     0.827848    13A1     0.923961    14A1     1.373352
       7B2     3.153872     2A2     3.163246    15A1     3.166434
       7B1     3.170280    16A1     3.190761

    Final Occupation by Irrep:
             A1    A2    B1    B2
    DOCC [     7,    0,    2,    3 ]
    SOCC [     1,    0,    1,    0 ]
    NA   [     8,    0,    3,    3 ]
    NB   [     7,    0,    2,    3 ]

  @DF-UKS Final Energy:  -626.74827292387261

   => Energetics <=

    Nuclear Repulsion Energy =             38.5076984288551785
    One-Electron Energy =                -934.0126910680157835
    Two-Electron Energy =                 301.6829278105710159
    DFT Exchange-Correlation Energy =     -32.9262080952829805
    Empirical Dispersion Energy =           0.0000000000000000
    VV10 Nonlocal Energy =                  0.0000000000000000
    Total Energy =                       -626.7482729238726051

  UHF NO Occupations:
  HONO-2 :    7 A1 1.9988922
  HONO-1 :    8 A1 1.0000000
  HONO-0 :    3 B1 1.0000000
  LUNO+0 :    9 A1 0.0011078
  LUNO+1 :   10 A1 0.0003354
  LUNO+2 :   11 A1 0.0002586
  LUNO+3 :    4 B2 0.0001211

Computation Completed

Properties will be evaluated at   0.000000,   0.000000,   0.000000 [a0]

Properties computed using the SCF density matrix

 Multipole Moments:

 ------------------------------------------------------------------------------------
     Multipole            Electronic (a.u.)      Nuclear  (a.u.)        Total (a.u.)
 ------------------------------------------------------------------------------------

 L = 1.  Multiply by 2.5417464519 to convert [e a0] to [Debye]
 Dipole X            :          0.0000000            0.0000000            0.0000000
 Dipole Y            :          0.0000000            0.0000000            0.0000000
 Dipole Z            :         -1.0607642            1.2622248            0.2014606
 Magnitude           :                                                    0.2014606

 ------------------------------------------------------------------------------------

*** tstop() called on Joses-MacBook-Pro-2.local at Thu Jul 17 14:36:32 2025
Module time:
	user time   =       2.13 seconds =       0.04 minutes
	system time =       3.80 seconds =       0.06 minutes
	total time  =          0 seconds =       0.00 minutes
Total time:
	user time   =      54.29 seconds =       0.90 minutes
	system time =      96.73 seconds =       1.61 minutes
	total time  =         15 seconds =       0.25 minutes

*** tstart() called on Joses-MacBook-Pro-2.local
*** at Thu Jul 17 14:36:32 2025

         ------------------------------------------------------------
                                   SCF GRAD
                          Rob Parrish, Justin Turney,
                       Andy Simmonett, and Alex Sokolov
         ------------------------------------------------------------

  ==> Geometry <==

    Molecular point group: c2v
    Full point group: C_inf_v

    Geometry (in Angstrom), charge = 1, multiplicity = 3:

       Center              X                  Y                   Z               Mass
    ------------   -----------------  -----------------  -----------------  -----------------
         F            0.000000000000     0.000000000000     1.508886934195    18.998403162730
         AR           0.000000000000     0.000000000000    -0.717335655736    39.962383123700

  Nuclear repulsion =   38.507698428855178

  ==> Basis Set <==

  Basis Set: CC-PVDZ
    Blend: CC-PVDZ
    Number of shells: 14
    Number of basis functions: 32
    Number of Cartesian functions: 34
    Spherical Harmonics?: true
    Max angular momentum: 2

  ==> DFJKGrad: Density-Fitted SCF Gradients <==

    Gradient:                    1
    J tasked:                  Yes
    K tasked:                  Yes
    wK tasked:                  No
    OpenMP threads:              1
    Integrals threads:           1
    Memory [MiB]:              375
    Schwarz Cutoff:          1E-12
    Fitting Condition:       1E-10

   => Auxiliary Basis Set <=

  Basis Set: (CC-PVDZ AUX)
    Blend: CC-PVDZ-JKFIT
    Number of shells: 60
    Number of basis functions: 182
    Number of Cartesian functions: 211
    Spherical Harmonics?: true
    Max angular momentum: 3

  ==> DFT Potential <==

   => LibXC <=

    Version 6.2.2
    S. Lehtola, C. Steigemann, M. J.T. Oliveira, and M. A.L. Marques.,  SoftwareX 7, 1â€“5 (2018) (10.1016/j.softx.2017.11.002)

   => Composite Functional: B3LYP <=

    B3LYP Hyb-GGA Exchange-Correlation Functional

    P. J. Stephens, F. J. Devlin, C. F. Chabalowski, and M. J. Frisch.,  J. Phys. Chem. 98, 11623 (1994) (10.1021/j100096a001)

    Deriv               =              1
    GGA                 =           TRUE
    Meta                =          FALSE

    Exchange Hybrid     =           TRUE
    MP2 Hybrid          =          FALSE

   => Exchange Functionals <=

    0.0800   Slater exchange
    0.7200         Becke 88

   => Exact (HF) Exchange <=

    0.2000               HF

   => Correlation Functionals <=

    0.1900   Vosko, Wilk & Nusair (VWN5_RPA)
    0.8100   Lee, Yang & Parr

   => LibXC Density Thresholds  <==

    XC_HYB_GGA_XC_B3LYP:  1.00E-15

   => Molecular Quadrature <=

    Radial Scheme          =       TREUTLER
    Pruning Scheme         =           NONE
    Nuclear Scheme         =       TREUTLER

    Blocking Scheme        =         OCTREE
    BS radius alpha        =              1
    Pruning alpha          =              1
    Radial Points          =             75
    Spherical Points       =            302
    Total Points           =          41425
    Total Blocks           =            372
    Max Points             =            256
    Max Functions          =             32
    Weights Tolerance      =       1.00E-15

  -Total Gradient:
     Atom            X                  Y                   Z
    ------   -----------------  -----------------  -----------------
       1        0.000000000000    -0.000000000000     0.000015005756
       2        0.000000000000     0.000000000000     0.000028347642

*** tstop() called on Joses-MacBook-Pro-2.local at Thu Jul 17 14:36:33 2025
Module time:
	user time   =       1.03 seconds =       0.02 minutes
	system time =       1.62 seconds =       0.03 minutes
	total time  =          1 seconds =       0.02 minutes
Total time:
	user time   =      55.33 seconds =       0.92 minutes
	system time =      98.36 seconds =       1.64 minutes
	total time  =         16 seconds =       0.27 minutes

    			-----------------------------------------

    			 OPTKING 3.0: for geometry optimizations

    			     By R.A. King, Bethel University

    			        with contributions from

    			    A.V. Copan, J. Cayton, A. Heide

    			-----------------------------------------

	                            ===> Fragment 1 <==

	 Z (Atomic Numbers)          Masses                          Geom
	       9.000000            18.998403          0.00000000  0.00000000  2.85138306
	      18.000000            39.962383          0.00000000  0.00000000 -1.35556793

	 - Coordinate -           - BOHR/RAD -       - ANG/DEG -
	 R(1,2)           =         4.206951           2.226223

	        --- Internal Coordinate Step in ANG or DEG, aJ/ANG or AJ/DEG ---
	-------------------------------------------------------------------------------
	           Coordinate      Previous         Force          Change          New
	           ----------      --------        ------          ------        ------
	               R(1,2)       2.22622        0.00005        0.00008       2.22630
	-------------------------------------------------------------------------------

	                                 ==> Convergence Check <==

	Measures of convergence in internal coordinates in au.

	Criteria marked as inactive (o), active & met (*), and active & unmet ( ).

	----------------------------------------------------------------------------------------------
	   Step    Total Energy     Delta E     Max Force     RMS Force      Max Disp      RMS Disp
	----------------------------------------------------------------------------------------------
	  Convergence Criteria     1.00e-06 *    3.00e-04 *             o    1.20e-03 *             o
	----------------------------------------------------------------------------------------------
	    14    -626.74827292   -6.26e-08 *    6.67e-06 *    6.67e-06 o    1.46e-04 *    1.46e-04 o  ~
	----------------------------------------------------------------------------------------------

Next Geometry in Ang
	Fragment 1 (Ang)

	    F   0.0000000000   0.0000000000   1.5089256459
	   Ar   0.0000000000   0.0000000000  -0.7173743675

    Final optimized geometry and variables:
    Molecular point group: c2v
    Full point group: C_inf_v

    Geometry (in Angstrom), charge = 1, multiplicity = 3:

    F            0.000000000000     0.000000000000     1.508886934195
    AR           0.000000000000     0.000000000000    -0.717335655736

    Psi4 stopped on: Thursday, 17 July 2025 02:36PM
    Psi4 wall time for execution: 0:00:16.50

*** Psi4 exiting successfully. Buy a developer a beer!
