                               Psi4 1.9.1 release

  ==> Input File <==

--------------------------------------------------------------------------
molecule {
1 3
Si   0.00000        0.60000        0.00000
Cl   0.00000       -0.60000        0.00000
}

set {
basis              cc-pvdz
reference          uks
maxiter            500
geom_maxiter       500
DAMPING_PERCENTAGE 1
guess              SAP
}

optimize('b3lyp')
--------------------------------------------------------------------------

    Molecular point group: c2v
  Charge       = 1
  Multiplicity = 3
  Basis Set: CC-PVDZ
    Blend: CC-PVDZ
  Basis Set: (CC-PVDZ AUX)
    Blend: CC-PVDZ-JKFIT
  @DF-UKS Final Energy:  -748.10575990800214
    Total Energy =                       -748.1057599080021419
 Dipole X            :          0.0000000            0.0000000            0.0000000
 Dipole Y            :          0.0000000            0.0000000            0.0000000
 Dipole Z            :         -0.3419232            0.5027826            0.1608595
 Magnitude           :                                                    0.1608595
    Molecular point group: c2v
  Basis Set: CC-PVDZ
    Blend: CC-PVDZ
  Basis Set: (CC-PVDZ AUX)
    Blend: CC-PVDZ-JKFIT
  Basis Set: CC-PVDZ
    Blend: CC-PVDZ
  Basis Set: (CC-PVDZ AUX)
    Blend: CC-PVDZ-JKFIT
  @DF-UKS Final Energy:  -748.14276983482000
    Total Energy =                       -748.1427698348201147
  Basis Set: CC-PVDZ
    Blend: CC-PVDZ
  Basis Set: (CC-PVDZ AUX)
    Blend: CC-PVDZ-JKFIT
  Basis Set: CC-PVDZ
    Blend: CC-PVDZ
  @DF-UKS Final Energy:  -748.21190835451068
    Total Energy =                       -748.2119083545105696
  @DF-UKS Final Energy:  -748.44060501655986
    Total Energy =                       -748.4406050165597435
  @DF-UKS Final Energy:  -748.96321892899289
    Total Energy =                       -748.9632189289928874
  @DF-UKS Final Energy:  -749.12987437156676
    Total Energy =                       -749.1298743715667570
  @DF-UKS Final Energy:  -749.22691493451919
    Total Energy =                       -749.2269149345191863
  @DF-UKS Final Energy:  -749.26097196845058
    Total Energy =                       -749.2609719684506899
  @DF-UKS Final Energy:  -749.27704307555041
    Total Energy =                       -749.2770430755504094
  @DF-UKS Final Energy:  -749.28379540446474
    Total Energy =                       -749.2837954044647404
  @DF-UKS Final Energy:  -749.28550976025451
    Total Energy =                       -749.2855097602545129
  @DF-UKS Final Energy:  -749.28612362821980
    Total Energy =                       -749.2861236282197979
  @DF-UKS Final Energy:  -749.28625670900635
    Total Energy =                       -749.2862567090063521
  @DF-UKS Final Energy:  -749.28629290117544
    Total Energy =                       -749.2862929011754431
  Basis Set: (CC-PVDZ AUX)
    Blend: CC-PVDZ-JKFIT
  Basis Set: CC-PVDZ
    Blend: CC-PVDZ
  Basis Set: (CC-PVDZ AUX)
    Blend: CC-PVDZ-JKFIT
  @DF-UKS Final Energy:  -749.28629825752978
    Total Energy =                       -749.2862982575297792
  Basis Set: CC-PVDZ
    Blend: CC-PVDZ
  Basis Set: (CC-PVDZ AUX)
    Blend: CC-PVDZ-JKFIT
  Charge       = 1
  Multiplicity = 3
  Basis Set: CC-PVDZ
    Blend: CC-PVDZ
  Basis Set: (CC-PVDZ AUX)
    Blend: CC-PVDZ-JKFIT

    Orbital Energies [Eh]
    ---------------------

    Alpha Occupied:

       1A1  -101.844994     2A1   -66.530393     3A1    -9.761911
       4A1    -7.527856     1B1    -7.514872     1B2    -7.513472
       5A1    -5.666755     2B1    -4.027649     6A1    -4.026343
       2B2    -4.023205     7A1    -1.125370     8A1    -0.788863
       9A1    -0.638436     3B2    -0.621474     3B1    -0.619004
       4B2    -0.454771

    Alpha Virtual:

       4B1    -0.387505    10A1    -0.261125    11A1    -0.033716
       5B2     0.024948    12A1     0.027618     5B1     0.029762
       1A2     0.049012    13A1     0.054221     6B2     0.066287
       6B1     0.071203    14A1     0.147532     7B1     0.327025
       7B2     0.330189    15A1     0.406040     2A2     0.460361
      16A1     0.460523    17A1     0.514596     8B1     0.575373
       8B2     0.575690    18A1     0.968700

    Beta Occupied:

       1A1  -101.841830     2A1   -66.522711     3A1    -9.758850
       4A1    -7.519036     1B1    -7.513312     1B2    -7.509825
       5A1    -5.656810     2B1    -4.021616     6A1    -4.016931
       2B2    -4.005837     7A1    -1.103423     8A1    -0.734588
       3B1    -0.613078     3B2    -0.602591

    Beta Virtual:

       9A1    -0.511239     4B1    -0.351744     4B2    -0.319615
      10A1    -0.219961    11A1    -0.021234     5B1     0.045884
      12A1     0.058980     5B2     0.067455     6B1     0.100084
      13A1     0.111965     1A2     0.112345     6B2     0.124199
      14A1     0.178077     7B1     0.331374     7B2     0.338303
      15A1     0.436463    16A1     0.468529     2A2     0.468541
      17A1     0.533611     8B1     0.596065     8B2     0.608547
      18A1     0.984201

    Final Occupation by Irrep:
             A1    A2    B1    B2
    DOCC [     8,    0,    3,    3 ]
    SOCC [     1,    0,    0,    1 ]
    NA   [     9,    0,    3,    4 ]
    NB   [     8,    0,    3,    3 ]

  @DF-UKS Final Energy:  -749.28629854927010

   => Energetics <=

    Nuclear Repulsion Energy =             61.6786499451571189
    One-Electron Energy =               -1149.8381526591570037
    Two-Electron Energy =                 378.2128278062932623
    DFT Exchange-Correlation Energy =     -39.3396236415634846
    Empirical Dispersion Energy =           0.0000000000000000
    VV10 Nonlocal Energy =                  0.0000000000000000
    Total Energy =                       -749.2862985492701000

  UHF NO Occupations:
  HONO-2 :    8 A1 1.9985956
  HONO-1 :    9 A1 1.0000000
  HONO-0 :    4 B2 1.0000000
  LUNO+0 :   10 A1 0.0014044
  LUNO+1 :    4 B1 0.0003951
  LUNO+2 :    5 B2 0.0001720
  LUNO+3 :   11 A1 0.0000998

Computation Completed

Properties will be evaluated at   0.000000,   0.000000,   0.000000 [a0]

Properties computed using the SCF density matrix

 Multipole Moments:

 ------------------------------------------------------------------------------------
     Multipole            Electronic (a.u.)      Nuclear  (a.u.)        Total (a.u.)
 ------------------------------------------------------------------------------------

 L = 1.  Multiply by 2.5417464519 to convert [e a0] to [Debye]
 Dipole X            :          0.0000000            0.0000000            0.0000000
 Dipole Y            :          0.0000000            0.0000000            0.0000000
 Dipole Z            :          0.6811989            0.8555438            1.5367427
 Magnitude           :                                                    1.5367427

 ------------------------------------------------------------------------------------

*** tstop() called on Joses-MacBook-Pro-2.local at Thu Jul 17 15:42:41 2025
Module time:
	user time   =       7.03 seconds =       0.12 minutes
	system time =       1.96 seconds =       0.03 minutes
	total time  =          1 seconds =       0.02 minutes
Total time:
	user time   =     190.78 seconds =       3.18 minutes
	system time =      51.16 seconds =       0.85 minutes
	total time  =         23 seconds =       0.38 minutes

*** tstart() called on Joses-MacBook-Pro-2.local
*** at Thu Jul 17 15:42:41 2025

         ------------------------------------------------------------
                                   SCF GRAD
                          Rob Parrish, Justin Turney,
                       Andy Simmonett, and Alex Sokolov
         ------------------------------------------------------------

  ==> Geometry <==

    Molecular point group: c2v
    Full point group: C_inf_v

    Geometry (in Angstrom), charge = 1, multiplicity = 3:

       Center              X                  Y                   Z               Mass
    ------------   -----------------  -----------------  -----------------  -----------------
         SI           0.000000000000     0.000000000000     1.134378535014    27.976926534650
         CL           0.000000000000     0.000000000000    -0.907562659410    34.968852682000

  Nuclear repulsion =   61.678649945157126

  ==> Basis Set <==

  Basis Set: CC-PVDZ
    Blend: CC-PVDZ
    Number of shells: 16
    Number of basis functions: 36
    Number of Cartesian functions: 38
    Spherical Harmonics?: true
    Max angular momentum: 2

  ==> DFJKGrad: Density-Fitted SCF Gradients <==

    Gradient:                    1
    J tasked:                  Yes
    K tasked:                  Yes
    wK tasked:                  No
    OpenMP threads:              1
    Integrals threads:           1
    Memory [MiB]:              375
    Schwarz Cutoff:          1E-12
    Fitting Condition:       1E-10

   => Auxiliary Basis Set <=

  Basis Set: (CC-PVDZ AUX)
    Blend: CC-PVDZ-JKFIT
    Number of shells: 72
    Number of basis functions: 224
    Number of Cartesian functions: 260
    Spherical Harmonics?: true
    Max angular momentum: 3

  ==> DFT Potential <==

   => LibXC <=

    Version 6.2.2
    S. Lehtola, C. Steigemann, M. J.T. Oliveira, and M. A.L. Marques.,  SoftwareX 7, 1â€“5 (2018) (10.1016/j.softx.2017.11.002)

   => Composite Functional: B3LYP <=

    B3LYP Hyb-GGA Exchange-Correlation Functional

    P. J. Stephens, F. J. Devlin, C. F. Chabalowski, and M. J. Frisch.,  J. Phys. Chem. 98, 11623 (1994) (10.1021/j100096a001)

    Deriv               =              1
    GGA                 =           TRUE
    Meta                =          FALSE

    Exchange Hybrid     =           TRUE
    MP2 Hybrid          =          FALSE

   => Exchange Functionals <=

    0.0800   Slater exchange
    0.7200         Becke 88

   => Exact (HF) Exchange <=

    0.2000               HF

   => Correlation Functionals <=

    0.1900   Vosko, Wilk & Nusair (VWN5_RPA)
    0.8100   Lee, Yang & Parr

   => LibXC Density Thresholds  <==

    XC_HYB_GGA_XC_B3LYP:  1.00E-15

   => Molecular Quadrature <=

    Radial Scheme          =       TREUTLER
    Pruning Scheme         =           NONE
    Nuclear Scheme         =       TREUTLER

    Blocking Scheme        =         OCTREE
    BS radius alpha        =              1
    Pruning alpha          =              1
    Radial Points          =             75
    Spherical Points       =            302
    Total Points           =          41591
    Total Blocks           =            383
    Max Points             =            255
    Max Functions          =             36
    Weights Tolerance      =       1.00E-15

  -Total Gradient:
     Atom            X                  Y                   Z
    ------   -----------------  -----------------  -----------------
       1        0.000000000000    -0.000000000000    -0.000032909335
       2        0.000000000000    -0.000000000000     0.000059290514

*** tstop() called on Joses-MacBook-Pro-2.local at Thu Jul 17 15:42:41 2025
Module time:
	user time   =       2.58 seconds =       0.04 minutes
	system time =       1.37 seconds =       0.02 minutes
	total time  =          0 seconds =       0.00 minutes
Total time:
	user time   =     193.36 seconds =       3.22 minutes
	system time =      52.53 seconds =       0.88 minutes
	total time  =         23 seconds =       0.38 minutes

    			-----------------------------------------

    			 OPTKING 3.0: for geometry optimizations

    			     By R.A. King, Bethel University

    			        with contributions from

    			    A.V. Copan, J. Cayton, A. Heide

    			-----------------------------------------

	                            ===> Fragment 1 <==

	 Z (Atomic Numbers)          Masses                          Geom
	      14.000000            27.976927          0.00000000  0.00000000  2.14366475
	      17.000000            34.968853          0.00000000  0.00000000 -1.71504487

	 - Coordinate -           - BOHR/RAD -       - ANG/DEG -
	 R(1,2)           =         3.858710           2.041941

	        --- Internal Coordinate Step in ANG or DEG, aJ/ANG or AJ/DEG ---
	-------------------------------------------------------------------------------
	           Coordinate      Previous         Force          Change          New
	           ----------      --------        ------          ------        ------
	               R(1,2)       2.04194        0.00038        0.00014       2.04208
	-------------------------------------------------------------------------------

	                                 ==> Convergence Check <==

	Measures of convergence in internal coordinates in au.

	Criteria marked as inactive (o), active & met (*), and active & unmet ( ).

	----------------------------------------------------------------------------------------------
	   Step    Total Energy     Delta E     Max Force     RMS Force      Max Disp      RMS Disp
	----------------------------------------------------------------------------------------------
	  Convergence Criteria     1.00e-06 *    3.00e-04 *             o    1.20e-03 *             o
	----------------------------------------------------------------------------------------------
	    16    -749.28629855   -2.92e-07 *    4.61e-05 *    4.61e-05 o    2.72e-04 *    2.72e-04 o  ~
	----------------------------------------------------------------------------------------------

Next Geometry in Ang
	Fragment 1 (Ang)

	   Si   0.0000000000   0.0000000000   1.1344504367
	   Cl   0.0000000000   0.0000000000  -0.9076345611

    Final optimized geometry and variables:
    Molecular point group: c2v
    Full point group: C_inf_v

    Geometry (in Angstrom), charge = 1, multiplicity = 3:

    SI           0.000000000000     0.000000000000     1.134378535014
    CL           0.000000000000     0.000000000000    -0.907562659410

    Psi4 stopped on: Thursday, 17 July 2025 03:42PM
    Psi4 wall time for execution: 0:00:23.89

*** Psi4 exiting successfully. Buy a developer a beer!
