                               Psi4 1.9.1 release

  ==> Input File <==

--------------------------------------------------------------------------
molecule {
1 3
Mg   0.00000        0.60000        0.00000
P   0.00000       -0.60000        0.00000
}

set {
basis              cc-pvdz
reference          uks
maxiter            500
geom_maxiter       500
DAMPING_PERCENTAGE 1
guess              SAP
}

optimize('b3lyp')
--------------------------------------------------------------------------

    Molecular point group: c2v
  Charge       = 1
  Multiplicity = 3
  Basis Set: CC-PVDZ
    Blend: CC-PVDZ
  Basis Set: (CC-PVDZ AUX)
    Blend: CC-PVDZ-JKFIT + DEF2-UNIVERSAL-JKFIT
  @DF-UKS Final Energy:  -540.05828674226177
    Total Energy =                       -540.0582867422617710
 Dipole X            :          0.0000000            0.0000000            0.0000000
 Dipole Y            :          0.0000000            0.0000000            0.0000000
 Dipole Z            :          0.7689546            0.4914021            1.2603568
 Magnitude           :                                                    1.2603568
    Molecular point group: c2v
  Basis Set: CC-PVDZ
    Blend: CC-PVDZ
  Basis Set: (CC-PVDZ AUX)
    Blend: CC-PVDZ-JKFIT + DEF2-UNIVERSAL-JKFIT
  Basis Set: CC-PVDZ
    Blend: CC-PVDZ
  Basis Set: (CC-PVDZ AUX)
    Blend: CC-PVDZ-JKFIT + DEF2-UNIVERSAL-JKFIT
  @DF-UKS Final Energy:  -540.07292389756140
    Total Energy =                       -540.0729238975613953
  Basis Set: CC-PVDZ
    Blend: CC-PVDZ
  Basis Set: (CC-PVDZ AUX)
    Blend: CC-PVDZ-JKFIT + DEF2-UNIVERSAL-JKFIT
  Basis Set: CC-PVDZ
    Blend: CC-PVDZ
  @DF-UKS Final Energy:  -540.10118364731920
    Total Energy =                       -540.1011836473192034
  @DF-UKS Final Energy:  -540.20370669980707
    Total Energy =                       -540.2037066998070713
  @DF-UKS Final Energy:  -540.64974478431600
    Total Energy =                       -540.6497447843159989
  @DF-UKS Final Energy:  -540.87430202575467
    Total Energy =                       -540.8743020257546732
  @DF-UKS Final Energy:  -540.98895146434234
    Total Energy =                       -540.9889514643423354
  @DF-UKS Final Energy:  -541.03554545347276
    Total Energy =                       -541.0355454534727642
  @DF-UKS Final Energy:  -541.11778350552026
    Total Energy =                       -541.1177835055202650
  @DF-UKS Final Energy:  -541.13873409084238
    Total Energy =                       -541.1387340908423766
  @DF-UKS Final Energy:  -541.13875413131541
    Total Energy =                       -541.1387541313154088
  Basis Set: (CC-PVDZ AUX)
    Blend: CC-PVDZ-JKFIT + DEF2-UNIVERSAL-JKFIT
  Basis Set: CC-PVDZ
    Blend: CC-PVDZ
  Basis Set: (CC-PVDZ AUX)
    Blend: CC-PVDZ-JKFIT + DEF2-UNIVERSAL-JKFIT
  @DF-UKS Final Energy:  -541.13885480736599
    Total Energy =                       -541.1388548073659877
  Basis Set: CC-PVDZ
    Blend: CC-PVDZ
  Basis Set: (CC-PVDZ AUX)
    Blend: CC-PVDZ-JKFIT + DEF2-UNIVERSAL-JKFIT
  Charge       = 1
  Multiplicity = 3
  Basis Set: CC-PVDZ
    Blend: CC-PVDZ
  Basis Set: (CC-PVDZ AUX)
    Blend: CC-PVDZ-JKFIT + DEF2-UNIVERSAL-JKFIT

    Orbital Energies [Eh]
    ---------------------

    Alpha Occupied:

       1A1   -77.312951     2A1   -47.125035     3A1    -6.779649
       1B2    -4.943800     1B1    -4.943800     4A1    -4.938875
       5A1    -3.399743     2B2    -2.143899     2B1    -2.143899
       6A1    -2.142403     7A1    -0.785969     8A1    -0.475692
       3B2    -0.444627     3B1    -0.444627

    Alpha Virtual:

       9A1    -0.328915     4B2    -0.215570     4B1    -0.215570
      10A1    -0.152021    11A1    -0.076056     5B2    -0.024803
       5B1    -0.024803    12A1    -0.020091     6B2     0.063533
       6B1     0.063533     1A2     0.084611    13A1     0.084611
      14A1     0.116074     7B1     0.248055     7B2     0.248055
      15A1     0.257415     2A2     0.257416    16A1     0.296464
      17A1     0.339078     8B1     0.392677     8B2     0.392677
      18A1     0.676877

    Beta Occupied:

       1A1   -77.304185     2A1   -47.125491     3A1    -6.770326
       4A1    -4.931436     1B2    -4.926885     1B1    -4.926885
       5A1    -3.400730     2B2    -2.144370     2B1    -2.144370
       6A1    -2.142852     7A1    -0.704135     8A1    -0.451642

    Beta Virtual:

       9A1    -0.324757     3B2    -0.314395     3B1    -0.314395
       4B2    -0.209582     4B1    -0.209582    10A1    -0.146512
      11A1    -0.073477     5B2    -0.023783     5B1    -0.023783
      12A1    -0.011368     6B2     0.075961     6B1     0.075961
       1A2     0.083328    13A1     0.083328    14A1     0.130194
       7B1     0.293747     7B2     0.293747    15A1     0.322245
       2A2     0.346801    16A1     0.346806    17A1     0.359489
       8B1     0.434516     8B2     0.434516    18A1     0.707255

    Final Occupation by Irrep:
             A1    A2    B1    B2
    DOCC [     8,    0,    2,    2 ]
    SOCC [     0,    0,    1,    1 ]
    NA   [     8,    0,    3,    3 ]
    NB   [     8,    0,    2,    2 ]

  @DF-UKS Final Energy:  -541.13885516691994

   => Energetics <=

    Nuclear Repulsion Energy =             38.4766894193697766
    One-Electron Energy =                -821.5625141203458952
    Two-Electron Energy =                 273.7515812064074225
    DFT Exchange-Correlation Energy =     -31.8046116723512355
    Empirical Dispersion Energy =           0.0000000000000000
    VV10 Nonlocal Energy =                  0.0000000000000000
    Total Energy =                       -541.1388551669199387

  UHF NO Occupations:
  HONO-2 :    8 A1 1.9780093
  HONO-1 :    3 B2 1.0000000
  HONO-0 :    3 B1 1.0000000
  LUNO+0 :    9 A1 0.0219907
  LUNO+1 :   10 A1 0.0010997
  LUNO+2 :    4 B1 0.0000001
  LUNO+3 :    4 B2 0.0000001

Computation Completed

Properties will be evaluated at   0.000000,   0.000000,   0.000000 [a0]

Properties computed using the SCF density matrix

 Multipole Moments:

 ------------------------------------------------------------------------------------
     Multipole            Electronic (a.u.)      Nuclear  (a.u.)        Total (a.u.)
 ------------------------------------------------------------------------------------

 L = 1.  Multiply by 2.5417464519 to convert [e a0] to [Debye]
 Dipole X            :          0.0000000            0.0000000            0.0000000
 Dipole Y            :          0.0000000            0.0000000            0.0000000
 Dipole Z            :          1.5569448            1.0137520            2.5706969
 Magnitude           :                                                    2.5706969

 ------------------------------------------------------------------------------------

*** tstop() called on Joses-MacBook-Pro-2.local at Thu Jul 17 15:07:27 2025
Module time:
	user time   =       8.52 seconds =       0.14 minutes
	system time =       2.15 seconds =       0.04 minutes
	total time  =          1 seconds =       0.02 minutes
Total time:
	user time   =     165.62 seconds =       2.76 minutes
	system time =      41.16 seconds =       0.69 minutes
	total time  =         19 seconds =       0.32 minutes

*** tstart() called on Joses-MacBook-Pro-2.local
*** at Thu Jul 17 15:07:27 2025

         ------------------------------------------------------------
                                   SCF GRAD
                          Rob Parrish, Justin Turney,
                       Andy Simmonett, and Alex Sokolov
         ------------------------------------------------------------

  ==> Geometry <==

    Molecular point group: c2v
    Full point group: C_inf_v

    Geometry (in Angstrom), charge = 1, multiplicity = 3:

       Center              X                  Y                   Z               Mass
    ------------   -----------------  -----------------  -----------------  -----------------
         MG           0.000000000000     0.000000000000     1.395187659664    23.985041697000
         P            0.000000000000     0.000000000000    -1.080386495961    30.973761998420

  Nuclear repulsion =   38.476689419369777

  ==> Basis Set <==

  Basis Set: CC-PVDZ
    Blend: CC-PVDZ
    Number of shells: 16
    Number of basis functions: 36
    Number of Cartesian functions: 38
    Spherical Harmonics?: true
    Max angular momentum: 2

  ==> DFJKGrad: Density-Fitted SCF Gradients <==

    Gradient:                    1
    J tasked:                  Yes
    K tasked:                  Yes
    wK tasked:                  No
    OpenMP threads:              1
    Integrals threads:           1
    Memory [MiB]:              375
    Schwarz Cutoff:          1E-12
    Fitting Condition:       1E-10

   => Auxiliary Basis Set <=

  Basis Set: (CC-PVDZ AUX)
    Blend: CC-PVDZ-JKFIT + DEF2-UNIVERSAL-JKFIT
    Number of shells: 70
    Number of basis functions: 224
    Number of Cartesian functions: 267
    Spherical Harmonics?: true
    Max angular momentum: 4

  ==> DFT Potential <==

   => LibXC <=

    Version 6.2.2
    S. Lehtola, C. Steigemann, M. J.T. Oliveira, and M. A.L. Marques.,  SoftwareX 7, 1â€“5 (2018) (10.1016/j.softx.2017.11.002)

   => Composite Functional: B3LYP <=

    B3LYP Hyb-GGA Exchange-Correlation Functional

    P. J. Stephens, F. J. Devlin, C. F. Chabalowski, and M. J. Frisch.,  J. Phys. Chem. 98, 11623 (1994) (10.1021/j100096a001)

    Deriv               =              1
    GGA                 =           TRUE
    Meta                =          FALSE

    Exchange Hybrid     =           TRUE
    MP2 Hybrid          =          FALSE

   => Exchange Functionals <=

    0.0800   Slater exchange
    0.7200         Becke 88

   => Exact (HF) Exchange <=

    0.2000               HF

   => Correlation Functionals <=

    0.1900   Vosko, Wilk & Nusair (VWN5_RPA)
    0.8100   Lee, Yang & Parr

   => LibXC Density Thresholds  <==

    XC_HYB_GGA_XC_B3LYP:  1.00E-15

   => Molecular Quadrature <=

    Radial Scheme          =       TREUTLER
    Pruning Scheme         =           NONE
    Nuclear Scheme         =       TREUTLER

    Blocking Scheme        =         OCTREE
    BS radius alpha        =              1
    Pruning alpha          =              1
    Radial Points          =             75
    Spherical Points       =            302
    Total Points           =          43021
    Total Blocks           =            420
    Max Points             =            253
    Max Functions          =             36
    Weights Tolerance      =       1.00E-15

  -Total Gradient:
     Atom            X                  Y                   Z
    ------   -----------------  -----------------  -----------------
       1       -0.000000000000     0.000000000000     0.000006455545
       2        0.000000000000     0.000000000000     0.000033844192

*** tstop() called on Joses-MacBook-Pro-2.local at Thu Jul 17 15:07:28 2025
Module time:
	user time   =       2.59 seconds =       0.04 minutes
	system time =       1.25 seconds =       0.02 minutes
	total time  =          1 seconds =       0.02 minutes
Total time:
	user time   =     168.21 seconds =       2.80 minutes
	system time =      42.41 seconds =       0.71 minutes
	total time  =         20 seconds =       0.33 minutes

    			-----------------------------------------

    			 OPTKING 3.0: for geometry optimizations

    			     By R.A. King, Bethel University

    			        with contributions from

    			    A.V. Copan, J. Cayton, A. Heide

    			-----------------------------------------

	                            ===> Fragment 1 <==

	 Z (Atomic Numbers)          Masses                          Geom
	      12.000000            23.985042          0.00000000  0.00000000  2.63652257
	      15.000000            30.973762          0.00000000  0.00000000 -2.04163459

	 - Coordinate -           - BOHR/RAD -       - ANG/DEG -
	 R(1,2)           =         4.678157           2.475574

	        --- Internal Coordinate Step in ANG or DEG, aJ/ANG or AJ/DEG ---
	-------------------------------------------------------------------------------
	           Coordinate      Previous         Force          Change          New
	           ----------      --------        ------          ------        ------
	               R(1,2)       2.47557        0.00011        0.00011       2.47569
	-------------------------------------------------------------------------------

	                                 ==> Convergence Check <==

	Measures of convergence in internal coordinates in au.

	Criteria marked as inactive (o), active & met (*), and active & unmet ( ).

	----------------------------------------------------------------------------------------------
	   Step    Total Energy     Delta E     Max Force     RMS Force      Max Disp      RMS Disp
	----------------------------------------------------------------------------------------------
	  Convergence Criteria     1.00e-06 *    3.00e-04 *             o    1.20e-03 *             o
	----------------------------------------------------------------------------------------------
	    13    -541.13885517   -3.60e-07 *    1.37e-05 *    1.37e-05 o    2.12e-04 *    2.12e-04 o  ~
	----------------------------------------------------------------------------------------------

Next Geometry in Ang
	Fragment 1 (Ang)

	   Mg   0.0000000000   0.0000000000   1.3952438797
	    P   0.0000000000   0.0000000000  -1.0804427160

    Final optimized geometry and variables:
    Molecular point group: c2v
    Full point group: C_inf_v

    Geometry (in Angstrom), charge = 1, multiplicity = 3:

    MG           0.000000000000     0.000000000000     1.395187659664
    P            0.000000000000     0.000000000000    -1.080386495961

    Psi4 stopped on: Thursday, 17 July 2025 03:07PM
    Psi4 wall time for execution: 0:00:20.62

*** Psi4 exiting successfully. Buy a developer a beer!
