                               Psi4 1.9.1 release

  ==> Input File <==

--------------------------------------------------------------------------
molecule {
1 3
C   0.00000        0.60000        0.00000
Na   0.00000       -0.60000        0.00000
}

set {
basis              cc-pvdz
reference          uks
maxiter            500
geom_maxiter       500
DAMPING_PERCENTAGE 1
guess              SAP
}

optimize('b3lyp')
--------------------------------------------------------------------------

    Molecular point group: c2v
  Charge       = 1
  Multiplicity = 3
  Basis Set: CC-PVDZ
    Blend: CC-PVDZ
  Basis Set: (CC-PVDZ AUX)
    Blend: CC-PVDZ-JKFIT + DEF2-UNIVERSAL-JKFIT
  @DF-UKS Final Energy:  -199.51987208489996
    Total Energy =                       -199.5198720848999585
 Dipole X            :          0.0000000            0.0000000            0.0000000
 Dipole Y            :          0.0000000            0.0000000            0.0000000
 Dipole Z            :         -1.5272597            0.3848790           -1.1423806
 Magnitude           :                                                    1.1423806
    Molecular point group: c2v
  Basis Set: CC-PVDZ
    Blend: CC-PVDZ
  Basis Set: (CC-PVDZ AUX)
    Blend: CC-PVDZ-JKFIT + DEF2-UNIVERSAL-JKFIT
  Basis Set: CC-PVDZ
    Blend: CC-PVDZ
  Basis Set: (CC-PVDZ AUX)
    Blend: CC-PVDZ-JKFIT + DEF2-UNIVERSAL-JKFIT
  @DF-UKS Final Energy:  -199.62719913708554
    Total Energy =                       -199.6271991370855403
  Basis Set: CC-PVDZ
    Blend: CC-PVDZ
  Basis Set: (CC-PVDZ AUX)
    Blend: CC-PVDZ-JKFIT + DEF2-UNIVERSAL-JKFIT
  Basis Set: CC-PVDZ
    Blend: CC-PVDZ
  @DF-UKS Final Energy:  -199.73878199220505
    Total Energy =                       -199.7387819922050767
  @DF-UKS Final Energy:  -199.83866703925341
    Total Energy =                       -199.8386670392534086
  @DF-UKS Final Energy:  -199.89121061990355
    Total Energy =                       -199.8912106199035179
  @DF-UKS Final Energy:  -199.91655238114120
    Total Energy =                       -199.9165523811412015
  @DF-UKS Final Energy:  -199.92924065166511
    Total Energy =                       -199.9292406516651113
  @DF-UKS Final Energy:  -199.93577820461618
    Total Energy =                       -199.9357782046161844
  @DF-UKS Final Energy:  -199.93926449588616
    Total Energy =                       -199.9392644958861922
  @DF-UKS Final Energy:  -199.94111847966474
    Total Energy =                       -199.9411184796647376
  @DF-UKS Final Energy:  -199.94208472297692
    Total Energy =                       -199.9420847229769151
  @DF-UKS Final Energy:  -199.94257792134016
    Total Energy =                       -199.9425779213401597
  @DF-UKS Final Energy:  -199.94284033970018
    Total Energy =                       -199.9428403397001830
  @DF-UKS Final Energy:  -199.94298085225336
    Total Energy =                       -199.9429808522533563
  @DF-UKS Final Energy:  -199.94306845902392
    Total Energy =                       -199.9430684590239196
  Basis Set: (CC-PVDZ AUX)
    Blend: CC-PVDZ-JKFIT + DEF2-UNIVERSAL-JKFIT
  Basis Set: CC-PVDZ
    Blend: CC-PVDZ
  Basis Set: (CC-PVDZ AUX)
    Blend: CC-PVDZ-JKFIT + DEF2-UNIVERSAL-JKFIT
  @DF-UKS Final Energy:  -199.94313038900603
    Total Energy =                       -199.9431303890060008
  Basis Set: CC-PVDZ
    Blend: CC-PVDZ
  Basis Set: (CC-PVDZ AUX)
    Blend: CC-PVDZ-JKFIT + DEF2-UNIVERSAL-JKFIT
  Charge       = 1
  Multiplicity = 3
  Basis Set: CC-PVDZ
    Blend: CC-PVDZ
  Basis Set: (CC-PVDZ AUX)
    Blend: CC-PVDZ-JKFIT + DEF2-UNIVERSAL-JKFIT

    Orbital Energies [Eh]
    ---------------------

    Alpha Occupied:

       1A1   -38.774060     2A1   -10.441241     3A1    -2.511227
       4A1    -1.442437     1B1    -1.442350     1B2    -1.442350
       5A1    -0.716891     2B2    -0.392428     2B1    -0.392428

    Alpha Virtual:

       6A1    -0.292412     7A1    -0.249747     3B1    -0.148864
       3B2    -0.148864     8A1    -0.142897     9A1    -0.068738
      10A1    -0.049726     4B1    -0.048009     4B2    -0.048009
       5B2     0.008887     5B1     0.008887    11A1     0.011995
       1A2     0.011995    12A1     0.015285     6B2     0.332308
       6B1     0.332308    13A1     0.385622    14A1     0.510569
      15A1     0.981840     2A2     0.982019     7B2     0.988241
       7B1     0.988241    16A1     1.009201

    Beta Occupied:

       1A1   -38.774059     2A1   -10.413033     3A1    -2.511226
       4A1    -1.442439     1B1    -1.442348     1B2    -1.442348
       5A1    -0.606831

    Beta Virtual:

       6A1    -0.272269     7A1    -0.241117     2B1    -0.200832
       2B2    -0.200832     3B1    -0.147237     3B2    -0.147237
       8A1    -0.141439     9A1    -0.066488    10A1    -0.049345
       4B1    -0.046181     4B2    -0.046181     5B2     0.008575
       5B1     0.008575     1A2     0.010814    11A1     0.010815
      12A1     0.017005    13A1     0.406347     6B1     0.409210
       6B2     0.409210    14A1     0.558839    15A1     1.052401
       7B2     1.057987     7B1     1.057987    16A1     1.097469
       2A2     1.097649

    Final Occupation by Irrep:
             A1    A2    B1    B2
    DOCC [     5,    0,    1,    1 ]
    SOCC [     0,    0,    1,    1 ]
    NA   [     5,    0,    2,    2 ]
    NB   [     5,    0,    1,    1 ]

  @DF-UKS Final Energy:  -199.94320325646481

   => Energetics <=

    Nuclear Repulsion Energy =              8.6150123737350874
    One-Electron Energy =                -291.6441626031074179
    Two-Electron Energy =                  98.8322414292920683
    DFT Exchange-Correlation Energy =     -15.7462944563845930
    Empirical Dispersion Energy =           0.0000000000000000
    VV10 Nonlocal Energy =                  0.0000000000000000
    Total Energy =                       -199.9432032564648125

  UHF NO Occupations:
  HONO-2 :    5 A1 1.9982016
  HONO-1 :    2 B2 1.0000000
  HONO-0 :    2 B1 1.0000000
  LUNO+0 :    6 A1 0.0017984
  LUNO+1 :    7 A1 0.0000002
  LUNO+2 :    8 A1 0.0000000
  LUNO+3 :    3 B1 0.0000000

Computation Completed

Properties will be evaluated at   0.000000,   0.000000,   0.000000 [a0]

Properties computed using the SCF density matrix

 Multipole Moments:

 ------------------------------------------------------------------------------------
     Multipole            Electronic (a.u.)      Nuclear  (a.u.)        Total (a.u.)
 ------------------------------------------------------------------------------------

 L = 1.  Multiply by 2.5417464519 to convert [e a0] to [Debye]
 Dipole X            :          0.0000000            0.0000000            0.0000000
 Dipole Y            :          0.0000000            0.0000000            0.0000000
 Dipole Z            :         -3.7662261            1.3002659           -2.4659602
 Magnitude           :                                                    2.4659602

 ------------------------------------------------------------------------------------

*** tstop() called on Joses-MacBook-Pro-2.local at Thu Jul 17 13:42:49 2025
Module time:
	user time   =       3.23 seconds =       0.05 minutes
	system time =       4.49 seconds =       0.07 minutes
	total time  =          0 seconds =       0.00 minutes
Total time:
	user time   =      64.79 seconds =       1.08 minutes
	system time =     107.87 seconds =       1.80 minutes
	total time  =         16 seconds =       0.27 minutes

*** tstart() called on Joses-MacBook-Pro-2.local
*** at Thu Jul 17 13:42:49 2025

         ------------------------------------------------------------
                                   SCF GRAD
                          Rob Parrish, Justin Turney,
                       Andy Simmonett, and Alex Sokolov
         ------------------------------------------------------------

  ==> Geometry <==

    Molecular point group: c2v
    Full point group: C_inf_v

    Geometry (in Angstrom), charge = 1, multiplicity = 3:

       Center              X                  Y                   Z               Mass
    ------------   -----------------  -----------------  -----------------  -----------------
         C            0.000000000000     0.000000000000     2.663683967847    12.000000000000
         NA           0.000000000000     0.000000000000    -1.390366611430    22.989769282000

  Nuclear repulsion =    8.615012373735087

  ==> Basis Set <==

  Basis Set: CC-PVDZ
    Blend: CC-PVDZ
    Number of shells: 14
    Number of basis functions: 32
    Number of Cartesian functions: 34
    Spherical Harmonics?: true
    Max angular momentum: 2

  ==> DFJKGrad: Density-Fitted SCF Gradients <==

    Gradient:                    1
    J tasked:                  Yes
    K tasked:                  Yes
    wK tasked:                  No
    OpenMP threads:              1
    Integrals threads:           1
    Memory [MiB]:              375
    Schwarz Cutoff:          1E-12
    Fitting Condition:       1E-10

   => Auxiliary Basis Set <=

  Basis Set: (CC-PVDZ AUX)
    Blend: CC-PVDZ-JKFIT + DEF2-UNIVERSAL-JKFIT
    Number of shells: 58
    Number of basis functions: 182
    Number of Cartesian functions: 218
    Spherical Harmonics?: true
    Max angular momentum: 4

  ==> DFT Potential <==

   => LibXC <=

    Version 6.2.2
    S. Lehtola, C. Steigemann, M. J.T. Oliveira, and M. A.L. Marques.,  SoftwareX 7, 1â€“5 (2018) (10.1016/j.softx.2017.11.002)

   => Composite Functional: B3LYP <=

    B3LYP Hyb-GGA Exchange-Correlation Functional

    P. J. Stephens, F. J. Devlin, C. F. Chabalowski, and M. J. Frisch.,  J. Phys. Chem. 98, 11623 (1994) (10.1021/j100096a001)

    Deriv               =              1
    GGA                 =           TRUE
    Meta                =          FALSE

    Exchange Hybrid     =           TRUE
    MP2 Hybrid          =          FALSE

   => Exchange Functionals <=

    0.0800   Slater exchange
    0.7200         Becke 88

   => Exact (HF) Exchange <=

    0.2000               HF

   => Correlation Functionals <=

    0.1900   Vosko, Wilk & Nusair (VWN5_RPA)
    0.8100   Lee, Yang & Parr

   => LibXC Density Thresholds  <==

    XC_HYB_GGA_XC_B3LYP:  1.00E-15

   => Molecular Quadrature <=

    Radial Scheme          =       TREUTLER
    Pruning Scheme         =           NONE
    Nuclear Scheme         =       TREUTLER

    Blocking Scheme        =         OCTREE
    BS radius alpha        =              1
    Pruning alpha          =              1
    Radial Points          =             75
    Spherical Points       =            302
    Total Points           =          43909
    Total Blocks           =            440
    Max Points             =            254
    Max Functions          =             32
    Weights Tolerance      =       1.00E-15

  -Total Gradient:
     Atom            X                  Y                   Z
    ------   -----------------  -----------------  -----------------
       1        0.000000000000    -0.000000000000    -0.000103389315
       2        0.000000000000     0.000000000000     0.000129632984

*** tstop() called on Joses-MacBook-Pro-2.local at Thu Jul 17 13:42:50 2025
Module time:
	user time   =       1.27 seconds =       0.02 minutes
	system time =       1.29 seconds =       0.02 minutes
	total time  =          1 seconds =       0.02 minutes
Total time:
	user time   =      66.06 seconds =       1.10 minutes
	system time =     109.17 seconds =       1.82 minutes
	total time  =         17 seconds =       0.28 minutes

    			-----------------------------------------

    			 OPTKING 3.0: for geometry optimizations

    			     By R.A. King, Bethel University

    			        with contributions from

    			    A.V. Copan, J. Cayton, A. Heide

    			-----------------------------------------

	                            ===> Fragment 1 <==

	 Z (Atomic Numbers)          Masses                          Geom
	       6.000000            12.000000          0.00000000  0.00000000  5.03363318
	      11.000000            22.989769          0.00000000  0.00000000 -2.62741211

	 - Coordinate -           - BOHR/RAD -       - ANG/DEG -
	 R(1,2)           =         7.661045           4.054051

	        --- Internal Coordinate Step in ANG or DEG, aJ/ANG or AJ/DEG ---
	-------------------------------------------------------------------------------
	           Coordinate      Previous         Force          Change          New
	           ----------      --------        ------          ------        ------
	               R(1,2)       4.05405        0.00096        0.00046       4.05451
	-------------------------------------------------------------------------------

	                                 ==> Convergence Check <==

	Measures of convergence in internal coordinates in au.

	Criteria marked as inactive (o), active & met (*), and active & unmet ( ).

	----------------------------------------------------------------------------------------------
	   Step    Total Energy     Delta E     Max Force     RMS Force      Max Disp      RMS Disp
	----------------------------------------------------------------------------------------------
	  Convergence Criteria     1.00e-06 *    3.00e-04 *             o    1.20e-03 *             o
	----------------------------------------------------------------------------------------------
	    17    -199.94320326   -7.29e-05      1.17e-04 *    1.17e-04 o    8.63e-04 *    8.63e-04 o  ~
	----------------------------------------------------------------------------------------------

Next Geometry in Ang
	Fragment 1 (Ang)

	    C   0.0000000000   0.0000000000   2.6639122015
	   Na   0.0000000000   0.0000000000  -1.3905948451

    Final optimized geometry and variables:
    Molecular point group: c2v
    Full point group: C_inf_v

    Geometry (in Angstrom), charge = 1, multiplicity = 3:

    C            0.000000000000     0.000000000000     2.663683967847
    NA           0.000000000000     0.000000000000    -1.390366611430

    Psi4 stopped on: Thursday, 17 July 2025 01:42PM
    Psi4 wall time for execution: 0:00:17.72

*** Psi4 exiting successfully. Buy a developer a beer!
