                               Psi4 1.9.1 release

  ==> Input File <==

--------------------------------------------------------------------------
molecule {
1 3
C   0.00000        0.60000        0.00000
Al   0.00000       -0.60000        0.00000
}

set {
basis              cc-pvdz
reference          uks
maxiter            500
geom_maxiter       500
DAMPING_PERCENTAGE 1
guess              SAP
}

optimize('b3lyp')
--------------------------------------------------------------------------

    Molecular point group: c2v
  Charge       = 1
  Multiplicity = 3
  Basis Set: CC-PVDZ
    Blend: CC-PVDZ
  Basis Set: (CC-PVDZ AUX)
    Blend: CC-PVDZ-JKFIT
  @DF-UKS Final Energy:  -279.53271845350031
    Total Energy =                       -279.5327184535003084
 Dipole X            :          0.0000000            0.0000000            0.0000000
 Dipole Y            :          0.0000000            0.0000000            0.0000000
 Dipole Z            :         -1.5895598            0.3425940           -1.2469658
 Magnitude           :                                                    1.2469658
    Molecular point group: c2v
  Basis Set: CC-PVDZ
    Blend: CC-PVDZ
  Basis Set: (CC-PVDZ AUX)
    Blend: CC-PVDZ-JKFIT
  Basis Set: CC-PVDZ
    Blend: CC-PVDZ
  Basis Set: (CC-PVDZ AUX)
    Blend: CC-PVDZ-JKFIT
  @DF-UKS Final Energy:  -279.73460794108126
    Total Energy =                       -279.7346079410812649
  Basis Set: CC-PVDZ
    Blend: CC-PVDZ
  Basis Set: (CC-PVDZ AUX)
    Blend: CC-PVDZ-JKFIT
  Basis Set: CC-PVDZ
    Blend: CC-PVDZ
  @DF-UKS Final Energy:  -279.85370587307727
    Total Energy =                       -279.8537058730772742
  @DF-UKS Final Energy:  -279.97681136991440
    Total Energy =                       -279.9768113699144010
  @DF-UKS Final Energy:  -280.03123949976697
    Total Energy =                       -280.0312394997669685
  @DF-UKS Final Energy:  -280.03252236223574
    Total Energy =                       -280.0325223622357385
  @DF-UKS Final Energy:  -280.03513349068447
    Total Energy =                       -280.0351334906844727
  @DF-UKS Final Energy:  -280.03538217544792
    Total Energy =                       -280.0353821754479213
  @DF-UKS Final Energy:  -280.03541270011533
    Total Energy =                       -280.0354127001153302
  Basis Set: (CC-PVDZ AUX)
    Blend: CC-PVDZ-JKFIT
  Basis Set: CC-PVDZ
    Blend: CC-PVDZ
  Basis Set: (CC-PVDZ AUX)
    Blend: CC-PVDZ-JKFIT
  @DF-UKS Final Energy:  -280.03541687093076
    Total Energy =                       -280.0354168709308169
  Basis Set: CC-PVDZ
    Blend: CC-PVDZ
  Basis Set: (CC-PVDZ AUX)
    Blend: CC-PVDZ-JKFIT
  Charge       = 1
  Multiplicity = 3
  Basis Set: CC-PVDZ
    Blend: CC-PVDZ
  Basis Set: (CC-PVDZ AUX)
    Blend: CC-PVDZ-JKFIT

    Orbital Energies [Eh]
    ---------------------

    Alpha Occupied:

       1A1   -56.406149     2A1   -10.533691     3A1    -4.476740
       1B2    -3.030159     1B1    -3.030159     4A1    -3.028435
       5A1    -0.864530     6A1    -0.577393     2B1    -0.504874
       2B2    -0.504874

    Alpha Virtual:

       7A1    -0.412395     3B1    -0.283482     3B2    -0.283482
       8A1    -0.174904     9A1    -0.042051     4B2     0.001081
       4B1     0.001081     1A2     0.020172    10A1     0.020172
      11A1     0.028215     5B1     0.063407     5B2     0.063407
      12A1     0.173167     6B1     0.302344     6B2     0.302344
      13A1     0.361990    14A1     0.617682     2A2     0.892902
      15A1     0.892903     7B1     1.005100     7B2     1.005100
      16A1     1.291611

    Beta Occupied:

       1A1   -56.406905     2A1   -10.503664     3A1    -4.478224
       4A1    -3.030253     1B2    -3.030246     1B1    -3.030246
       5A1    -0.765009     6A1    -0.550195

    Beta Virtual:

       7A1    -0.376203     2B1    -0.353351     2B2    -0.353351
       3B1    -0.251798     3B2    -0.251798     8A1    -0.168935
       9A1    -0.044577     4B2     0.004141     4B1     0.004141
       1A2     0.021442    10A1     0.021443    11A1     0.031678
       5B1     0.076167     5B2     0.076167    12A1     0.197167
       6B1     0.364462     6B2     0.364462    13A1     0.389999
      14A1     0.670491     2A2     1.001764    15A1     1.001772
       7B1     1.081450     7B2     1.081450    16A1     1.353492

    Final Occupation by Irrep:
             A1    A2    B1    B2
    DOCC [     6,    0,    1,    1 ]
    SOCC [     0,    0,    1,    1 ]
    NA   [     6,    0,    2,    2 ]
    NB   [     6,    0,    1,    1 ]

  @DF-UKS Final Energy:  -280.03541748686075

   => Energetics <=

    Nuclear Repulsion Energy =             20.5497576668367721
    One-Electron Energy =                -422.7893113457901109
    Two-Electron Energy =                 141.2625344544572670
    DFT Exchange-Correlation Energy =     -19.0583982623647117
    Empirical Dispersion Energy =           0.0000000000000000
    VV10 Nonlocal Energy =                  0.0000000000000000
    Total Energy =                       -280.0354174868608084

  UHF NO Occupations:
  HONO-2 :    6 A1 1.8885599
  HONO-1 :    2 B2 1.0000000
  HONO-0 :    2 B1 1.0000000
  LUNO+0 :    7 A1 0.1114401
  LUNO+1 :    8 A1 0.0005351
  LUNO+2 :    3 B1 0.0000003
  LUNO+3 :    3 B2 0.0000003

Computation Completed

Properties will be evaluated at   0.000000,   0.000000,   0.000000 [a0]

Properties computed using the SCF density matrix

 Multipole Moments:

 ------------------------------------------------------------------------------------
     Multipole            Electronic (a.u.)      Nuclear  (a.u.)        Total (a.u.)
 ------------------------------------------------------------------------------------

 L = 1.  Multiply by 2.5417464519 to convert [e a0] to [Debye]
 Dipole X            :          0.0000000            0.0000000            0.0000000
 Dipole Y            :          0.0000000            0.0000000            0.0000000
 Dipole Z            :         -1.7134469            0.5734394           -1.1400075
 Magnitude           :                                                    1.1400075

 ------------------------------------------------------------------------------------

*** tstop() called on Joses-MacBook-Pro-2.local at Thu Jul 17 13:44:16 2025
Module time:
	user time   =       2.87 seconds =       0.05 minutes
	system time =       3.98 seconds =       0.07 minutes
	total time  =          1 seconds =       0.02 minutes
Total time:
	user time   =      45.76 seconds =       0.76 minutes
	system time =      71.98 seconds =       1.20 minutes
	total time  =         12 seconds =       0.20 minutes

*** tstart() called on Joses-MacBook-Pro-2.local
*** at Thu Jul 17 13:44:16 2025

         ------------------------------------------------------------
                                   SCF GRAD
                          Rob Parrish, Justin Turney,
                       Andy Simmonett, and Alex Sokolov
         ------------------------------------------------------------

  ==> Geometry <==

    Molecular point group: c2v
    Full point group: C_inf_v

    Geometry (in Angstrom), charge = 1, multiplicity = 3:

       Center              X                  Y                   Z               Mass
    ------------   -----------------  -----------------  -----------------  -----------------
         C            0.000000000000     0.000000000000     1.390262360283    12.000000000000
         AL           0.000000000000     0.000000000000    -0.618317161746    26.981538530000

  Nuclear repulsion =   20.549757666836772

  ==> Basis Set <==

  Basis Set: CC-PVDZ
    Blend: CC-PVDZ
    Number of shells: 14
    Number of basis functions: 32
    Number of Cartesian functions: 34
    Spherical Harmonics?: true
    Max angular momentum: 2

  ==> DFJKGrad: Density-Fitted SCF Gradients <==

    Gradient:                    1
    J tasked:                  Yes
    K tasked:                  Yes
    wK tasked:                  No
    OpenMP threads:              1
    Integrals threads:           1
    Memory [MiB]:              375
    Schwarz Cutoff:          1E-12
    Fitting Condition:       1E-10

   => Auxiliary Basis Set <=

  Basis Set: (CC-PVDZ AUX)
    Blend: CC-PVDZ-JKFIT
    Number of shells: 60
    Number of basis functions: 182
    Number of Cartesian functions: 211
    Spherical Harmonics?: true
    Max angular momentum: 3

  ==> DFT Potential <==

   => LibXC <=

    Version 6.2.2
    S. Lehtola, C. Steigemann, M. J.T. Oliveira, and M. A.L. Marques.,  SoftwareX 7, 1â€“5 (2018) (10.1016/j.softx.2017.11.002)

   => Composite Functional: B3LYP <=

    B3LYP Hyb-GGA Exchange-Correlation Functional

    P. J. Stephens, F. J. Devlin, C. F. Chabalowski, and M. J. Frisch.,  J. Phys. Chem. 98, 11623 (1994) (10.1021/j100096a001)

    Deriv               =              1
    GGA                 =           TRUE
    Meta                =          FALSE

    Exchange Hybrid     =           TRUE
    MP2 Hybrid          =          FALSE

   => Exchange Functionals <=

    0.0800   Slater exchange
    0.7200         Becke 88

   => Exact (HF) Exchange <=

    0.2000               HF

   => Correlation Functionals <=

    0.1900   Vosko, Wilk & Nusair (VWN5_RPA)
    0.8100   Lee, Yang & Parr

   => LibXC Density Thresholds  <==

    XC_HYB_GGA_XC_B3LYP:  1.00E-15

   => Molecular Quadrature <=

    Radial Scheme          =       TREUTLER
    Pruning Scheme         =           NONE
    Nuclear Scheme         =       TREUTLER

    Blocking Scheme        =         OCTREE
    BS radius alpha        =              1
    Pruning alpha          =              1
    Radial Points          =             75
    Spherical Points       =            302
    Total Points           =          43272
    Total Blocks           =            403
    Max Points             =            255
    Max Functions          =             32
    Weights Tolerance      =       1.00E-15

  -Total Gradient:
     Atom            X                  Y                   Z
    ------   -----------------  -----------------  -----------------
       1       -0.000000000000     0.000000000000    -0.000118393996
       2        0.000000000000     0.000000000000     0.000100484154

*** tstop() called on Joses-MacBook-Pro-2.local at Thu Jul 17 13:44:16 2025
Module time:
	user time   =       0.66 seconds =       0.01 minutes
	system time =       1.58 seconds =       0.03 minutes
	total time  =          0 seconds =       0.00 minutes
Total time:
	user time   =      46.43 seconds =       0.77 minutes
	system time =      73.56 seconds =       1.23 minutes
	total time  =         12 seconds =       0.20 minutes

    			-----------------------------------------

    			 OPTKING 3.0: for geometry optimizations

    			     By R.A. King, Bethel University

    			        with contributions from

    			    A.V. Copan, J. Cayton, A. Heide

    			-----------------------------------------

	                            ===> Fragment 1 <==

	 Z (Atomic Numbers)          Masses                          Geom
	       6.000000            12.000000          0.00000000  0.00000000  2.62721510
	      13.000000            26.981539          0.00000000  0.00000000 -1.16845009

	 - Coordinate -           - BOHR/RAD -       - ANG/DEG -
	 R(1,2)           =         3.795665           2.008580

	        --- Internal Coordinate Step in ANG or DEG, aJ/ANG or AJ/DEG ---
	-------------------------------------------------------------------------------
	           Coordinate      Previous         Force          Change          New
	           ----------      --------        ------          ------        ------
	               R(1,2)       2.00858        0.00090        0.00066       2.00924
	-------------------------------------------------------------------------------

	                                 ==> Convergence Check <==

	Measures of convergence in internal coordinates in au.

	Criteria marked as inactive (o), active & met (*), and active & unmet ( ).

	----------------------------------------------------------------------------------------------
	   Step    Total Energy     Delta E     Max Force     RMS Force      Max Disp      RMS Disp
	----------------------------------------------------------------------------------------------
	  Convergence Criteria     1.00e-06 *    3.00e-04 *             o    1.20e-03 *             o
	----------------------------------------------------------------------------------------------
	    11    -280.03541749   -6.16e-07 *    1.09e-04 *    1.09e-04 o    1.24e-03      1.24e-03 o  ~
	----------------------------------------------------------------------------------------------

Next Geometry in Ang
	Fragment 1 (Ang)

	    C   0.0000000000   0.0000000000   1.3905907395
	   Al   0.0000000000   0.0000000000  -0.6186455410

    Final optimized geometry and variables:
    Molecular point group: c2v
    Full point group: C_inf_v

    Geometry (in Angstrom), charge = 1, multiplicity = 3:

    C            0.000000000000     0.000000000000     1.390262360283
    AL           0.000000000000     0.000000000000    -0.618317161746

    Psi4 stopped on: Thursday, 17 July 2025 01:44PM
    Psi4 wall time for execution: 0:00:12.17

*** Psi4 exiting successfully. Buy a developer a beer!
