                               Psi4 1.9.1 release

  ==> Input File <==

--------------------------------------------------------------------------
molecule {
1 3
Na   0.00000        0.60000        0.00000
Mg   0.00000       -0.60000        0.00000
}

set {
basis              cc-pvdz
reference          uks
maxiter            500
geom_maxiter       500
DAMPING_PERCENTAGE 1
guess              SAP
}

optimize('b3lyp')
--------------------------------------------------------------------------

    Molecular point group: c2v
  Charge       = 1
  Multiplicity = 3
  Basis Set: CC-PVDZ
    Blend: CC-PVDZ
  Basis Set: (CC-PVDZ AUX)
    Blend: DEF2-UNIVERSAL-JKFIT
  @DF-UKS Final Energy:  -361.44877765793245
    Total Energy =                       -361.4487776579325100
 Dipole X            :          0.0000000            0.0000000            0.0000000
 Dipole Y            :          0.0000000            0.0000000            0.0000000
 Dipole Z            :          0.9074418           -0.5813069            0.3261349
 Magnitude           :                                                    0.3261349
    Molecular point group: c2v
  Basis Set: CC-PVDZ
    Blend: CC-PVDZ
  Basis Set: (CC-PVDZ AUX)
    Blend: DEF2-UNIVERSAL-JKFIT
  Basis Set: CC-PVDZ
    Blend: CC-PVDZ
  Basis Set: (CC-PVDZ AUX)
    Blend: DEF2-UNIVERSAL-JKFIT
  @DF-UKS Final Energy:  -361.45570517775883
    Total Energy =                       -361.4557051777587731
  Basis Set: CC-PVDZ
    Blend: CC-PVDZ
  Basis Set: (CC-PVDZ AUX)
    Blend: DEF2-UNIVERSAL-JKFIT
  Basis Set: CC-PVDZ
    Blend: CC-PVDZ
  @DF-UKS Final Energy:  -361.46907287710195
    Total Energy =                       -361.4690728771018939
  @DF-UKS Final Energy:  -361.51754674174521
    Total Energy =                       -361.5175467417452637
  @DF-UKS Final Energy:  -361.73770026716880
    Total Energy =                       -361.7377002671687478
  @DF-UKS Final Energy:  -361.84861882404073
    Total Energy =                       -361.8486188240407273
  @DF-UKS Final Energy:  -361.92874603420114
    Total Energy =                       -361.9287460342011400
  @DF-UKS Final Energy:  -361.99276005901083
    Total Energy =                       -361.9927600590107772
  @DF-UKS Final Energy:  -362.03609338001326
    Total Energy =                       -362.0360933800132557
  @DF-UKS Final Energy:  -362.06259133040646
    Total Energy =                       -362.0625913304064625
  @DF-UKS Final Energy:  -362.07625295793360
    Total Energy =                       -362.0762529579336046
  @DF-UKS Final Energy:  -362.08267260141741
    Total Energy =                       -362.0826726014173573
  @DF-UKS Final Energy:  -362.08539923333802
    Total Energy =                       -362.0853992333380234
  @DF-UKS Final Energy:  -362.08635026560358
    Total Energy =                       -362.0863502656035848
  @DF-UKS Final Energy:  -362.08658243725654
    Total Energy =                       -362.0865824372565385
  @DF-UKS Final Energy:  -362.08660924555528
    Total Energy =                       -362.0866092455552803
  Basis Set: (CC-PVDZ AUX)
    Blend: DEF2-UNIVERSAL-JKFIT
  Basis Set: CC-PVDZ
    Blend: CC-PVDZ
  Basis Set: (CC-PVDZ AUX)
    Blend: DEF2-UNIVERSAL-JKFIT
  @DF-UKS Final Energy:  -362.08661275655999
    Total Energy =                       -362.0866127565600436
  Basis Set: CC-PVDZ
    Blend: CC-PVDZ
  Basis Set: (CC-PVDZ AUX)
    Blend: DEF2-UNIVERSAL-JKFIT
  Charge       = 1
  Multiplicity = 3
  Basis Set: CC-PVDZ
    Blend: CC-PVDZ
  Basis Set: (CC-PVDZ AUX)
    Blend: DEF2-UNIVERSAL-JKFIT

    Orbital Energies [Eh]
    ---------------------

    Alpha Occupied:

       1A1   -47.051981     2A1   -38.736324     3A1    -3.329565
       4A1    -2.474692     5A1    -2.073969     1B1    -2.073894
       1B2    -2.071013     6A1    -1.406173     2B1    -1.405991
       2B2    -1.405484     7A1    -0.410717     3B2    -0.257926

    Alpha Virtual:

       8A1    -0.256442     3B1    -0.205909     9A1    -0.186693
       4B2    -0.144374     4B1    -0.132129    10A1    -0.099718
      11A1    -0.072976     5B2    -0.055021     5B1    -0.048770
      12A1    -0.044624    13A1    -0.008230     6B2     0.003747
       1A2     0.006228    14A1     0.010967     6B1     0.011157
       7B2     0.015569     7B1     0.024498    15A1     0.037506
      16A1     0.110224     2A2     0.125022    17A1     0.131226
       8B2     0.184716     8B1     0.195665    18A1     0.300977

    Beta Occupied:

       1A1   -47.047946     2A1   -38.735998     3A1    -3.322867
       4A1    -2.474096     1B1    -2.069950     5A1    -2.069793
       1B2    -2.062332     2B1    -1.405732     6A1    -1.405690
       2B2    -1.404847

    Beta Virtual:

       7A1    -0.306719     8A1    -0.238830     3B1    -0.172054
       9A1    -0.162925     3B2    -0.160020     4B1    -0.125616
       4B2    -0.116354    10A1    -0.086617    11A1    -0.059057
       5B1    -0.044562     5B2    -0.043004    12A1    -0.034637
      13A1     0.007501     1A2     0.011976    14A1     0.013239
       6B1     0.018523     6B2     0.023823     7B1     0.041847
       7B2     0.054896    15A1     0.062916    16A1     0.124115
      17A1     0.185294     2A2     0.185529     8B1     0.217979
       8B2     0.235389    18A1     0.326301

    Final Occupation by Irrep:
             A1    A2    B1    B2
    DOCC [     6,    0,    2,    2 ]
    SOCC [     1,    0,    0,    1 ]
    NA   [     7,    0,    2,    3 ]
    NB   [     6,    0,    2,    2 ]

  @DF-UKS Final Energy:  -362.08661287708486

   => Energetics <=

    Nuclear Repulsion Energy =             20.5945166618812685
    One-Electron Energy =                -542.9653469313551568
    Two-Electron Energy =                 185.0631809622859976
    DFT Exchange-Correlation Energy =     -24.7789635698969164
    Empirical Dispersion Energy =           0.0000000000000000
    VV10 Nonlocal Energy =                  0.0000000000000000
    Total Energy =                       -362.0866128770848604

  UHF NO Occupations:
  HONO-2 :    6 A1 1.9999990
  HONO-1 :    3 B2 1.0000000
  HONO-0 :    7 A1 1.0000000
  LUNO+0 :    8 A1 0.0000010
  LUNO+1 :    3 B1 0.0000006
  LUNO+2 :    9 A1 0.0000005
  LUNO+3 :    4 B2 0.0000004

Computation Completed

Properties will be evaluated at   0.000000,   0.000000,   0.000000 [a0]

Properties computed using the SCF density matrix

 Multipole Moments:

 ------------------------------------------------------------------------------------
     Multipole            Electronic (a.u.)      Nuclear  (a.u.)        Total (a.u.)
 ------------------------------------------------------------------------------------

 L = 1.  Multiply by 2.5417464519 to convert [e a0] to [Debye]
 Dipole X            :          0.0000000            0.0000000            0.0000000
 Dipole Y            :          0.0000000            0.0000000            0.0000000
 Dipole Z            :          3.0526129           -1.6430384            1.4095745
 Magnitude           :                                                    1.4095745

 ------------------------------------------------------------------------------------

*** tstop() called on Joses-MacBook-Pro-2.local at Thu Jul 17 14:46:43 2025
Module time:
	user time   =       6.11 seconds =       0.10 minutes
	system time =       2.41 seconds =       0.04 minutes
	total time  =          1 seconds =       0.02 minutes
Total time:
	user time   =     230.98 seconds =       3.85 minutes
	system time =      73.85 seconds =       1.23 minutes
	total time  =         31 seconds =       0.52 minutes

*** tstart() called on Joses-MacBook-Pro-2.local
*** at Thu Jul 17 14:46:43 2025

         ------------------------------------------------------------
                                   SCF GRAD
                          Rob Parrish, Justin Turney,
                       Andy Simmonett, and Alex Sokolov
         ------------------------------------------------------------

  ==> Geometry <==

    Molecular point group: c2v
    Full point group: C_inf_v

    Geometry (in Angstrom), charge = 1, multiplicity = 3:

       Center              X                  Y                   Z               Mass
    ------------   -----------------  -----------------  -----------------  -----------------
         NA           0.000000000000     0.000000000000     1.731804631245    22.989769282000
         MG           0.000000000000     0.000000000000    -1.659942451499    23.985041697000

  Nuclear repulsion =   20.594516661881269

  ==> Basis Set <==

  Basis Set: CC-PVDZ
    Blend: CC-PVDZ
    Number of shells: 16
    Number of basis functions: 36
    Number of Cartesian functions: 38
    Spherical Harmonics?: true
    Max angular momentum: 2

  ==> DFJKGrad: Density-Fitted SCF Gradients <==

    Gradient:                    1
    J tasked:                  Yes
    K tasked:                  Yes
    wK tasked:                  No
    OpenMP threads:              1
    Integrals threads:           1
    Memory [MiB]:              375
    Schwarz Cutoff:          1E-12
    Fitting Condition:       1E-10

   => Auxiliary Basis Set <=

  Basis Set: (CC-PVDZ AUX)
    Blend: DEF2-UNIVERSAL-JKFIT
    Number of shells: 68
    Number of basis functions: 224
    Number of Cartesian functions: 274
    Spherical Harmonics?: true
    Max angular momentum: 4

  ==> DFT Potential <==

   => LibXC <=

    Version 6.2.2
    S. Lehtola, C. Steigemann, M. J.T. Oliveira, and M. A.L. Marques.,  SoftwareX 7, 1â€“5 (2018) (10.1016/j.softx.2017.11.002)

   => Composite Functional: B3LYP <=

    B3LYP Hyb-GGA Exchange-Correlation Functional

    P. J. Stephens, F. J. Devlin, C. F. Chabalowski, and M. J. Frisch.,  J. Phys. Chem. 98, 11623 (1994) (10.1021/j100096a001)

    Deriv               =              1
    GGA                 =           TRUE
    Meta                =          FALSE

    Exchange Hybrid     =           TRUE
    MP2 Hybrid          =          FALSE

   => Exchange Functionals <=

    0.0800   Slater exchange
    0.7200         Becke 88

   => Exact (HF) Exchange <=

    0.2000               HF

   => Correlation Functionals <=

    0.1900   Vosko, Wilk & Nusair (VWN5_RPA)
    0.8100   Lee, Yang & Parr

   => LibXC Density Thresholds  <==

    XC_HYB_GGA_XC_B3LYP:  1.00E-15

   => Molecular Quadrature <=

    Radial Scheme          =       TREUTLER
    Pruning Scheme         =           NONE
    Nuclear Scheme         =       TREUTLER

    Blocking Scheme        =         OCTREE
    BS radius alpha        =              1
    Pruning alpha          =              1
    Radial Points          =             75
    Spherical Points       =            302
    Total Points           =          43618
    Total Blocks           =            458
    Max Points             =            256
    Max Functions          =             36
    Weights Tolerance      =       1.00E-15

  -Total Gradient:
     Atom            X                  Y                   Z
    ------   -----------------  -----------------  -----------------
       1        0.000000000000     0.000000000000    -0.000003185986
       2        0.000000000000     0.000000000000     0.000013059451

*** tstop() called on Joses-MacBook-Pro-2.local at Thu Jul 17 14:46:43 2025
Module time:
	user time   =       3.12 seconds =       0.05 minutes
	system time =       2.10 seconds =       0.04 minutes
	total time  =          0 seconds =       0.00 minutes
Total time:
	user time   =     234.12 seconds =       3.90 minutes
	system time =      75.96 seconds =       1.27 minutes
	total time  =         31 seconds =       0.52 minutes

    			-----------------------------------------

    			 OPTKING 3.0: for geometry optimizations

    			     By R.A. King, Bethel University

    			        with contributions from

    			    A.V. Copan, J. Cayton, A. Heide

    			-----------------------------------------

	                            ===> Fragment 1 <==

	 Z (Atomic Numbers)          Masses                          Geom
	      11.000000            22.989769          0.00000000  0.00000000  3.27263646
	      12.000000            23.985042          0.00000000  0.00000000 -3.13683662

	 - Coordinate -           - BOHR/RAD -       - ANG/DEG -
	 R(1,2)           =         6.409473           3.391747

	        --- Internal Coordinate Step in ANG or DEG, aJ/ANG or AJ/DEG ---
	-------------------------------------------------------------------------------
	           Coordinate      Previous         Force          Change          New
	           ----------      --------        ------          ------        ------
	               R(1,2)       3.39175        0.00007        0.00067       3.39241
	-------------------------------------------------------------------------------

	                                 ==> Convergence Check <==

	Measures of convergence in internal coordinates in au.

	Criteria marked as inactive (o), active & met (*), and active & unmet ( ).

	----------------------------------------------------------------------------------------------
	   Step    Total Energy     Delta E     Max Force     RMS Force      Max Disp      RMS Disp
	----------------------------------------------------------------------------------------------
	  Convergence Criteria     1.00e-06 *    3.00e-04 *             o    1.20e-03 *             o
	----------------------------------------------------------------------------------------------
	    18    -362.08661288   -1.21e-07 *    8.12e-06 *    8.12e-06 o    1.26e-03      1.26e-03 o  ~
	----------------------------------------------------------------------------------------------

Next Geometry in Ang
	Fragment 1 (Ang)

	   Na   0.0000000000   0.0000000000   1.7321376988
	   Mg   0.0000000000   0.0000000000  -1.6602755190

    Final optimized geometry and variables:
    Molecular point group: c2v
    Full point group: C_inf_v

    Geometry (in Angstrom), charge = 1, multiplicity = 3:

    NA           0.000000000000     0.000000000000     1.731804631245
    MG           0.000000000000     0.000000000000    -1.659942451499

    Psi4 stopped on: Thursday, 17 July 2025 02:46PM
    Psi4 wall time for execution: 0:00:31.94

*** Psi4 exiting successfully. Buy a developer a beer!
