                               Psi4 1.9.1 release

  ==> Input File <==

--------------------------------------------------------------------------
molecule {
1 3
Al   0.00000        0.60000        0.00000
Si   0.00000       -0.60000        0.00000
}

set {
basis              cc-pvdz
reference          uks
maxiter            500
geom_maxiter       500
DAMPING_PERCENTAGE 1
guess              SAP
}

optimize('b3lyp')
--------------------------------------------------------------------------

    Molecular point group: c2v
  Charge       = 1
  Multiplicity = 3
  Basis Set: CC-PVDZ
    Blend: CC-PVDZ
  Basis Set: (CC-PVDZ AUX)
    Blend: CC-PVDZ-JKFIT
  @DF-UKS Final Energy:  -530.44739891758286
    Total Energy =                       -530.4473989175828592
 Dipole X            :          0.0000000            0.0000000            0.0000000
 Dipole Y            :          0.0000000            0.0000000            0.0000000
 Dipole Z            :          1.0326784           -0.5793738            0.4533046
 Magnitude           :                                                    0.4533046
    Molecular point group: c2v
  Basis Set: CC-PVDZ
    Blend: CC-PVDZ
  Basis Set: (CC-PVDZ AUX)
    Blend: CC-PVDZ-JKFIT
  Basis Set: CC-PVDZ
    Blend: CC-PVDZ
  Basis Set: (CC-PVDZ AUX)
    Blend: CC-PVDZ-JKFIT
  @DF-UKS Final Energy:  -530.46287648046120
    Total Energy =                       -530.4628764804612047
  Basis Set: CC-PVDZ
    Blend: CC-PVDZ
  Basis Set: (CC-PVDZ AUX)
    Blend: CC-PVDZ-JKFIT
  Basis Set: CC-PVDZ
    Blend: CC-PVDZ
  @DF-UKS Final Energy:  -530.49275621009235
    Total Energy =                       -530.4927562100923524
  @DF-UKS Final Energy:  -530.60107564390330
    Total Energy =                       -530.6010756439033003
  @DF-UKS Final Energy:  -531.06467567377410
    Total Energy =                       -531.0646756737741043
  @DF-UKS Final Energy:  -531.28338822701119
    Total Energy =                       -531.2833882270111872
  @DF-UKS Final Energy:  -531.46707206839994
    Total Energy =                       -531.4670720683999434
  @DF-UKS Final Energy:  -531.54677735263192
    Total Energy =                       -531.5467773526319206
  @DF-UKS Final Energy:  -531.56444138631662
    Total Energy =                       -531.5644413863166164
  @DF-UKS Final Energy:  -531.57242437754974
    Total Energy =                       -531.5724243775497371
  @DF-UKS Final Energy:  -531.57429999381679
    Total Energy =                       -531.5742999938167941
  @DF-UKS Final Energy:  -531.57495110013269
    Total Energy =                       -531.5749511001326937
  @DF-UKS Final Energy:  -531.57508122530578
    Total Energy =                       -531.5750812253057802
  @DF-UKS Final Energy:  -531.57511044390230
    Total Energy =                       -531.5751104439023038
  Basis Set: (CC-PVDZ AUX)
    Blend: CC-PVDZ-JKFIT
  Basis Set: CC-PVDZ
    Blend: CC-PVDZ
  Basis Set: (CC-PVDZ AUX)
    Blend: CC-PVDZ-JKFIT
  @DF-UKS Final Energy:  -531.57511870209839
    Total Energy =                       -531.5751187020983934
  Basis Set: CC-PVDZ
    Blend: CC-PVDZ
  Basis Set: (CC-PVDZ AUX)
    Blend: CC-PVDZ-JKFIT
  Charge       = 1
  Multiplicity = 3
  Basis Set: CC-PVDZ
    Blend: CC-PVDZ
  Basis Set: (CC-PVDZ AUX)
    Blend: CC-PVDZ-JKFIT

    Orbital Energies [Eh]
    ---------------------

    Alpha Occupied:

       1A1   -66.400586     2A1   -56.354439     3A1    -5.540932
       4A1    -4.428391     5A1    -3.900790     1B2    -3.899383
       1B1    -3.899383     6A1    -2.981034     2B2    -2.980842
       2B1    -2.980842     7A1    -0.707445     8A1    -0.538286
       3B1    -0.413692     3B2    -0.413692

    Alpha Virtual:

       9A1    -0.364546     4B2    -0.270513     4B1    -0.270513
      10A1    -0.164364    11A1    -0.060164     5B1    -0.007357
       5B2    -0.007357    12A1     0.001069    13A1     0.026102
       1A2     0.026102     6B1     0.038402     6B2     0.038402
      14A1     0.065267     7B2     0.129187     7B1     0.129187
       2A2     0.150558    15A1     0.150559    16A1     0.188764
      17A1     0.260723     8B2     0.290377     8B1     0.290377
      18A1     0.516989

    Beta Occupied:

       1A1   -66.395486     2A1   -56.353644     3A1    -5.535132
       4A1    -4.427501     5A1    -3.897488     1B2    -3.888622
       1B1    -3.888622     6A1    -2.980805     2B2    -2.978714
       2B1    -2.978714     7A1    -0.655373     8A1    -0.518165

    Beta Virtual:

       9A1    -0.354740     3B1    -0.319753     3B2    -0.319753
       4B2    -0.240310     4B1    -0.240310    10A1    -0.152722
      11A1    -0.044415    12A1     0.002600     5B1     0.012134
       5B2     0.012134     6B1     0.047762     6B2     0.047762
      13A1     0.048827     1A2     0.048828    14A1     0.071864
       7B2     0.159046     7B1     0.159046    15A1     0.204415
      16A1     0.211168     2A2     0.211169    17A1     0.275411
       8B2     0.318586     8B1     0.318586    18A1     0.535051

    Final Occupation by Irrep:
             A1    A2    B1    B2
    DOCC [     8,    0,    2,    2 ]
    SOCC [     0,    0,    1,    1 ]
    NA   [     8,    0,    3,    3 ]
    NB   [     8,    0,    2,    2 ]

  @DF-UKS Final Energy:  -531.57511959559213

   => Energetics <=

    Nuclear Repulsion Energy =             38.9697511942286781
    One-Electron Energy =                -808.6316438540243325
    Two-Electron Energy =                 269.6712667888907617
    DFT Exchange-Correlation Energy =     -31.5844937246873059
    Empirical Dispersion Energy =           0.0000000000000000
    VV10 Nonlocal Energy =                  0.0000000000000000
    Total Energy =                       -531.5751195955921276

  UHF NO Occupations:
  HONO-2 :    8 A1 1.9949618
  HONO-1 :    3 B1 1.0000000
  HONO-0 :    3 B2 1.0000000
  LUNO+0 :    9 A1 0.0050382
  LUNO+1 :   10 A1 0.0009749
  LUNO+2 :    4 B1 0.0000001
  LUNO+3 :    4 B2 0.0000001

Computation Completed

Properties will be evaluated at   0.000000,   0.000000,   0.000000 [a0]

Properties computed using the SCF density matrix

 Multipole Moments:

 ------------------------------------------------------------------------------------
     Multipole            Electronic (a.u.)      Nuclear  (a.u.)        Total (a.u.)
 ------------------------------------------------------------------------------------

 L = 1.  Multiply by 2.5417464519 to convert [e a0] to [Debye]
 Dipole X            :          0.0000000            0.0000000            0.0000000
 Dipole Y            :          0.0000000            0.0000000            0.0000000
 Dipole Z            :          2.1981685           -1.1932254            1.0049430
 Magnitude           :                                                    1.0049430

 ------------------------------------------------------------------------------------

*** tstop() called on Joses-MacBook-Pro-2.local at Thu Jul 17 15:16:30 2025
Module time:
	user time   =       8.05 seconds =       0.13 minutes
	system time =       1.64 seconds =       0.03 minutes
	total time  =          1 seconds =       0.02 minutes
Total time:
	user time   =     198.73 seconds =       3.31 minutes
	system time =      45.30 seconds =       0.76 minutes
	total time  =         23 seconds =       0.38 minutes

*** tstart() called on Joses-MacBook-Pro-2.local
*** at Thu Jul 17 15:16:30 2025

         ------------------------------------------------------------
                                   SCF GRAD
                          Rob Parrish, Justin Turney,
                       Andy Simmonett, and Alex Sokolov
         ------------------------------------------------------------

  ==> Geometry <==

    Molecular point group: c2v
    Full point group: C_inf_v

    Geometry (in Angstrom), charge = 1, multiplicity = 3:

       Center              X                  Y                   Z               Mass
    ------------   -----------------  -----------------  -----------------  -----------------
         AL           0.000000000000     0.000000000000     1.258085900977    26.981538530000
         SI           0.000000000000     0.000000000000    -1.213324600514    27.976926534650

  Nuclear repulsion =   38.969751194228678

  ==> Basis Set <==

  Basis Set: CC-PVDZ
    Blend: CC-PVDZ
    Number of shells: 16
    Number of basis functions: 36
    Number of Cartesian functions: 38
    Spherical Harmonics?: true
    Max angular momentum: 2

  ==> DFJKGrad: Density-Fitted SCF Gradients <==

    Gradient:                    1
    J tasked:                  Yes
    K tasked:                  Yes
    wK tasked:                  No
    OpenMP threads:              1
    Integrals threads:           1
    Memory [MiB]:              375
    Schwarz Cutoff:          1E-12
    Fitting Condition:       1E-10

   => Auxiliary Basis Set <=

  Basis Set: (CC-PVDZ AUX)
    Blend: CC-PVDZ-JKFIT
    Number of shells: 72
    Number of basis functions: 224
    Number of Cartesian functions: 260
    Spherical Harmonics?: true
    Max angular momentum: 3

  ==> DFT Potential <==

   => LibXC <=

    Version 6.2.2
    S. Lehtola, C. Steigemann, M. J.T. Oliveira, and M. A.L. Marques.,  SoftwareX 7, 1â€“5 (2018) (10.1016/j.softx.2017.11.002)

   => Composite Functional: B3LYP <=

    B3LYP Hyb-GGA Exchange-Correlation Functional

    P. J. Stephens, F. J. Devlin, C. F. Chabalowski, and M. J. Frisch.,  J. Phys. Chem. 98, 11623 (1994) (10.1021/j100096a001)

    Deriv               =              1
    GGA                 =           TRUE
    Meta                =          FALSE

    Exchange Hybrid     =           TRUE
    MP2 Hybrid          =          FALSE

   => Exchange Functionals <=

    0.0800   Slater exchange
    0.7200         Becke 88

   => Exact (HF) Exchange <=

    0.2000               HF

   => Correlation Functionals <=

    0.1900   Vosko, Wilk & Nusair (VWN5_RPA)
    0.8100   Lee, Yang & Parr

   => LibXC Density Thresholds  <==

    XC_HYB_GGA_XC_B3LYP:  1.00E-15

   => Molecular Quadrature <=

    Radial Scheme          =       TREUTLER
    Pruning Scheme         =           NONE
    Nuclear Scheme         =       TREUTLER

    Blocking Scheme        =         OCTREE
    BS radius alpha        =              1
    Pruning alpha          =              1
    Radial Points          =             75
    Spherical Points       =            302
    Total Points           =          42411
    Total Blocks           =            403
    Max Points             =            256
    Max Functions          =             36
    Weights Tolerance      =       1.00E-15

  -Total Gradient:
     Atom            X                  Y                   Z
    ------   -----------------  -----------------  -----------------
       1        0.000000000000     0.000000000000    -0.000059024603
       2        0.000000000000     0.000000000000     0.000064917279

*** tstop() called on Joses-MacBook-Pro-2.local at Thu Jul 17 15:16:30 2025
Module time:
	user time   =       2.88 seconds =       0.05 minutes
	system time =       0.92 seconds =       0.02 minutes
	total time  =          0 seconds =       0.00 minutes
Total time:
	user time   =     201.61 seconds =       3.36 minutes
	system time =      46.23 seconds =       0.77 minutes
	total time  =         23 seconds =       0.38 minutes

    			-----------------------------------------

    			 OPTKING 3.0: for geometry optimizations

    			     By R.A. King, Bethel University

    			        with contributions from

    			    A.V. Copan, J. Cayton, A. Heide

    			-----------------------------------------

	                            ===> Fragment 1 <==

	 Z (Atomic Numbers)          Masses                          Geom
	      13.000000            26.981539          0.00000000  0.00000000  2.37743780
	      14.000000            27.976927          0.00000000  0.00000000 -2.29285120

	 - Coordinate -           - BOHR/RAD -       - ANG/DEG -
	 R(1,2)           =         4.670289           2.471411

	        --- Internal Coordinate Step in ANG or DEG, aJ/ANG or AJ/DEG ---
	-------------------------------------------------------------------------------
	           Coordinate      Previous         Force          Change          New
	           ----------      --------        ------          ------        ------
	               R(1,2)       2.47141        0.00051        0.00062       2.47203
	-------------------------------------------------------------------------------

	                                 ==> Convergence Check <==

	Measures of convergence in internal coordinates in au.

	Criteria marked as inactive (o), active & met (*), and active & unmet ( ).

	----------------------------------------------------------------------------------------------
	   Step    Total Energy     Delta E     Max Force     RMS Force      Max Disp      RMS Disp
	----------------------------------------------------------------------------------------------
	  Convergence Criteria     1.00e-06 *    3.00e-04 *             o    1.20e-03 *             o
	----------------------------------------------------------------------------------------------
	    16    -531.57511960   -8.93e-07 *    6.20e-05 *    6.20e-05 o    1.18e-03 *    1.18e-03 o  ~
	----------------------------------------------------------------------------------------------

Next Geometry in Ang
	Fragment 1 (Ang)

	   Al   0.0000000000   0.0000000000   1.2583979984
	   Si   0.0000000000   0.0000000000  -1.2136366980

    Final optimized geometry and variables:
    Molecular point group: c2v
    Full point group: C_inf_v

    Geometry (in Angstrom), charge = 1, multiplicity = 3:

    AL           0.000000000000     0.000000000000     1.258085900977
    SI           0.000000000000     0.000000000000    -1.213324600514

    Psi4 stopped on: Thursday, 17 July 2025 03:16PM
    Psi4 wall time for execution: 0:00:24.01

*** Psi4 exiting successfully. Buy a developer a beer!
