                               Psi4 1.9.1 release

  ==> Input File <==

--------------------------------------------------------------------------
molecule {
1 3
Li   0.00000        0.60000        0.00000
Ne   0.00000       -0.60000        0.00000
}

set {
basis              cc-pvdz
reference          uks
maxiter            500
geom_maxiter       500
DAMPING_PERCENTAGE 1
guess              SAP
}

optimize('b3lyp')
--------------------------------------------------------------------------

    Molecular point group: c2v
  Charge       = 1
  Multiplicity = 3
  Basis Set: CC-PVDZ
    Blend: CC-PVDZ
  Basis Set: (CC-PVDZ AUX)
    Blend: CC-PVDZ-JKFIT + DEF2-UNIVERSAL-JKFIT
  @DF-UKS Final Energy:  -135.33817537199309
    Total Energy =                       -135.3381753719930884
 Dipole X            :          0.0000000            0.0000000            0.0000000
 Dipole Y            :          0.0000000            0.0000000            0.0000000
 Dipole Z            :          0.8129211           -0.8549566           -0.0420356
 Magnitude           :                                                    0.0420356
    Molecular point group: c2v
  Basis Set: CC-PVDZ
    Blend: CC-PVDZ
  Basis Set: (CC-PVDZ AUX)
    Blend: CC-PVDZ-JKFIT + DEF2-UNIVERSAL-JKFIT
  Basis Set: CC-PVDZ
    Blend: CC-PVDZ
  Basis Set: (CC-PVDZ AUX)
    Blend: CC-PVDZ-JKFIT + DEF2-UNIVERSAL-JKFIT
  @DF-UKS Final Energy:  -135.43812063244323
    Total Energy =                       -135.4381206324432299
  Basis Set: CC-PVDZ
    Blend: CC-PVDZ
  Basis Set: (CC-PVDZ AUX)
    Blend: CC-PVDZ-JKFIT + DEF2-UNIVERSAL-JKFIT
  Basis Set: CC-PVDZ
    Blend: CC-PVDZ
  @DF-UKS Final Energy:  -135.49919708063095
    Total Energy =                       -135.4991970806309496
  @DF-UKS Final Energy:  -135.55531948396091
    Total Energy =                       -135.5553194839609148
  @DF-UKS Final Energy:  -135.60161002884038
    Total Energy =                       -135.6016100288403834
  @DF-UKS Final Energy:  -135.61563200750976
    Total Energy =                       -135.6156320075097597
  @DF-UKS Final Energy:  -135.63439075895147
    Total Energy =                       -135.6343907589514686
  @DF-UKS Final Energy:  -135.63723054122627
    Total Energy =                       -135.6372305412262733
  @DF-UKS Final Energy:  -135.64260219317649
    Total Energy =                       -135.6426021931764865
  @DF-UKS Final Energy:  -135.64386277855843
    Total Energy =                       -135.6438627785584288
  @DF-UKS Final Energy:  -135.64409000169707
    Total Energy =                       -135.6440900016970659
  @DF-UKS Final Energy:  -135.64410675162296
    Total Energy =                       -135.6441067516229566
  Basis Set: (CC-PVDZ AUX)
    Blend: CC-PVDZ-JKFIT + DEF2-UNIVERSAL-JKFIT
  Basis Set: CC-PVDZ
    Blend: CC-PVDZ
  Basis Set: (CC-PVDZ AUX)
    Blend: CC-PVDZ-JKFIT + DEF2-UNIVERSAL-JKFIT
  @DF-UKS Final Energy:  -135.64410845056392
    Total Energy =                       -135.6441084505639196
  Basis Set: CC-PVDZ
    Blend: CC-PVDZ
  Basis Set: (CC-PVDZ AUX)
    Blend: CC-PVDZ-JKFIT + DEF2-UNIVERSAL-JKFIT
  Charge       = 1
  Multiplicity = 3
  Basis Set: CC-PVDZ
    Blend: CC-PVDZ
  Basis Set: (CC-PVDZ AUX)
    Blend: CC-PVDZ-JKFIT + DEF2-UNIVERSAL-JKFIT

    Orbital Energies [Eh]
    ---------------------

    Alpha Occupied:

       1A1   -31.790319     2A1    -2.202891     3A1    -2.157914
       4A1    -1.330162     1B1    -1.220599     1B2    -1.220599
       5A1    -0.313524

    Alpha Virtual:

       6A1    -0.169789     2B2    -0.166232     2B1    -0.166232
       7A1    -0.104086     3B1    -0.048460     3B2    -0.048460
       8A1    -0.021544     9A1     0.061146     4B2     0.066953
       4B1     0.066953    10A1     0.086109     1A2     0.086109
      11A1     0.828274     5B1     0.830777     5B2     0.830777
      12A1     1.353428    13A1     3.943744     6B2     3.968013
       6B1     3.968013     2A2     4.049678    14A1     4.050218

    Beta Occupied:

       1A1   -31.749572     2A1    -2.197170     3A1    -2.048981
       1B1    -1.180466     1B2    -1.180466

    Beta Virtual:

       4A1    -0.967818     5A1    -0.219729     6A1    -0.159757
       2B2    -0.137457     2B1    -0.137457     7A1    -0.069762
       3B1    -0.040148     3B2    -0.040148     8A1    -0.018683
       9A1     0.091699     4B1     0.099932     4B2     0.099932
       1A2     0.113478    10A1     0.113487     5B1     0.849383
       5B2     0.849383    11A1     0.938630    12A1     1.408364
       2A2     4.069048    13A1     4.069545     6B1     4.082777
       6B2     4.082777    14A1     4.108272

    Final Occupation by Irrep:
             A1    A2    B1    B2
    DOCC [     3,    0,    1,    1 ]
    SOCC [     2,    0,    0,    0 ]
    NA   [     5,    0,    1,    1 ]
    NB   [     3,    0,    1,    1 ]

  @DF-UKS Final Energy:  -135.64410872698593

   => Energetics <=

    Nuclear Repulsion Energy =              4.9892740258243924
    One-Electron Energy =                -194.6664120520118217
    Two-Electron Energy =                  65.1934064030237579
    DFT Exchange-Correlation Energy =     -11.1603771038222668
    Empirical Dispersion Energy =           0.0000000000000000
    VV10 Nonlocal Energy =                  0.0000000000000000
    Total Energy =                       -135.6441087269859338

  UHF NO Occupations:
  HONO-2 :    3 A1 1.9997349
  HONO-1 :    4 A1 1.0000000
  HONO-0 :    5 A1 1.0000000
  LUNO+0 :    6 A1 0.0002651
  LUNO+1 :    2 B1 0.0000462
  LUNO+2 :    2 B2 0.0000462
  LUNO+3 :    7 A1 0.0000008

Computation Completed

Properties will be evaluated at   0.000000,   0.000000,   0.000000 [a0]

Properties computed using the SCF density matrix

 Multipole Moments:

 ------------------------------------------------------------------------------------
     Multipole            Electronic (a.u.)      Nuclear  (a.u.)        Total (a.u.)
 ------------------------------------------------------------------------------------

 L = 1.  Multiply by 2.5417464519 to convert [e a0] to [Debye]
 Dipole X            :          0.0000000            0.0000000            0.0000000
 Dipole Y            :          0.0000000            0.0000000            0.0000000
 Dipole Z            :          2.9041879           -2.2669810            0.6372069
 Magnitude           :                                                    0.6372069

 ------------------------------------------------------------------------------------

*** tstop() called on Joses-MacBook-Pro-2.local at Thu Jul 17 12:50:50 2025
Module time:
	user time   =       3.14 seconds =       0.05 minutes
	system time =       3.09 seconds =       0.05 minutes
	total time  =          0 seconds =       0.00 minutes
Total time:
	user time   =      51.02 seconds =       0.85 minutes
	system time =      61.21 seconds =       1.02 minutes
	total time  =         10 seconds =       0.17 minutes

*** tstart() called on Joses-MacBook-Pro-2.local
*** at Thu Jul 17 12:50:50 2025

         ------------------------------------------------------------
                                   SCF GRAD
                          Rob Parrish, Justin Turney,
                       Andy Simmonett, and Alex Sokolov
         ------------------------------------------------------------

  ==> Geometry <==

    Molecular point group: c2v
    Full point group: C_inf_v

    Geometry (in Angstrom), charge = 1, multiplicity = 3:

       Center              X                  Y                   Z               Mass
    ------------   -----------------  -----------------  -----------------  -----------------
         LI           0.000000000000     0.000000000000     2.355327360230     7.016003436600
         NE           0.000000000000     0.000000000000    -0.826561675716    19.992440176200

  Nuclear repulsion =    4.989274025824392

  ==> Basis Set <==

  Basis Set: CC-PVDZ
    Blend: CC-PVDZ
    Number of shells: 12
    Number of basis functions: 28
    Number of Cartesian functions: 30
    Spherical Harmonics?: true
    Max angular momentum: 2

  ==> DFJKGrad: Density-Fitted SCF Gradients <==

    Gradient:                    1
    J tasked:                  Yes
    K tasked:                  Yes
    wK tasked:                  No
    OpenMP threads:              1
    Integrals threads:           1
    Memory [MiB]:              375
    Schwarz Cutoff:          1E-12
    Fitting Condition:       1E-10

   => Auxiliary Basis Set <=

  Basis Set: (CC-PVDZ AUX)
    Blend: CC-PVDZ-JKFIT + DEF2-UNIVERSAL-JKFIT
    Number of shells: 41
    Number of basis functions: 121
    Number of Cartesian functions: 141
    Spherical Harmonics?: true
    Max angular momentum: 3

  ==> DFT Potential <==

   => LibXC <=

    Version 6.2.2
    S. Lehtola, C. Steigemann, M. J.T. Oliveira, and M. A.L. Marques.,  SoftwareX 7, 1â€“5 (2018) (10.1016/j.softx.2017.11.002)

   => Composite Functional: B3LYP <=

    B3LYP Hyb-GGA Exchange-Correlation Functional

    P. J. Stephens, F. J. Devlin, C. F. Chabalowski, and M. J. Frisch.,  J. Phys. Chem. 98, 11623 (1994) (10.1021/j100096a001)

    Deriv               =              1
    GGA                 =           TRUE
    Meta                =          FALSE

    Exchange Hybrid     =           TRUE
    MP2 Hybrid          =          FALSE

   => Exchange Functionals <=

    0.0800   Slater exchange
    0.7200         Becke 88

   => Exact (HF) Exchange <=

    0.2000               HF

   => Correlation Functionals <=

    0.1900   Vosko, Wilk & Nusair (VWN5_RPA)
    0.8100   Lee, Yang & Parr

   => LibXC Density Thresholds  <==

    XC_HYB_GGA_XC_B3LYP:  1.00E-15

   => Molecular Quadrature <=

    Radial Scheme          =       TREUTLER
    Pruning Scheme         =           NONE
    Nuclear Scheme         =       TREUTLER

    Blocking Scheme        =         OCTREE
    BS radius alpha        =              1
    Pruning alpha          =              1
    Radial Points          =             75
    Spherical Points       =            302
    Total Points           =          44381
    Total Blocks           =            416
    Max Points             =            256
    Max Functions          =             28
    Weights Tolerance      =       1.00E-15

  -Total Gradient:
     Atom            X                  Y                   Z
    ------   -----------------  -----------------  -----------------
       1        0.000000000000     0.000000000000    -0.000044931266
       2        0.000000000000     0.000000000000    -0.000030677982

*** tstop() called on Joses-MacBook-Pro-2.local at Thu Jul 17 12:50:51 2025
Module time:
	user time   =       0.61 seconds =       0.01 minutes
	system time =       1.00 seconds =       0.02 minutes
	total time  =          1 seconds =       0.02 minutes
Total time:
	user time   =      51.63 seconds =       0.86 minutes
	system time =      62.21 seconds =       1.04 minutes
	total time  =         11 seconds =       0.18 minutes

    			-----------------------------------------

    			 OPTKING 3.0: for geometry optimizations

    			     By R.A. King, Bethel University

    			        with contributions from

    			    A.V. Copan, J. Cayton, A. Heide

    			-----------------------------------------

	                            ===> Fragment 1 <==

	 Z (Atomic Numbers)          Masses                          Geom
	       3.000000             7.016003          0.00000000  0.00000000  4.45092365
	      10.000000            19.992440          0.00000000  0.00000000 -1.56197519

	 - Coordinate -           - BOHR/RAD -       - ANG/DEG -
	 R(1,2)           =         6.012899           3.181889

	        --- Internal Coordinate Step in ANG or DEG, aJ/ANG or AJ/DEG ---
	-------------------------------------------------------------------------------
	           Coordinate      Previous         Force          Change          New
	           ----------      --------        ------          ------        ------
	               R(1,2)       3.18189        0.00006        0.00026       3.18215
	-------------------------------------------------------------------------------

	                                 ==> Convergence Check <==

	Measures of convergence in internal coordinates in au.

	Criteria marked as inactive (o), active & met (*), and active & unmet ( ).

	----------------------------------------------------------------------------------------------
	   Step    Total Energy     Delta E     Max Force     RMS Force      Max Disp      RMS Disp
	----------------------------------------------------------------------------------------------
	  Convergence Criteria     1.00e-06 *    3.00e-04 *             o    1.20e-03 *             o
	----------------------------------------------------------------------------------------------
	    14    -135.64410873   -2.76e-07 *    7.13e-06 *    7.13e-06 o    5.01e-04 *    5.01e-04 o  ~
	----------------------------------------------------------------------------------------------

Next Geometry in Ang
	Fragment 1 (Ang)

	   Li   0.0000000000   0.0000000000   2.3554598304
	   Ne   0.0000000000   0.0000000000  -0.8266941459

    Final optimized geometry and variables:
    Molecular point group: c2v
    Full point group: C_inf_v

    Geometry (in Angstrom), charge = 1, multiplicity = 3:

    LI           0.000000000000     0.000000000000     2.355327360230
    NE           0.000000000000     0.000000000000    -0.826561675716

    Psi4 stopped on: Thursday, 17 July 2025 12:50PM
    Psi4 wall time for execution: 0:00:11.51

*** Psi4 exiting successfully. Buy a developer a beer!
