                               Psi4 1.9.1 release

  ==> Input File <==

--------------------------------------------------------------------------
molecule {
1 3
F   0.00000        0.60000        0.00000
S   0.00000       -0.60000        0.00000
}

set {
basis              cc-pvdz
reference          uks
maxiter            500
geom_maxiter       500
DAMPING_PERCENTAGE 1
guess              SAP
}

optimize('b3lyp')
--------------------------------------------------------------------------

    Molecular point group: c2v
  Charge       = 1
  Multiplicity = 3
  Basis Set: CC-PVDZ
    Blend: CC-PVDZ
  Basis Set: (CC-PVDZ AUX)
    Blend: CC-PVDZ-JKFIT
  @DF-UKS Final Energy:  -497.38937304693775
    Total Energy =                       -497.3893730469377488
 Dipole X            :          0.0000000            0.0000000            0.0000000
 Dipole Y            :          0.0000000            0.0000000            0.0000000
 Dipole Z            :          0.4575926           -0.7218847           -0.2642921
 Magnitude           :                                                    0.2642921
    Molecular point group: c2v
  Basis Set: CC-PVDZ
    Blend: CC-PVDZ
  Basis Set: (CC-PVDZ AUX)
    Blend: CC-PVDZ-JKFIT
  Basis Set: CC-PVDZ
    Blend: CC-PVDZ
  Basis Set: (CC-PVDZ AUX)
    Blend: CC-PVDZ-JKFIT
  @DF-UKS Final Energy:  -497.51884534776741
    Total Energy =                       -497.5188453477674102
  Basis Set: CC-PVDZ
    Blend: CC-PVDZ
  Basis Set: (CC-PVDZ AUX)
    Blend: CC-PVDZ-JKFIT
  Basis Set: CC-PVDZ
    Blend: CC-PVDZ
  @DF-UKS Final Energy:  -497.57601469049348
    Total Energy =                       -497.5760146904934800
  @DF-UKS Final Energy:  -497.59142859414305
    Total Energy =                       -497.5914285941430535
  @DF-UKS Final Energy:  -497.59652405657766
    Total Energy =                       -497.5965240565776639
  @DF-UKS Final Energy:  -497.59893710102415
    Total Energy =                       -497.5989371010241484
  @DF-UKS Final Energy:  -497.59952512788942
    Total Energy =                       -497.5995251278894216
  @DF-UKS Final Energy:  -497.59971094745555
    Total Energy =                       -497.5997109474555486
  Basis Set: (CC-PVDZ AUX)
    Blend: CC-PVDZ-JKFIT
  Basis Set: CC-PVDZ
    Blend: CC-PVDZ
  Basis Set: (CC-PVDZ AUX)
    Blend: CC-PVDZ-JKFIT
  @DF-UKS Final Energy:  -497.59973552096085
    Total Energy =                       -497.5997355209608486
  Basis Set: CC-PVDZ
    Blend: CC-PVDZ
  Basis Set: (CC-PVDZ AUX)
    Blend: CC-PVDZ-JKFIT
  Charge       = 1
  Multiplicity = 3
  Basis Set: CC-PVDZ
    Blend: CC-PVDZ
  Basis Set: (CC-PVDZ AUX)
    Blend: CC-PVDZ-JKFIT

    Orbital Energies [Eh]
    ---------------------

    Alpha Occupied:

       1A1   -89.387034     2A1   -25.108057     3A1    -8.436667
       1B1    -6.399845     1B2    -6.399845     4A1    -6.399128
       5A1    -1.613715     6A1    -1.104149     7A1    -0.855715
       2B1    -0.842885     2B2    -0.842885     3B1    -0.650955
       3B2    -0.650955

    Alpha Virtual:

       8A1    -0.380769     9A1     0.111784     4B2     0.133843
       4B1     0.133843    10A1     0.155646     1A2     0.155646
      11A1     0.155699     5B2     0.204509     5B1     0.204509
      12A1     0.439764     6B1     0.891484     6B2     0.891484
      13A1     0.917530    14A1     1.763644     2A2     3.167329
      15A1     3.167335     7B1     3.218210     7B2     3.218210
      16A1     3.523235

    Beta Occupied:

       1A1   -89.375530     2A1   -25.097382     3A1    -8.425013
       4A1    -6.392608     1B1    -6.377189     1B2    -6.377189
       5A1    -1.590485     6A1    -1.034128     7A1    -0.822534
       2B1    -0.797459     2B2    -0.797459

    Beta Virtual:

       3B2    -0.497575     3B1    -0.497575     8A1    -0.350320
       9A1     0.136537    10A1     0.168916     4B2     0.175180
       4B1     0.175180    11A1     0.256698     1A2     0.256698
       5B2     0.257488     5B1     0.257488    12A1     0.476206
       6B1     0.910403     6B2     0.910403    13A1     0.924610
      14A1     1.774498     2A2     3.196028    15A1     3.196033
       7B1     3.234972     7B2     3.234972    16A1     3.538237

    Final Occupation by Irrep:
             A1    A2    B1    B2
    DOCC [     7,    0,    2,    2 ]
    SOCC [     0,    0,    1,    1 ]
    NA   [     7,    0,    3,    3 ]
    NB   [     7,    0,    2,    2 ]

  @DF-UKS Final Energy:  -497.59973685744035

   => Energetics <=

    Nuclear Repulsion Energy =             48.8769205605516177
    One-Electron Energy =                -776.6122168653540712
    Two-Electron Energy =                 258.9779435485573345
    DFT Exchange-Correlation Energy =     -28.8423841011952433
    Empirical Dispersion Energy =           0.0000000000000000
    VV10 Nonlocal Energy =                  0.0000000000000000
    Total Energy =                       -497.5997368574403481

  UHF NO Occupations:
  HONO-2 :    7 A1 1.9985622
  HONO-1 :    3 B1 1.0000000
  HONO-0 :    3 B2 1.0000000
  LUNO+0 :    8 A1 0.0014378
  LUNO+1 :    4 B2 0.0002537
  LUNO+2 :    4 B1 0.0002537
  LUNO+3 :    9 A1 0.0000807

Computation Completed

Properties will be evaluated at   0.000000,   0.000000,   0.000000 [a0]

Properties computed using the SCF density matrix

 Multipole Moments:

 ------------------------------------------------------------------------------------
     Multipole            Electronic (a.u.)      Nuclear  (a.u.)        Total (a.u.)
 ------------------------------------------------------------------------------------

 L = 1.  Multiply by 2.5417464519 to convert [e a0] to [Debye]
 Dipole X            :          0.0000000            0.0000000            0.0000000
 Dipole Y            :          0.0000000            0.0000000            0.0000000
 Dipole Z            :         -0.0672261           -0.9378780           -1.0051041
 Magnitude           :                                                    1.0051041

 ------------------------------------------------------------------------------------

*** tstop() called on Joses-MacBook-Pro-2.local at Thu Jul 17 14:29:58 2025
Module time:
	user time   =       3.61 seconds =       0.06 minutes
	system time =       3.39 seconds =       0.06 minutes
	total time  =          0 seconds =       0.00 minutes
Total time:
	user time   =      46.88 seconds =       0.78 minutes
	system time =      52.05 seconds =       0.87 minutes
	total time  =          9 seconds =       0.15 minutes

*** tstart() called on Joses-MacBook-Pro-2.local
*** at Thu Jul 17 14:29:58 2025

         ------------------------------------------------------------
                                   SCF GRAD
                          Rob Parrish, Justin Turney,
                       Andy Simmonett, and Alex Sokolov
         ------------------------------------------------------------

  ==> Geometry <==

    Molecular point group: c2v
    Full point group: C_inf_v

    Geometry (in Angstrom), charge = 1, multiplicity = 3:

       Center              X                  Y                   Z               Mass
    ------------   -----------------  -----------------  -----------------  -----------------
         F            0.000000000000     0.000000000000     0.977939267719    18.998403162730
         S            0.000000000000     0.000000000000    -0.581109818487    31.972071174400

  Nuclear repulsion =   48.876920560551618

  ==> Basis Set <==

  Basis Set: CC-PVDZ
    Blend: CC-PVDZ
    Number of shells: 14
    Number of basis functions: 32
    Number of Cartesian functions: 34
    Spherical Harmonics?: true
    Max angular momentum: 2

  ==> DFJKGrad: Density-Fitted SCF Gradients <==

    Gradient:                    1
    J tasked:                  Yes
    K tasked:                  Yes
    wK tasked:                  No
    OpenMP threads:              1
    Integrals threads:           1
    Memory [MiB]:              375
    Schwarz Cutoff:          1E-12
    Fitting Condition:       1E-10

   => Auxiliary Basis Set <=

  Basis Set: (CC-PVDZ AUX)
    Blend: CC-PVDZ-JKFIT
    Number of shells: 60
    Number of basis functions: 182
    Number of Cartesian functions: 211
    Spherical Harmonics?: true
    Max angular momentum: 3

  ==> DFT Potential <==

   => LibXC <=

    Version 6.2.2
    S. Lehtola, C. Steigemann, M. J.T. Oliveira, and M. A.L. Marques.,  SoftwareX 7, 1â€“5 (2018) (10.1016/j.softx.2017.11.002)

   => Composite Functional: B3LYP <=

    B3LYP Hyb-GGA Exchange-Correlation Functional

    P. J. Stephens, F. J. Devlin, C. F. Chabalowski, and M. J. Frisch.,  J. Phys. Chem. 98, 11623 (1994) (10.1021/j100096a001)

    Deriv               =              1
    GGA                 =           TRUE
    Meta                =          FALSE

    Exchange Hybrid     =           TRUE
    MP2 Hybrid          =          FALSE

   => Exchange Functionals <=

    0.0800   Slater exchange
    0.7200         Becke 88

   => Exact (HF) Exchange <=

    0.2000               HF

   => Correlation Functionals <=

    0.1900   Vosko, Wilk & Nusair (VWN5_RPA)
    0.8100   Lee, Yang & Parr

   => LibXC Density Thresholds  <==

    XC_HYB_GGA_XC_B3LYP:  1.00E-15

   => Molecular Quadrature <=

    Radial Scheme          =       TREUTLER
    Pruning Scheme         =           NONE
    Nuclear Scheme         =       TREUTLER

    Blocking Scheme        =         OCTREE
    BS radius alpha        =              1
    Pruning alpha          =              1
    Radial Points          =             75
    Spherical Points       =            302
    Total Points           =          42105
    Total Blocks           =            378
    Max Points             =            256
    Max Functions          =             32
    Weights Tolerance      =       1.00E-15

  -Total Gradient:
     Atom            X                  Y                   Z
    ------   -----------------  -----------------  -----------------
       1        0.000000000000     0.000000000000    -0.000217667234
       2        0.000000000000     0.000000000000     0.000154150674

*** tstop() called on Joses-MacBook-Pro-2.local at Thu Jul 17 14:29:58 2025
Module time:
	user time   =       1.00 seconds =       0.02 minutes
	system time =       1.46 seconds =       0.02 minutes
	total time  =          0 seconds =       0.00 minutes
Total time:
	user time   =      47.88 seconds =       0.80 minutes
	system time =      53.51 seconds =       0.89 minutes
	total time  =          9 seconds =       0.15 minutes

    			-----------------------------------------

    			 OPTKING 3.0: for geometry optimizations

    			     By R.A. King, Bethel University

    			        with contributions from

    			    A.V. Copan, J. Cayton, A. Heide

    			-----------------------------------------

	                            ===> Fragment 1 <==

	 Z (Atomic Numbers)          Masses                          Geom
	       9.000000            18.998403          0.00000000  0.00000000  1.84803738
	      16.000000            31.972071          0.00000000  0.00000000 -1.09813841

	 - Coordinate -           - BOHR/RAD -       - ANG/DEG -
	 R(1,2)           =         2.946176           1.559049

	        --- Internal Coordinate Step in ANG or DEG, aJ/ANG or AJ/DEG ---
	-------------------------------------------------------------------------------
	           Coordinate      Previous         Force          Change          New
	           ----------      --------        ------          ------        ------
	               R(1,2)       1.55905        0.00153        0.00021       1.55926
	-------------------------------------------------------------------------------

	                                 ==> Convergence Check <==

	Measures of convergence in internal coordinates in au.

	Criteria marked as inactive (o), active & met (*), and active & unmet ( ).

	----------------------------------------------------------------------------------------------
	   Step    Total Energy     Delta E     Max Force     RMS Force      Max Disp      RMS Disp
	----------------------------------------------------------------------------------------------
	  Convergence Criteria     1.00e-06 *    3.00e-04 *             o    1.20e-03 *             o
	----------------------------------------------------------------------------------------------
	    10    -497.59973686   -1.34e-06      1.86e-04 *    1.86e-04 o    3.99e-04 *    3.99e-04 o  ~
	----------------------------------------------------------------------------------------------

Next Geometry in Ang
	Fragment 1 (Ang)

	    F   0.0000000000   0.0000000000   0.9780447891
	    S   0.0000000000   0.0000000000  -0.5812153399

    Final optimized geometry and variables:
    Molecular point group: c2v
    Full point group: C_inf_v

    Geometry (in Angstrom), charge = 1, multiplicity = 3:

    F            0.000000000000     0.000000000000     0.977939267719
    S            0.000000000000     0.000000000000    -0.581109818487

    Psi4 stopped on: Thursday, 17 July 2025 02:29PM
    Psi4 wall time for execution: 0:00:10.23

*** Psi4 exiting successfully. Buy a developer a beer!
