                               Psi4 1.9.1 release

  ==> Input File <==

--------------------------------------------------------------------------
molecule {
1 3
O   0.00000        0.60000        0.00000
P   0.00000       -0.60000        0.00000
}

set {
basis              cc-pvdz
reference          uks
maxiter            500
geom_maxiter       500
DAMPING_PERCENTAGE 1
guess              SAP
}

optimize('b3lyp')
--------------------------------------------------------------------------

    Molecular point group: c2v
  Charge       = 1
  Multiplicity = 3
  Basis Set: CC-PVDZ
    Blend: CC-PVDZ
  Basis Set: (CC-PVDZ AUX)
    Blend: CC-PVDZ-JKFIT
  @DF-UKS Final Energy:  -415.86051943815824
    Total Energy =                       -415.8605194381582351
 Dipole X            :          0.0000000            0.0000000            0.0000000
 Dipole Y            :          0.0000000            0.0000000            0.0000000
 Dipole Z            :         -1.3357646            0.3797926           -0.9559720
 Magnitude           :                                                    0.9559720
    Molecular point group: c2v
  Basis Set: CC-PVDZ
    Blend: CC-PVDZ
  Basis Set: (CC-PVDZ AUX)
    Blend: CC-PVDZ-JKFIT
  Basis Set: CC-PVDZ
    Blend: CC-PVDZ
  Basis Set: (CC-PVDZ AUX)
    Blend: CC-PVDZ-JKFIT
  @DF-UKS Final Energy:  -415.98898988633692
    Total Energy =                       -415.9889898863369808
  Basis Set: CC-PVDZ
    Blend: CC-PVDZ
  Basis Set: (CC-PVDZ AUX)
    Blend: CC-PVDZ-JKFIT
  Basis Set: CC-PVDZ
    Blend: CC-PVDZ
  @DF-UKS Final Energy:  -416.04253135778237
    Total Energy =                       -416.0425313577823658
  @DF-UKS Final Energy:  -416.05690161271679
    Total Energy =                       -416.0569016127167856
  @DF-UKS Final Energy:  -416.06168962614527
    Total Energy =                       -416.0616896261452666
  @DF-UKS Final Energy:  -416.06400905559002
    Total Energy =                       -416.0640090555900770
  @DF-UKS Final Energy:  -416.06458283203528
    Total Energy =                       -416.0645828320352848
  @DF-UKS Final Energy:  -416.06476883457145
    Total Energy =                       -416.0647688345715096
  Basis Set: (CC-PVDZ AUX)
    Blend: CC-PVDZ-JKFIT
  Basis Set: CC-PVDZ
    Blend: CC-PVDZ
  Basis Set: (CC-PVDZ AUX)
    Blend: CC-PVDZ-JKFIT
  @DF-UKS Final Energy:  -416.06479492251060
    Total Energy =                       -416.0647949225106004
  Basis Set: CC-PVDZ
    Blend: CC-PVDZ
  Basis Set: (CC-PVDZ AUX)
    Blend: CC-PVDZ-JKFIT
  Charge       = 1
  Multiplicity = 3
  Basis Set: CC-PVDZ
    Blend: CC-PVDZ
  Basis Set: (CC-PVDZ AUX)
    Blend: CC-PVDZ-JKFIT

    Orbital Energies [Eh]
    ---------------------

    Alpha Occupied:

       1A1   -77.556927     2A1   -19.571409     3A1    -7.013510
       4A1    -5.179501     1B2    -5.176370     1B1    -5.172272
       5A1    -1.380514     6A1    -0.934003     7A1    -0.771054
       2B1    -0.736036     2B2    -0.722849     3B1    -0.533734

    Alpha Virtual:

       3B2    -0.456910     8A1    -0.279399     9A1     0.046475
       1A2     0.104465     4B1     0.106070     4B2     0.108139
      10A1     0.108434    11A1     0.132744     5B1     0.166762
       5B2     0.173286    12A1     0.397169     6B1     0.677905
       6B2     0.678983    13A1     0.688709    14A1     1.339620
       2A2     2.221968    15A1     2.222346     7B2     2.309846
       7B1     2.312117    16A1     2.733904

    Beta Occupied:

       1A1   -77.550255     2A1   -19.547811     3A1    -7.006232
       1B2    -5.172650     4A1    -5.169301     1B1    -5.155908
       5A1    -1.324016     6A1    -0.839946     2B2    -0.699756
       2B1    -0.678909

    Beta Virtual:

       7A1    -0.601205     3B2    -0.428315     3B1    -0.392836
       8A1    -0.234128     9A1     0.070611     4B2     0.112613
       4B1     0.135841    10A1     0.153023     1A2     0.154589
      11A1     0.164599     5B2     0.203811     5B1     0.233853
      12A1     0.433680     6B2     0.694623     6B1     0.707734
      13A1     0.752710    14A1     1.375034    15A1     2.251411
       2A2     2.251465     7B2     2.366643     7B1     2.382677
      16A1     2.801540

    Final Occupation by Irrep:
             A1    A2    B1    B2
    DOCC [     6,    0,    2,    2 ]
    SOCC [     1,    0,    1,    0 ]
    NA   [     7,    0,    3,    2 ]
    NB   [     6,    0,    2,    2 ]

  @DF-UKS Final Energy:  -416.06479656994691

   => Energetics <=

    Nuclear Repulsion Energy =             40.9869758569328440
    One-Electron Energy =                -648.1297367871602546
    Two-Electron Energy =                 216.4110264020007719
    DFT Exchange-Correlation Energy =     -25.3330620417202752
    Empirical Dispersion Energy =           0.0000000000000000
    VV10 Nonlocal Energy =                  0.0000000000000000
    Total Energy =                       -416.0647965699469069

  UHF NO Occupations:
  HONO-2 :    6 A1 1.9973144
  HONO-1 :    7 A1 1.0000000
  HONO-0 :    3 B1 1.0000000
  LUNO+0 :    8 A1 0.0026856
  LUNO+1 :    4 B1 0.0008318
  LUNO+2 :    3 B2 0.0006575
  LUNO+3 :    9 A1 0.0001719

Computation Completed

Properties will be evaluated at   0.000000,   0.000000,   0.000000 [a0]

Properties computed using the SCF density matrix

 Multipole Moments:

 ------------------------------------------------------------------------------------
     Multipole            Electronic (a.u.)      Nuclear  (a.u.)        Total (a.u.)
 ------------------------------------------------------------------------------------

 L = 1.  Multiply by 2.5417464519 to convert [e a0] to [Debye]
 Dipole X            :          0.0000000            0.0000000            0.0000000
 Dipole Y            :          0.0000000            0.0000000            0.0000000
 Dipole Z            :         -1.5992863            0.4903450           -1.1089412
 Magnitude           :                                                    1.1089412

 ------------------------------------------------------------------------------------

*** tstop() called on Joses-MacBook-Pro-2.local at Thu Jul 17 14:10:13 2025
Module time:
	user time   =       2.55 seconds =       0.04 minutes
	system time =       5.17 seconds =       0.09 minutes
	total time  =          1 seconds =       0.02 minutes
Total time:
	user time   =      43.48 seconds =       0.72 minutes
	system time =      86.93 seconds =       1.45 minutes
	total time  =         14 seconds =       0.23 minutes

*** tstart() called on Joses-MacBook-Pro-2.local
*** at Thu Jul 17 14:10:13 2025

         ------------------------------------------------------------
                                   SCF GRAD
                          Rob Parrish, Justin Turney,
                       Andy Simmonett, and Alex Sokolov
         ------------------------------------------------------------

  ==> Geometry <==

    Molecular point group: c2v
    Full point group: C_inf_v

    Geometry (in Angstrom), charge = 1, multiplicity = 3:

       Center              X                  Y                   Z               Mass
    ------------   -----------------  -----------------  -----------------  -----------------
         O            0.000000000000     0.000000000000     1.021697042084    15.994914619570
         P            0.000000000000     0.000000000000    -0.527606461108    30.973761998420

  Nuclear repulsion =   40.986975856932844

  ==> Basis Set <==

  Basis Set: CC-PVDZ
    Blend: CC-PVDZ
    Number of shells: 14
    Number of basis functions: 32
    Number of Cartesian functions: 34
    Spherical Harmonics?: true
    Max angular momentum: 2

  ==> DFJKGrad: Density-Fitted SCF Gradients <==

    Gradient:                    1
    J tasked:                  Yes
    K tasked:                  Yes
    wK tasked:                  No
    OpenMP threads:              1
    Integrals threads:           1
    Memory [MiB]:              375
    Schwarz Cutoff:          1E-12
    Fitting Condition:       1E-10

   => Auxiliary Basis Set <=

  Basis Set: (CC-PVDZ AUX)
    Blend: CC-PVDZ-JKFIT
    Number of shells: 60
    Number of basis functions: 182
    Number of Cartesian functions: 211
    Spherical Harmonics?: true
    Max angular momentum: 3

  ==> DFT Potential <==

   => LibXC <=

    Version 6.2.2
    S. Lehtola, C. Steigemann, M. J.T. Oliveira, and M. A.L. Marques.,  SoftwareX 7, 1â€“5 (2018) (10.1016/j.softx.2017.11.002)

   => Composite Functional: B3LYP <=

    B3LYP Hyb-GGA Exchange-Correlation Functional

    P. J. Stephens, F. J. Devlin, C. F. Chabalowski, and M. J. Frisch.,  J. Phys. Chem. 98, 11623 (1994) (10.1021/j100096a001)

    Deriv               =              1
    GGA                 =           TRUE
    Meta                =          FALSE

    Exchange Hybrid     =           TRUE
    MP2 Hybrid          =          FALSE

   => Exchange Functionals <=

    0.0800   Slater exchange
    0.7200         Becke 88

   => Exact (HF) Exchange <=

    0.2000               HF

   => Correlation Functionals <=

    0.1900   Vosko, Wilk & Nusair (VWN5_RPA)
    0.8100   Lee, Yang & Parr

   => LibXC Density Thresholds  <==

    XC_HYB_GGA_XC_B3LYP:  1.00E-15

   => Molecular Quadrature <=

    Radial Scheme          =       TREUTLER
    Pruning Scheme         =           NONE
    Nuclear Scheme         =       TREUTLER

    Blocking Scheme        =         OCTREE
    BS radius alpha        =              1
    Pruning alpha          =              1
    Radial Points          =             75
    Spherical Points       =            302
    Total Points           =          42210
    Total Blocks           =            380
    Max Points             =            256
    Max Functions          =             32
    Weights Tolerance      =       1.00E-15

  -Total Gradient:
     Atom            X                  Y                   Z
    ------   -----------------  -----------------  -----------------
       1        0.000000000000    -0.000000000000    -0.000216814830
       2        0.000000000000    -0.000000000000     0.000194430913

*** tstop() called on Joses-MacBook-Pro-2.local at Thu Jul 17 14:10:13 2025
Module time:
	user time   =       1.36 seconds =       0.02 minutes
	system time =       1.18 seconds =       0.02 minutes
	total time  =          0 seconds =       0.00 minutes
Total time:
	user time   =      44.85 seconds =       0.75 minutes
	system time =      88.11 seconds =       1.47 minutes
	total time  =         14 seconds =       0.23 minutes

    			-----------------------------------------

    			 OPTKING 3.0: for geometry optimizations

    			     By R.A. King, Bethel University

    			        with contributions from

    			    A.V. Copan, J. Cayton, A. Heide

    			-----------------------------------------

	                            ===> Fragment 1 <==

	 Z (Atomic Numbers)          Masses                          Geom
	       8.000000            15.994915          0.00000000  0.00000000  1.93072759
	      15.000000            30.973762          0.00000000  0.00000000 -0.99703171

	 - Coordinate -           - BOHR/RAD -       - ANG/DEG -
	 R(1,2)           =         2.927759           1.549304

	        --- Internal Coordinate Step in ANG or DEG, aJ/ANG or AJ/DEG ---
	-------------------------------------------------------------------------------
	           Coordinate      Previous         Force          Change          New
	           ----------      --------        ------          ------        ------
	               R(1,2)       1.54930        0.00169        0.00023       1.54954
	-------------------------------------------------------------------------------

	                                 ==> Convergence Check <==

	Measures of convergence in internal coordinates in au.

	Criteria marked as inactive (o), active & met (*), and active & unmet ( ).

	----------------------------------------------------------------------------------------------
	   Step    Total Energy     Delta E     Max Force     RMS Force      Max Disp      RMS Disp
	----------------------------------------------------------------------------------------------
	  Convergence Criteria     1.00e-06 *    3.00e-04 *             o    1.20e-03 *             o
	----------------------------------------------------------------------------------------------
	    10    -416.06479657   -1.65e-06      2.06e-04 *    2.06e-04 o    4.38e-04 *    4.38e-04 o  ~
	----------------------------------------------------------------------------------------------

Next Geometry in Ang
	Fragment 1 (Ang)

	    O   0.0000000000   0.0000000000   1.0218129036
	    P   0.0000000000   0.0000000000  -0.5277223226

    Final optimized geometry and variables:
    Molecular point group: c2v
    Full point group: C_inf_v

    Geometry (in Angstrom), charge = 1, multiplicity = 3:

    O            0.000000000000     0.000000000000     1.021697042084
    P            0.000000000000     0.000000000000    -0.527606461108

    Psi4 stopped on: Thursday, 17 July 2025 02:10PM
    Psi4 wall time for execution: 0:00:14.68

*** Psi4 exiting successfully. Buy a developer a beer!
