                               Psi4 1.9.1 release

  ==> Input File <==

--------------------------------------------------------------------------
molecule {
1 3
B   0.00000        0.60000        0.00000
Ar   0.00000       -0.60000        0.00000
}

set {
basis              cc-pvdz
reference          uks
maxiter            500
geom_maxiter       500
DAMPING_PERCENTAGE 1
guess              SAP
}

optimize('b3lyp')
--------------------------------------------------------------------------

    Molecular point group: c2v
  Charge       = 1
  Multiplicity = 3
  Basis Set: CC-PVDZ
    Blend: CC-PVDZ
  Basis Set: (CC-PVDZ AUX)
    Blend: CC-PVDZ-JKFIT
  @DF-UKS Final Energy:  -551.41248388167446
    Total Energy =                       -551.4124838816744614
 Dipole X            :          0.0000000            0.0000000            0.0000000
 Dipole Y            :          0.0000000            0.0000000            0.0000000
 Dipole Z            :         -0.3918091            0.0731583           -0.3186508
 Magnitude           :                                                    0.3186508
    Molecular point group: c2v
  Basis Set: CC-PVDZ
    Blend: CC-PVDZ
  Basis Set: (CC-PVDZ AUX)
    Blend: CC-PVDZ-JKFIT
  Basis Set: CC-PVDZ
    Blend: CC-PVDZ
  Basis Set: (CC-PVDZ AUX)
    Blend: CC-PVDZ-JKFIT
  @DF-UKS Final Energy:  -551.61114698662561
    Total Energy =                       -551.6111469866254993
  Basis Set: CC-PVDZ
    Blend: CC-PVDZ
  Basis Set: (CC-PVDZ AUX)
    Blend: CC-PVDZ-JKFIT
  Basis Set: CC-PVDZ
    Blend: CC-PVDZ
  @DF-UKS Final Energy:  -551.71252009515831
    Total Energy =                       -551.7125200951583111
  @DF-UKS Final Energy:  -551.74958247892141
    Total Energy =                       -551.7495824789214112
  @DF-UKS Final Energy:  -551.77204473440224
    Total Energy =                       -551.7720447344021295
  @DF-UKS Final Energy:  -551.78377923299877
    Total Energy =                       -551.7837792329986542
  @DF-UKS Final Energy:  -551.78844618423113
    Total Energy =                       -551.7884461842312476
  @DF-UKS Final Energy:  -551.78981843316808
    Total Energy =                       -551.7898184331680795
  @DF-UKS Final Energy:  -551.79038297338172
    Total Energy =                       -551.7903829733817247
  @DF-UKS Final Energy:  -551.79052140408464
    Total Energy =                       -551.7905214040846431
  @DF-UKS Final Energy:  -551.79056450247799
    Total Energy =                       -551.7905645024779915
  Basis Set: (CC-PVDZ AUX)
    Blend: CC-PVDZ-JKFIT
  Basis Set: CC-PVDZ
    Blend: CC-PVDZ
  Basis Set: (CC-PVDZ AUX)
    Blend: CC-PVDZ-JKFIT
  @DF-UKS Final Energy:  -551.79057148468200
    Total Energy =                       -551.7905714846820047
  Basis Set: CC-PVDZ
    Blend: CC-PVDZ
  Basis Set: (CC-PVDZ AUX)
    Blend: CC-PVDZ-JKFIT
  Charge       = 1
  Multiplicity = 3
  Basis Set: CC-PVDZ
    Blend: CC-PVDZ
  Basis Set: (CC-PVDZ AUX)
    Blend: CC-PVDZ-JKFIT

    Orbital Energies [Eh]
    ---------------------

    Alpha Occupied:

       1A1  -115.472315     2A1   -11.507640     3A1    -9.062906
       1B1    -9.055353     1B2    -9.054641     4A1    -7.217822
       5A1    -1.339379     6A1    -0.870735     2B2    -0.769358
       2B1    -0.769257     7A1    -0.646388     3B2    -0.494063

    Alpha Virtual:

       3B1    -0.391956     8A1    -0.288664     9A1    -0.012201
       4B2     0.026491     4B1     0.044122    10A1     0.083963
      11A1     0.228930     5B2     0.257742     5B1     0.263188
       6B1     0.327423     6B2     0.330623     1A2     0.357400
      12A1     0.364983     2A2     0.514438    13A1     0.515700
      14A1     0.559011    15A1     0.650799     7B2     0.732381
       7B1     0.736298    16A1     1.080272

    Beta Occupied:

       1A1  -115.470930     2A1   -11.506277     3A1    -9.059647
       1B1    -9.054621     1B2    -9.052929     4A1    -7.186654
       5A1    -1.331288     6A1    -0.845054     2B1    -0.766685
       2B2    -0.760381

    Beta Virtual:

       7A1    -0.454539     3B1    -0.328381     3B2    -0.286437
       8A1    -0.227541     9A1    -0.002282     4B1     0.066053
       4B2     0.093202    10A1     0.148272    11A1     0.246990
       5B1     0.299227     5B2     0.320261     6B1     0.330046
       6B2     0.335136    12A1     0.430794     1A2     0.431219
      13A1     0.542503     2A2     0.543290    14A1     0.576794
      15A1     0.696625     7B1     0.767043     7B2     0.786886
      16A1     1.103715

    Final Occupation by Irrep:
             A1    A2    B1    B2
    DOCC [     6,    0,    2,    2 ]
    SOCC [     1,    0,    0,    1 ]
    NA   [     7,    0,    2,    3 ]
    NB   [     6,    0,    2,    2 ]

  @DF-UKS Final Energy:  -551.79057193980077

   => Energetics <=

    Nuclear Repulsion Energy =             25.0139492623888096
    One-Electron Energy =                -802.5018433835043652
    Two-Electron Energy =                 253.5504751523139362
    DFT Exchange-Correlation Energy =     -27.8531529709990764
    Empirical Dispersion Energy =           0.0000000000000000
    VV10 Nonlocal Energy =                  0.0000000000000000
    Total Energy =                       -551.7905719398007705

  UHF NO Occupations:
  HONO-2 :    6 A1 1.9997605
  HONO-1 :    3 B2 1.0000000
  HONO-0 :    7 A1 1.0000000
  LUNO+0 :    8 A1 0.0002395
  LUNO+1 :    3 B1 0.0001743
  LUNO+2 :    4 B2 0.0000596
  LUNO+3 :    9 A1 0.0000062

Computation Completed

Properties will be evaluated at   0.000000,   0.000000,   0.000000 [a0]

Properties computed using the SCF density matrix

 Multipole Moments:

 ------------------------------------------------------------------------------------
     Multipole            Electronic (a.u.)      Nuclear  (a.u.)        Total (a.u.)
 ------------------------------------------------------------------------------------

 L = 1.  Multiply by 2.5417464519 to convert [e a0] to [Debye]
 Dipole X            :          0.0000000            0.0000000            0.0000000
 Dipole Y            :          0.0000000            0.0000000            0.0000000
 Dipole Z            :          0.8881519            0.1160764            1.0042282
 Magnitude           :                                                    1.0042282

 ------------------------------------------------------------------------------------

*** tstop() called on Joses-MacBook-Pro-2.local at Thu Jul 17 13:39:37 2025
Module time:
	user time   =       2.80 seconds =       0.05 minutes
	system time =       3.46 seconds =       0.06 minutes
	total time  =          1 seconds =       0.02 minutes
Total time:
	user time   =      51.88 seconds =       0.86 minutes
	system time =      75.18 seconds =       1.25 minutes
	total time  =         13 seconds =       0.22 minutes

*** tstart() called on Joses-MacBook-Pro-2.local
*** at Thu Jul 17 13:39:37 2025

         ------------------------------------------------------------
                                   SCF GRAD
                          Rob Parrish, Justin Turney,
                       Andy Simmonett, and Alex Sokolov
         ------------------------------------------------------------

  ==> Geometry <==

    Molecular point group: c2v
    Full point group: C_inf_v

    Geometry (in Angstrom), charge = 1, multiplicity = 3:

       Center              X                  Y                   Z               Mass
    ------------   -----------------  -----------------  -----------------  -----------------
         B            0.000000000000     0.000000000000     1.492738508320    11.009305360000
         AR           0.000000000000     0.000000000000    -0.411237087885    39.962383123700

  Nuclear repulsion =   25.013949262388810

  ==> Basis Set <==

  Basis Set: CC-PVDZ
    Blend: CC-PVDZ
    Number of shells: 14
    Number of basis functions: 32
    Number of Cartesian functions: 34
    Spherical Harmonics?: true
    Max angular momentum: 2

  ==> DFJKGrad: Density-Fitted SCF Gradients <==

    Gradient:                    1
    J tasked:                  Yes
    K tasked:                  Yes
    wK tasked:                  No
    OpenMP threads:              1
    Integrals threads:           1
    Memory [MiB]:              375
    Schwarz Cutoff:          1E-12
    Fitting Condition:       1E-10

   => Auxiliary Basis Set <=

  Basis Set: (CC-PVDZ AUX)
    Blend: CC-PVDZ-JKFIT
    Number of shells: 60
    Number of basis functions: 182
    Number of Cartesian functions: 211
    Spherical Harmonics?: true
    Max angular momentum: 3

  ==> DFT Potential <==

   => LibXC <=

    Version 6.2.2
    S. Lehtola, C. Steigemann, M. J.T. Oliveira, and M. A.L. Marques.,  SoftwareX 7, 1â€“5 (2018) (10.1016/j.softx.2017.11.002)

   => Composite Functional: B3LYP <=

    B3LYP Hyb-GGA Exchange-Correlation Functional

    P. J. Stephens, F. J. Devlin, C. F. Chabalowski, and M. J. Frisch.,  J. Phys. Chem. 98, 11623 (1994) (10.1021/j100096a001)

    Deriv               =              1
    GGA                 =           TRUE
    Meta                =          FALSE

    Exchange Hybrid     =           TRUE
    MP2 Hybrid          =          FALSE

   => Exchange Functionals <=

    0.0800   Slater exchange
    0.7200         Becke 88

   => Exact (HF) Exchange <=

    0.2000               HF

   => Correlation Functionals <=

    0.1900   Vosko, Wilk & Nusair (VWN5_RPA)
    0.8100   Lee, Yang & Parr

   => LibXC Density Thresholds  <==

    XC_HYB_GGA_XC_B3LYP:  1.00E-15

   => Molecular Quadrature <=

    Radial Scheme          =       TREUTLER
    Pruning Scheme         =           NONE
    Nuclear Scheme         =       TREUTLER

    Blocking Scheme        =         OCTREE
    BS radius alpha        =              1
    Pruning alpha          =              1
    Radial Points          =             75
    Spherical Points       =            302
    Total Points           =          42002
    Total Blocks           =            384
    Max Points             =            255
    Max Functions          =             32
    Weights Tolerance      =       1.00E-15

  -Total Gradient:
     Atom            X                  Y                   Z
    ------   -----------------  -----------------  -----------------
       1       -0.000000000000    -0.000000000000    -0.000045094065
       2        0.000000000000     0.000000000000     0.000051860138

*** tstop() called on Joses-MacBook-Pro-2.local at Thu Jul 17 13:39:37 2025
Module time:
	user time   =       1.03 seconds =       0.02 minutes
	system time =       1.57 seconds =       0.03 minutes
	total time  =          0 seconds =       0.00 minutes
Total time:
	user time   =      52.91 seconds =       0.88 minutes
	system time =      76.76 seconds =       1.28 minutes
	total time  =         13 seconds =       0.22 minutes

    			-----------------------------------------

    			 OPTKING 3.0: for geometry optimizations

    			     By R.A. King, Bethel University

    			        with contributions from

    			    A.V. Copan, J. Cayton, A. Heide

    			-----------------------------------------

	                            ===> Fragment 1 <==

	 Z (Atomic Numbers)          Masses                          Geom
	       5.000000            11.009305          0.00000000  0.00000000  2.82086696
	      18.000000            39.962383          0.00000000  0.00000000 -0.77712547

	 - Coordinate -           - BOHR/RAD -       - ANG/DEG -
	 R(1,2)           =         3.597992           1.903976

	        --- Internal Coordinate Step in ANG or DEG, aJ/ANG or AJ/DEG ---
	-------------------------------------------------------------------------------
	           Coordinate      Previous         Force          Change          New
	           ----------      --------        ------          ------        ------
	               R(1,2)       1.90398        0.00040        0.00026       1.90424
	-------------------------------------------------------------------------------

	                                 ==> Convergence Check <==

	Measures of convergence in internal coordinates in au.

	Criteria marked as inactive (o), active & met (*), and active & unmet ( ).

	----------------------------------------------------------------------------------------------
	   Step    Total Energy     Delta E     Max Force     RMS Force      Max Disp      RMS Disp
	----------------------------------------------------------------------------------------------
	  Convergence Criteria     1.00e-06 *    3.00e-04 *             o    1.20e-03 *             o
	----------------------------------------------------------------------------------------------
	    13    -551.79057194   -4.55e-07 *    4.85e-05 *    4.85e-05 o    4.97e-04 *    4.97e-04 o  ~
	----------------------------------------------------------------------------------------------

Next Geometry in Ang
	Fragment 1 (Ang)

	    B   0.0000000000   0.0000000000   1.4928701375
	   Ar   0.0000000000   0.0000000000  -0.4113687170

    Final optimized geometry and variables:
    Molecular point group: c2v
    Full point group: C_inf_v

    Geometry (in Angstrom), charge = 1, multiplicity = 3:

    B            0.000000000000     0.000000000000     1.492738508320
    AR           0.000000000000     0.000000000000    -0.411237087885

    Psi4 stopped on: Thursday, 17 July 2025 01:39PM
    Psi4 wall time for execution: 0:00:13.47

*** Psi4 exiting successfully. Buy a developer a beer!
