                               Psi4 1.9.1 release

  ==> Input File <==

--------------------------------------------------------------------------
molecule {
1 3
Li   0.00000        0.60000        0.00000
Mg   0.00000       -0.60000        0.00000
}

set {
basis              cc-pvdz
reference          uks
maxiter            500
geom_maxiter       500
DAMPING_PERCENTAGE 1
guess              SAP
}

optimize('b3lyp')
--------------------------------------------------------------------------

    Molecular point group: c2v
  Charge       = 1
  Multiplicity = 3
  Basis Set: CC-PVDZ
    Blend: CC-PVDZ
  Basis Set: (CC-PVDZ AUX)
    Blend: DEF2-UNIVERSAL-JKFIT
  @DF-UKS Final Energy:  -206.94906822614396
    Total Energy =                       -206.9490682261439645
 Dipole X            :          0.0000000            0.0000000            0.0000000
 Dipole Y            :          0.0000000            0.0000000            0.0000000
 Dipole Z            :          1.1577005           -0.8951087            0.2625918
 Magnitude           :                                                    0.2625918
    Molecular point group: c2v
  Basis Set: CC-PVDZ
    Blend: CC-PVDZ
  Basis Set: (CC-PVDZ AUX)
    Blend: DEF2-UNIVERSAL-JKFIT
  Basis Set: CC-PVDZ
    Blend: CC-PVDZ
  Basis Set: (CC-PVDZ AUX)
    Blend: DEF2-UNIVERSAL-JKFIT
  @DF-UKS Final Energy:  -206.99960502668822
    Total Energy =                       -206.9996050266882150
  Basis Set: CC-PVDZ
    Blend: CC-PVDZ
  Basis Set: (CC-PVDZ AUX)
    Blend: DEF2-UNIVERSAL-JKFIT
  Basis Set: CC-PVDZ
    Blend: CC-PVDZ
  @DF-UKS Final Energy:  -207.06260180975255
    Total Energy =                       -207.0626018097525503
  @DF-UKS Final Energy:  -207.15363495353299
    Total Energy =                       -207.1536349535329862
  @DF-UKS Final Energy:  -207.21723828220982
    Total Energy =                       -207.2172382822098200
  @DF-UKS Final Energy:  -207.25515308227369
    Total Energy =                       -207.2551530822736652
  @DF-UKS Final Energy:  -207.27410872447632
    Total Energy =                       -207.2741087244763207
  @DF-UKS Final Energy:  -207.28269715193693
    Total Energy =                       -207.2826971519369295
  @DF-UKS Final Energy:  -207.28611585353369
    Total Energy =                       -207.2861158535336870
  @DF-UKS Final Energy:  -207.28721898019916
    Total Energy =                       -207.2872189801991567
  @DF-UKS Final Energy:  -207.28745062788033
    Total Energy =                       -207.2874506278803040
  @DF-UKS Final Energy:  -207.28747122338163
    Total Energy =                       -207.2874712233816297
  Basis Set: (CC-PVDZ AUX)
    Blend: DEF2-UNIVERSAL-JKFIT
  Basis Set: CC-PVDZ
    Blend: CC-PVDZ
  Basis Set: (CC-PVDZ AUX)
    Blend: DEF2-UNIVERSAL-JKFIT
  @DF-UKS Final Energy:  -207.28747312150509
    Total Energy =                       -207.2874731215050872
  Basis Set: CC-PVDZ
    Blend: CC-PVDZ
  Basis Set: (CC-PVDZ AUX)
    Blend: DEF2-UNIVERSAL-JKFIT
  Charge       = 1
  Multiplicity = 3
  Basis Set: CC-PVDZ
    Blend: CC-PVDZ
  Basis Set: (CC-PVDZ AUX)
    Blend: DEF2-UNIVERSAL-JKFIT

    Orbital Energies [Eh]
    ---------------------

    Alpha Occupied:

       1A1   -47.080804     2A1    -3.357369     3A1    -2.278680
       4A1    -2.101674     1B1    -2.101617     1B2    -2.098944
       5A1    -0.436063     2B2    -0.279805

    Alpha Virtual:

       6A1    -0.267281     2B1    -0.225910     7A1    -0.192720
       3B2    -0.168012     3B1    -0.147286     8A1    -0.093714
       9A1    -0.071573     4B2    -0.064687     4B1    -0.057490
      10A1    -0.037995    11A1    -0.002695     5B2     0.003971
       5B1     0.012723     6B2     0.035143     1A2     0.044104
      12A1     0.049566     6B1     0.051231    13A1     0.056788
       2A2     0.121906    14A1     0.128625    15A1     0.172584
       7B2     0.221878     7B1     0.235752    16A1     0.343556

    Beta Occupied:

       1A1   -47.076883     2A1    -3.350845     3A1    -2.276974
       1B1    -2.097765     4A1    -2.097503     1B2    -2.090697

    Beta Virtual:

       5A1    -0.327356     6A1    -0.232323     2B1    -0.191565
       7A1    -0.178145     2B2    -0.177623     3B1    -0.137449
       3B2    -0.127652     8A1    -0.078869     4B1    -0.053184
       4B2    -0.050948     9A1    -0.047533    10A1    -0.032685
      11A1     0.014277     5B1     0.029059     5B2     0.039777
       6B1     0.070049    12A1     0.075521     1A2     0.077463
       6B2     0.079125    13A1     0.080436    14A1     0.170453
       2A2     0.172076    15A1     0.194356     7B1     0.251089
       7B2     0.264709    16A1     0.360541

    Final Occupation by Irrep:
             A1    A2    B1    B2
    DOCC [     4,    0,    1,    1 ]
    SOCC [     1,    0,    0,    1 ]
    NA   [     5,    0,    1,    2 ]
    NB   [     4,    0,    1,    1 ]

  @DF-UKS Final Energy:  -207.28747330258932

   => Energetics <=

    Nuclear Repulsion Energy =              6.4246268481823972
    One-Electron Energy =                -298.2435119930506744
    Two-Electron Energy =                  99.1574344646768679
    DFT Exchange-Correlation Energy =     -14.6260226223979153
    Empirical Dispersion Energy =           0.0000000000000000
    VV10 Nonlocal Energy =                  0.0000000000000000
    Total Energy =                       -207.2874733025893192

  UHF NO Occupations:
  HONO-2 :    4 A1 1.9999990
  HONO-1 :    2 B2 1.0000000
  HONO-0 :    5 A1 1.0000000
  LUNO+0 :    6 A1 0.0000010
  LUNO+1 :    2 B1 0.0000005
  LUNO+2 :    7 A1 0.0000004
  LUNO+3 :    3 B2 0.0000004

Computation Completed

Properties will be evaluated at   0.000000,   0.000000,   0.000000 [a0]

Properties computed using the SCF density matrix

 Multipole Moments:

 ------------------------------------------------------------------------------------
     Multipole            Electronic (a.u.)      Nuclear  (a.u.)        Total (a.u.)
 ------------------------------------------------------------------------------------

 L = 1.  Multiply by 2.5417464519 to convert [e a0] to [Debye]
 Dipole X            :          0.0000000            0.0000000            0.0000000
 Dipole Y            :          0.0000000            0.0000000            0.0000000
 Dipole Z            :          4.0635078           -2.2118223            1.8516855
 Magnitude           :                                                    1.8516855

 ------------------------------------------------------------------------------------

*** tstop() called on Joses-MacBook-Pro-2.local at Thu Jul 17 12:52:27 2025
Module time:
	user time   =       2.76 seconds =       0.05 minutes
	system time =       2.71 seconds =       0.05 minutes
	total time  =          1 seconds =       0.02 minutes
Total time:
	user time   =      69.00 seconds =       1.15 minutes
	system time =      65.84 seconds =       1.10 minutes
	total time  =         14 seconds =       0.23 minutes

*** tstart() called on Joses-MacBook-Pro-2.local
*** at Thu Jul 17 12:52:27 2025

         ------------------------------------------------------------
                                   SCF GRAD
                          Rob Parrish, Justin Turney,
                       Andy Simmonett, and Alex Sokolov
         ------------------------------------------------------------

  ==> Geometry <==

    Molecular point group: c2v
    Full point group: C_inf_v

    Geometry (in Angstrom), charge = 1, multiplicity = 3:

       Center              X                  Y                   Z               Mass
    ------------   -----------------  -----------------  -----------------  -----------------
         LI           0.000000000000     0.000000000000     2.294139738361     7.016003436600
         MG           0.000000000000     0.000000000000    -0.671072099508    23.985041697000

  Nuclear repulsion =    6.424626848182397

  ==> Basis Set <==

  Basis Set: CC-PVDZ
    Blend: CC-PVDZ
    Number of shells: 14
    Number of basis functions: 32
    Number of Cartesian functions: 34
    Spherical Harmonics?: true
    Max angular momentum: 2

  ==> DFJKGrad: Density-Fitted SCF Gradients <==

    Gradient:                    1
    J tasked:                  Yes
    K tasked:                  Yes
    wK tasked:                  No
    OpenMP threads:              1
    Integrals threads:           1
    Memory [MiB]:              375
    Schwarz Cutoff:          1E-12
    Fitting Condition:       1E-10

   => Auxiliary Basis Set <=

  Basis Set: (CC-PVDZ AUX)
    Blend: DEF2-UNIVERSAL-JKFIT
    Number of shells: 51
    Number of basis functions: 163
    Number of Cartesian functions: 197
    Spherical Harmonics?: true
    Max angular momentum: 4

  ==> DFT Potential <==

   => LibXC <=

    Version 6.2.2
    S. Lehtola, C. Steigemann, M. J.T. Oliveira, and M. A.L. Marques.,  SoftwareX 7, 1â€“5 (2018) (10.1016/j.softx.2017.11.002)

   => Composite Functional: B3LYP <=

    B3LYP Hyb-GGA Exchange-Correlation Functional

    P. J. Stephens, F. J. Devlin, C. F. Chabalowski, and M. J. Frisch.,  J. Phys. Chem. 98, 11623 (1994) (10.1021/j100096a001)

    Deriv               =              1
    GGA                 =           TRUE
    Meta                =          FALSE

    Exchange Hybrid     =           TRUE
    MP2 Hybrid          =          FALSE

   => Exchange Functionals <=

    0.0800   Slater exchange
    0.7200         Becke 88

   => Exact (HF) Exchange <=

    0.2000               HF

   => Correlation Functionals <=

    0.1900   Vosko, Wilk & Nusair (VWN5_RPA)
    0.8100   Lee, Yang & Parr

   => LibXC Density Thresholds  <==

    XC_HYB_GGA_XC_B3LYP:  1.00E-15

   => Molecular Quadrature <=

    Radial Scheme          =       TREUTLER
    Pruning Scheme         =           NONE
    Nuclear Scheme         =       TREUTLER

    Blocking Scheme        =         OCTREE
    BS radius alpha        =              1
    Pruning alpha          =              1
    Radial Points          =             75
    Spherical Points       =            302
    Total Points           =          43854
    Total Blocks           =            455
    Max Points             =            254
    Max Functions          =             32
    Weights Tolerance      =       1.00E-15

  -Total Gradient:
     Atom            X                  Y                   Z
    ------   -----------------  -----------------  -----------------
       1        0.000000000000    -0.000000000000    -0.000017816064
       2       -0.000000000000     0.000000000000     0.000020405786

*** tstop() called on Joses-MacBook-Pro-2.local at Thu Jul 17 12:52:27 2025
Module time:
	user time   =       1.67 seconds =       0.03 minutes
	system time =       1.82 seconds =       0.03 minutes
	total time  =          0 seconds =       0.00 minutes
Total time:
	user time   =      70.68 seconds =       1.18 minutes
	system time =      67.66 seconds =       1.13 minutes
	total time  =         14 seconds =       0.23 minutes

    			-----------------------------------------

    			 OPTKING 3.0: for geometry optimizations

    			     By R.A. King, Bethel University

    			        with contributions from

    			    A.V. Copan, J. Cayton, A. Heide

    			-----------------------------------------

	                            ===> Fragment 1 <==

	 Z (Atomic Numbers)          Masses                          Geom
	       3.000000             7.016003          0.00000000  0.00000000  4.33529580
	      12.000000            23.985042          0.00000000  0.00000000 -1.26814248

	 - Coordinate -           - BOHR/RAD -       - ANG/DEG -
	 R(1,2)           =         5.603438           2.965212

	        --- Internal Coordinate Step in ANG or DEG, aJ/ANG or AJ/DEG ---
	-------------------------------------------------------------------------------
	           Coordinate      Previous         Force          Change          New
	           ----------      --------        ------          ------        ------
	               R(1,2)       2.96521        0.00016        0.00094       2.96616
	-------------------------------------------------------------------------------

	                                 ==> Convergence Check <==

	Measures of convergence in internal coordinates in au.

	Criteria marked as inactive (o), active & met (*), and active & unmet ( ).

	----------------------------------------------------------------------------------------------
	   Step    Total Energy     Delta E     Max Force     RMS Force      Max Disp      RMS Disp
	----------------------------------------------------------------------------------------------
	  Convergence Criteria     1.00e-06 *    3.00e-04 *             o    1.20e-03 *             o
	----------------------------------------------------------------------------------------------
	    14    -207.28747330   -1.81e-07 *    1.91e-05 *    1.91e-05 o    1.79e-03      1.79e-03 o  ~
	----------------------------------------------------------------------------------------------

Next Geometry in Ang
	Fragment 1 (Ang)

	   Li   0.0000000000   0.0000000000   2.2946120509
	   Mg   0.0000000000   0.0000000000  -0.6715444120

    Final optimized geometry and variables:
    Molecular point group: c2v
    Full point group: C_inf_v

    Geometry (in Angstrom), charge = 1, multiplicity = 3:

    LI           0.000000000000     0.000000000000     2.294139738361
    MG           0.000000000000     0.000000000000    -0.671072099508

    Psi4 stopped on: Thursday, 17 July 2025 12:52PM
    Psi4 wall time for execution: 0:00:15.29

*** Psi4 exiting successfully. Buy a developer a beer!
