                               Psi4 1.9.1 release

  ==> Input File <==

--------------------------------------------------------------------------
molecule {
1 3
O   0.00000        0.60000        0.00000
Al   0.00000       -0.60000        0.00000
}

set {
basis              cc-pvdz
reference          uks
maxiter            500
geom_maxiter       500
DAMPING_PERCENTAGE 1
guess              SAP
}

optimize('b3lyp')
--------------------------------------------------------------------------

    Molecular point group: c2v
  Charge       = 1
  Multiplicity = 3
  Basis Set: CC-PVDZ
    Blend: CC-PVDZ
  Basis Set: (CC-PVDZ AUX)
    Blend: CC-PVDZ-JKFIT
  @DF-UKS Final Energy:  -316.90301807164207
    Total Energy =                       -316.9030180716420659
 Dipole X            :          0.0000000            0.0000000            0.0000000
 Dipole Y            :          0.0000000            0.0000000            0.0000000
 Dipole Z            :         -1.4683806            0.4178188           -1.0505618
 Magnitude           :                                                    1.0505618
    Molecular point group: c2v
  Basis Set: CC-PVDZ
    Blend: CC-PVDZ
  Basis Set: (CC-PVDZ AUX)
    Blend: CC-PVDZ-JKFIT
  Basis Set: CC-PVDZ
    Blend: CC-PVDZ
  Basis Set: (CC-PVDZ AUX)
    Blend: CC-PVDZ-JKFIT
  @DF-UKS Final Energy:  -317.07830866046351
    Total Energy =                       -317.0783086604635059
  Basis Set: CC-PVDZ
    Blend: CC-PVDZ
  Basis Set: (CC-PVDZ AUX)
    Blend: CC-PVDZ-JKFIT
  Basis Set: CC-PVDZ
    Blend: CC-PVDZ
  @DF-UKS Final Energy:  -317.15895608831335
    Total Energy =                       -317.1589560883133458
  @DF-UKS Final Energy:  -317.18475770961646
    Total Energy =                       -317.1847577096164628
  @DF-UKS Final Energy:  -317.19752837417417
    Total Energy =                       -317.1975283741741691
  @DF-UKS Final Energy:  -317.20105864186399
    Total Energy =                       -317.2010586418639946
  @DF-UKS Final Energy:  -317.20241213537270
    Total Energy =                       -317.2024121353726969
  @DF-UKS Final Energy:  -317.20265187303295
    Total Energy =                       -317.2026518730329485
  @DF-UKS Final Energy:  -317.20270201094121
    Total Energy =                       -317.2027020109412092
  Basis Set: (CC-PVDZ AUX)
    Blend: CC-PVDZ-JKFIT
  Basis Set: CC-PVDZ
    Blend: CC-PVDZ
  Basis Set: (CC-PVDZ AUX)
    Blend: CC-PVDZ-JKFIT
  @DF-UKS Final Energy:  -317.20270744362693
    Total Energy =                       -317.2027074436269345
  Basis Set: CC-PVDZ
    Blend: CC-PVDZ
  Basis Set: (CC-PVDZ AUX)
    Blend: CC-PVDZ-JKFIT
  Charge       = 1
  Multiplicity = 3
  Basis Set: CC-PVDZ
    Blend: CC-PVDZ
  Basis Set: (CC-PVDZ AUX)
    Blend: CC-PVDZ-JKFIT

    Orbital Energies [Eh]
    ---------------------

    Alpha Occupied:

       1A1   -56.478844     2A1   -19.459629     3A1    -4.548045
       4A1    -3.101332     1B2    -3.100191     1B1    -3.100191
       5A1    -1.235694     6A1    -0.741967     2B1    -0.608619
       2B2    -0.608619     7A1    -0.573551

    Alpha Virtual:

       3B1    -0.321196     3B2    -0.321196     8A1    -0.215758
       9A1    -0.061860     4B1    -0.015447     4B2    -0.015447
      10A1    -0.011356     1A2    -0.011356    11A1     0.017571
       5B2     0.049887     5B1     0.049887    12A1     0.248468
      13A1     0.735180     6B2     0.779799     6B1     0.779799
      14A1     1.510358     7B2     2.322462     7B1     2.322462
      15A1     2.324514     2A2     2.324552    16A1     2.474404

    Beta Occupied:

       1A1   -56.473047     2A1   -19.434149     3A1    -4.538858
       1B2    -3.094295     1B1    -3.094295     4A1    -3.091163
       5A1    -1.162943     2B1    -0.580729     2B2    -0.580729

    Beta Virtual:

       6A1    -0.533023     7A1    -0.411217     3B1    -0.275084
       3B2    -0.275084     8A1    -0.173899     9A1    -0.035799
       4B1    -0.001215     4B2    -0.001215     1A2     0.019578
      10A1     0.019583    11A1     0.059247     5B2     0.094707
       5B1     0.094707    12A1     0.288933     6B2     0.797357
       6B1     0.797357    13A1     0.825320    14A1     1.554594
      15A1     2.341375     2A2     2.341411     7B2     2.401620
       7B1     2.401620    16A1     2.570596

    Final Occupation by Irrep:
             A1    A2    B1    B2
    DOCC [     5,    0,    2,    2 ]
    SOCC [     2,    0,    0,    0 ]
    NA   [     7,    0,    2,    2 ]
    NB   [     5,    0,    2,    2 ]

  @DF-UKS Final Energy:  -317.20270761219541

   => Energetics <=

    Nuclear Repulsion Energy =             32.9452209954722193
    One-Electron Energy =                -499.1593477679930402
    Two-Electron Energy =                 170.7302259482858346
    DFT Exchange-Correlation Energy =     -21.7188067879603679
    Empirical Dispersion Energy =           0.0000000000000000
    VV10 Nonlocal Energy =                  0.0000000000000000
    Total Energy =                       -317.2027076121953542

  UHF NO Occupations:
  HONO-2 :    5 A1 1.9996059
  HONO-1 :    6 A1 1.0000000
  HONO-0 :    7 A1 1.0000000
  LUNO+0 :    8 A1 0.0003941
  LUNO+1 :    3 B1 0.0002610
  LUNO+2 :    3 B2 0.0002610
  LUNO+3 :    4 B2 0.0000011

Computation Completed

Properties will be evaluated at   0.000000,   0.000000,   0.000000 [a0]

Properties computed using the SCF density matrix

 Multipole Moments:

 ------------------------------------------------------------------------------------
     Multipole            Electronic (a.u.)      Nuclear  (a.u.)        Total (a.u.)
 ------------------------------------------------------------------------------------

 L = 1.  Multiply by 2.5417464519 to convert [e a0] to [Debye]
 Dipole X            :          0.0000000            0.0000000            0.0000000
 Dipole Y            :          0.0000000            0.0000000            0.0000000
 Dipole Z            :         -2.4074421            0.5816327           -1.8258095
 Magnitude           :                                                    1.8258095

 ------------------------------------------------------------------------------------

*** tstop() called on Joses-MacBook-Pro-2.local at Thu Jul 17 14:08:35 2025
Module time:
	user time   =       2.74 seconds =       0.05 minutes
	system time =       3.76 seconds =       0.06 minutes
	total time  =          1 seconds =       0.02 minutes
Total time:
	user time   =      39.85 seconds =       0.66 minutes
	system time =      79.90 seconds =       1.33 minutes
	total time  =         13 seconds =       0.22 minutes

*** tstart() called on Joses-MacBook-Pro-2.local
*** at Thu Jul 17 14:08:35 2025

         ------------------------------------------------------------
                                   SCF GRAD
                          Rob Parrish, Justin Turney,
                       Andy Simmonett, and Alex Sokolov
         ------------------------------------------------------------

  ==> Geometry <==

    Molecular point group: c2v
    Full point group: C_inf_v

    Geometry (in Angstrom), charge = 1, multiplicity = 3:

       Center              X                  Y                   Z               Mass
    ------------   -----------------  -----------------  -----------------  -----------------
         O            0.000000000000     0.000000000000     1.048765003561    15.994914619570
         AL           0.000000000000     0.000000000000    -0.621717945005    26.981538530000

  Nuclear repulsion =   32.945220995472219

  ==> Basis Set <==

  Basis Set: CC-PVDZ
    Blend: CC-PVDZ
    Number of shells: 14
    Number of basis functions: 32
    Number of Cartesian functions: 34
    Spherical Harmonics?: true
    Max angular momentum: 2

  ==> DFJKGrad: Density-Fitted SCF Gradients <==

    Gradient:                    1
    J tasked:                  Yes
    K tasked:                  Yes
    wK tasked:                  No
    OpenMP threads:              1
    Integrals threads:           1
    Memory [MiB]:              375
    Schwarz Cutoff:          1E-12
    Fitting Condition:       1E-10

   => Auxiliary Basis Set <=

  Basis Set: (CC-PVDZ AUX)
    Blend: CC-PVDZ-JKFIT
    Number of shells: 60
    Number of basis functions: 182
    Number of Cartesian functions: 211
    Spherical Harmonics?: true
    Max angular momentum: 3

  ==> DFT Potential <==

   => LibXC <=

    Version 6.2.2
    S. Lehtola, C. Steigemann, M. J.T. Oliveira, and M. A.L. Marques.,  SoftwareX 7, 1â€“5 (2018) (10.1016/j.softx.2017.11.002)

   => Composite Functional: B3LYP <=

    B3LYP Hyb-GGA Exchange-Correlation Functional

    P. J. Stephens, F. J. Devlin, C. F. Chabalowski, and M. J. Frisch.,  J. Phys. Chem. 98, 11623 (1994) (10.1021/j100096a001)

    Deriv               =              1
    GGA                 =           TRUE
    Meta                =          FALSE

    Exchange Hybrid     =           TRUE
    MP2 Hybrid          =          FALSE

   => Exchange Functionals <=

    0.0800   Slater exchange
    0.7200         Becke 88

   => Exact (HF) Exchange <=

    0.2000               HF

   => Correlation Functionals <=

    0.1900   Vosko, Wilk & Nusair (VWN5_RPA)
    0.8100   Lee, Yang & Parr

   => LibXC Density Thresholds  <==

    XC_HYB_GGA_XC_B3LYP:  1.00E-15

   => Molecular Quadrature <=

    Radial Scheme          =       TREUTLER
    Pruning Scheme         =           NONE
    Nuclear Scheme         =       TREUTLER

    Blocking Scheme        =         OCTREE
    BS radius alpha        =              1
    Pruning alpha          =              1
    Radial Points          =             75
    Spherical Points       =            302
    Total Points           =          43425
    Total Blocks           =            403
    Max Points             =            255
    Max Functions          =             32
    Weights Tolerance      =       1.00E-15

  -Total Gradient:
     Atom            X                  Y                   Z
    ------   -----------------  -----------------  -----------------
       1        0.000000000000    -0.000000000000    -0.000053443569
       2        0.000000000000    -0.000000000000     0.000038426822

*** tstop() called on Joses-MacBook-Pro-2.local at Thu Jul 17 14:08:35 2025
Module time:
	user time   =       0.82 seconds =       0.01 minutes
	system time =       1.74 seconds =       0.03 minutes
	total time  =          0 seconds =       0.00 minutes
Total time:
	user time   =      40.67 seconds =       0.68 minutes
	system time =      81.64 seconds =       1.36 minutes
	total time  =         13 seconds =       0.22 minutes

    			-----------------------------------------

    			 OPTKING 3.0: for geometry optimizations

    			     By R.A. King, Bethel University

    			        with contributions from

    			    A.V. Copan, J. Cayton, A. Heide

    			-----------------------------------------

	                            ===> Fragment 1 <==

	 Z (Atomic Numbers)          Masses                          Geom
	       8.000000            15.994915          0.00000000  0.00000000  1.98187863
	      13.000000            26.981539          0.00000000  0.00000000 -1.17487664

	 - Coordinate -           - BOHR/RAD -       - ANG/DEG -
	 R(1,2)           =         3.156755           1.670483

	        --- Internal Coordinate Step in ANG or DEG, aJ/ANG or AJ/DEG ---
	-------------------------------------------------------------------------------
	           Coordinate      Previous         Force          Change          New
	           ----------      --------        ------          ------        ------
	               R(1,2)       1.67048        0.00038        0.00007       1.67056
	-------------------------------------------------------------------------------

	                                 ==> Convergence Check <==

	Measures of convergence in internal coordinates in au.

	Criteria marked as inactive (o), active & met (*), and active & unmet ( ).

	----------------------------------------------------------------------------------------------
	   Step    Total Energy     Delta E     Max Force     RMS Force      Max Disp      RMS Disp
	----------------------------------------------------------------------------------------------
	  Convergence Criteria     1.00e-06 *    3.00e-04 *             o    1.20e-03 *             o
	----------------------------------------------------------------------------------------------
	    11    -317.20270761   -1.69e-07 *    4.59e-05 *    4.59e-05 o    1.40e-04 *    1.40e-04 o  ~
	----------------------------------------------------------------------------------------------

Next Geometry in Ang
	Fragment 1 (Ang)

	    O   0.0000000000   0.0000000000   1.0488020575
	   Al   0.0000000000   0.0000000000  -0.6217549989

    Final optimized geometry and variables:
    Molecular point group: c2v
    Full point group: C_inf_v

    Geometry (in Angstrom), charge = 1, multiplicity = 3:

    O            0.000000000000     0.000000000000     1.048765003561
    AL           0.000000000000     0.000000000000    -0.621717945005

    Psi4 stopped on: Thursday, 17 July 2025 02:08PM
    Psi4 wall time for execution: 0:00:13.48

*** Psi4 exiting successfully. Buy a developer a beer!
