                               Psi4 1.9.1 release

  ==> Input File <==

--------------------------------------------------------------------------
molecule {
1 3
N   0.00000        0.60000        0.00000
S   0.00000       -0.60000        0.00000
}

set {
basis              cc-pvdz
reference          uks
maxiter            500
geom_maxiter       500
DAMPING_PERCENTAGE 1
guess              SAP
}

optimize('b3lyp')
--------------------------------------------------------------------------

    Molecular point group: c2v
  Charge       = 1
  Multiplicity = 3
  Basis Set: CC-PVDZ
    Blend: CC-PVDZ
  Basis Set: (CC-PVDZ AUX)
    Blend: CC-PVDZ-JKFIT
  @DF-UKS Final Energy:  -452.20664881350564
    Total Energy =                       -452.2066488135056375
 Dipole X            :          0.0000000            0.0000000            0.0000000
 Dipole Y            :          0.0000000            0.0000000            0.0000000
 Dipole Z            :         -0.0485236           -0.0120688           -0.0605925
 Magnitude           :                                                    0.0605925
    Molecular point group: c2v
  Basis Set: CC-PVDZ
    Blend: CC-PVDZ
  Basis Set: (CC-PVDZ AUX)
    Blend: CC-PVDZ-JKFIT
  Basis Set: CC-PVDZ
    Blend: CC-PVDZ
  Basis Set: (CC-PVDZ AUX)
    Blend: CC-PVDZ-JKFIT
  @DF-UKS Final Energy:  -452.33272347331007
    Total Energy =                       -452.3327234733100681
  Basis Set: CC-PVDZ
    Blend: CC-PVDZ
  Basis Set: (CC-PVDZ AUX)
    Blend: CC-PVDZ-JKFIT
  Basis Set: CC-PVDZ
    Blend: CC-PVDZ
  @DF-UKS Final Energy:  -452.37935329038874
    Total Energy =                       -452.3793532903887922
  @DF-UKS Final Energy:  -452.39073217886028
    Total Energy =                       -452.3907321788602189
  @DF-UKS Final Energy:  -452.39420590278650
    Total Energy =                       -452.3942059027865525
  @DF-UKS Final Energy:  -452.39573875791439
    Total Energy =                       -452.3957387579143870
  @DF-UKS Final Energy:  -452.39606838404347
    Total Energy =                       -452.3960683840434740
  @DF-UKS Final Energy:  -452.39615969464955
    Total Energy =                       -452.3961596946495547
  Basis Set: (CC-PVDZ AUX)
    Blend: CC-PVDZ-JKFIT
  Basis Set: CC-PVDZ
    Blend: CC-PVDZ
  Basis Set: (CC-PVDZ AUX)
    Blend: CC-PVDZ-JKFIT
  @DF-UKS Final Energy:  -452.39616999637315
    Total Energy =                       -452.3961699963732030
  Basis Set: CC-PVDZ
    Blend: CC-PVDZ
  Basis Set: (CC-PVDZ AUX)
    Blend: CC-PVDZ-JKFIT
  Charge       = 1
  Multiplicity = 3
  Basis Set: CC-PVDZ
    Blend: CC-PVDZ
  Basis Set: (CC-PVDZ AUX)
    Blend: CC-PVDZ-JKFIT

    Orbital Energies [Eh]
    ---------------------

    Alpha Occupied:

       1A1   -89.342691     2A1   -14.817230     3A1    -8.394821
       4A1    -6.362692     1B2    -6.354489     1B1    -6.351086
       5A1    -1.312674     6A1    -0.979154     7A1    -0.795495
       2B1    -0.754862     2B2    -0.735664     3B1    -0.558750

    Alpha Virtual:

       3B2    -0.477989     8A1    -0.249722     9A1     0.145343
       4B2     0.163301     4B1     0.163739    10A1     0.170810
       1A2     0.217982    11A1     0.220281     5B1     0.253110
       5B2     0.260378    12A1     0.318084     6B1     0.440798
       6B2     0.444729    13A1     0.721261    14A1     0.858963
       2A2     1.364081    15A1     1.365276     7B2     1.565843
       7B1     1.566906    16A1     2.087248

    Beta Occupied:

       1A1   -89.338885     2A1   -14.782015     3A1    -8.391103
       1B2    -6.355754     4A1    -6.354541     1B1    -6.340560
       5A1    -1.258009     6A1    -0.891400     2B2    -0.707404
       2B1    -0.676894

    Beta Virtual:

       7A1    -0.600487     3B2    -0.442622     3B1    -0.409802
       8A1    -0.213131     4B2     0.161673     9A1     0.163606
       4B1     0.182768    10A1     0.204276     1A2     0.235846
      11A1     0.236000     5B2     0.284475     5B1     0.314129
      12A1     0.376373     6B2     0.473850     6B1     0.491932
      13A1     0.768423    14A1     0.905242     2A2     1.434046
      15A1     1.434054     7B2     1.637837     7B1     1.660968
      16A1     2.171116

    Final Occupation by Irrep:
             A1    A2    B1    B2
    DOCC [     6,    0,    2,    2 ]
    SOCC [     1,    0,    1,    0 ]
    NA   [     7,    0,    3,    2 ]
    NB   [     6,    0,    2,    2 ]

  @DF-UKS Final Energy:  -452.39617048932331

   => Energetics <=

    Nuclear Repulsion Energy =             39.1718185079901104
    One-Electron Energy =                -692.8016828397423978
    Two-Electron Energy =                 227.1507184539348145
    DFT Exchange-Correlation Energy =     -25.9170246115057807
    Empirical Dispersion Energy =           0.0000000000000000
    VV10 Nonlocal Energy =                  0.0000000000000000
    Total Energy =                       -452.3961704893232536

  UHF NO Occupations:
  HONO-2 :    2 B2 1.9812462
  HONO-1 :    7 A1 1.0000000
  HONO-0 :    3 B1 1.0000000
  LUNO+0 :    3 B2 0.0187538
  LUNO+1 :    4 B1 0.0017748
  LUNO+2 :    8 A1 0.0013733
  LUNO+3 :    9 A1 0.0002369

Computation Completed

Properties will be evaluated at   0.000000,   0.000000,   0.000000 [a0]

Properties computed using the SCF density matrix

 Multipole Moments:

 ------------------------------------------------------------------------------------
     Multipole            Electronic (a.u.)      Nuclear  (a.u.)        Total (a.u.)
 ------------------------------------------------------------------------------------

 L = 1.  Multiply by 2.5417464519 to convert [e a0] to [Debye]
 Dipole X            :          0.0000000            0.0000000            0.0000000
 Dipole Y            :          0.0000000            0.0000000            0.0000000
 Dipole Z            :         -0.2167319           -0.0152170           -0.2319489
 Magnitude           :                                                    0.2319489

 ------------------------------------------------------------------------------------

*** tstop() called on Joses-MacBook-Pro-2.local at Thu Jul 17 13:57:14 2025
Module time:
	user time   =       2.29 seconds =       0.04 minutes
	system time =       6.01 seconds =       0.10 minutes
	total time  =          1 seconds =       0.02 minutes
Total time:
	user time   =      33.96 seconds =       0.57 minutes
	system time =      79.31 seconds =       1.32 minutes
	total time  =         12 seconds =       0.20 minutes

*** tstart() called on Joses-MacBook-Pro-2.local
*** at Thu Jul 17 13:57:14 2025

         ------------------------------------------------------------
                                   SCF GRAD
                          Rob Parrish, Justin Turney,
                       Andy Simmonett, and Alex Sokolov
         ------------------------------------------------------------

  ==> Geometry <==

    Molecular point group: c2v
    Full point group: C_inf_v

    Geometry (in Angstrom), charge = 1, multiplicity = 3:

       Center              X                  Y                   Z               Mass
    ------------   -----------------  -----------------  -----------------  -----------------
         N            0.000000000000     0.000000000000     1.052187367973    14.003074004430
         S            0.000000000000     0.000000000000    -0.460835255241    31.972071174400

  Nuclear repulsion =   39.171818507990110

  ==> Basis Set <==

  Basis Set: CC-PVDZ
    Blend: CC-PVDZ
    Number of shells: 14
    Number of basis functions: 32
    Number of Cartesian functions: 34
    Spherical Harmonics?: true
    Max angular momentum: 2

  ==> DFJKGrad: Density-Fitted SCF Gradients <==

    Gradient:                    1
    J tasked:                  Yes
    K tasked:                  Yes
    wK tasked:                  No
    OpenMP threads:              1
    Integrals threads:           1
    Memory [MiB]:              375
    Schwarz Cutoff:          1E-12
    Fitting Condition:       1E-10

   => Auxiliary Basis Set <=

  Basis Set: (CC-PVDZ AUX)
    Blend: CC-PVDZ-JKFIT
    Number of shells: 60
    Number of basis functions: 182
    Number of Cartesian functions: 211
    Spherical Harmonics?: true
    Max angular momentum: 3

  ==> DFT Potential <==

   => LibXC <=

    Version 6.2.2
    S. Lehtola, C. Steigemann, M. J.T. Oliveira, and M. A.L. Marques.,  SoftwareX 7, 1â€“5 (2018) (10.1016/j.softx.2017.11.002)

   => Composite Functional: B3LYP <=

    B3LYP Hyb-GGA Exchange-Correlation Functional

    P. J. Stephens, F. J. Devlin, C. F. Chabalowski, and M. J. Frisch.,  J. Phys. Chem. 98, 11623 (1994) (10.1021/j100096a001)

    Deriv               =              1
    GGA                 =           TRUE
    Meta                =          FALSE

    Exchange Hybrid     =           TRUE
    MP2 Hybrid          =          FALSE

   => Exchange Functionals <=

    0.0800   Slater exchange
    0.7200         Becke 88

   => Exact (HF) Exchange <=

    0.2000               HF

   => Correlation Functionals <=

    0.1900   Vosko, Wilk & Nusair (VWN5_RPA)
    0.8100   Lee, Yang & Parr

   => LibXC Density Thresholds  <==

    XC_HYB_GGA_XC_B3LYP:  1.00E-15

   => Molecular Quadrature <=

    Radial Scheme          =       TREUTLER
    Pruning Scheme         =           NONE
    Nuclear Scheme         =       TREUTLER

    Blocking Scheme        =         OCTREE
    BS radius alpha        =              1
    Pruning alpha          =              1
    Radial Points          =             75
    Spherical Points       =            302
    Total Points           =          41583
    Total Blocks           =            372
    Max Points             =            256
    Max Functions          =             32
    Weights Tolerance      =       1.00E-15

  -Total Gradient:
     Atom            X                  Y                   Z
    ------   -----------------  -----------------  -----------------
       1       -0.000000000000     0.000000000000    -0.000113634594
       2       -0.000000000000     0.000000000000     0.000091355278

*** tstop() called on Joses-MacBook-Pro-2.local at Thu Jul 17 13:57:14 2025
Module time:
	user time   =       1.29 seconds =       0.02 minutes
	system time =       1.63 seconds =       0.03 minutes
	total time  =          0 seconds =       0.00 minutes
Total time:
	user time   =      35.25 seconds =       0.59 minutes
	system time =      80.95 seconds =       1.35 minutes
	total time  =         12 seconds =       0.20 minutes

    			-----------------------------------------

    			 OPTKING 3.0: for geometry optimizations

    			     By R.A. King, Bethel University

    			        with contributions from

    			    A.V. Copan, J. Cayton, A. Heide

    			-----------------------------------------

	                            ===> Fragment 1 <==

	 Z (Atomic Numbers)          Masses                          Geom
	       7.000000            14.003074          0.00000000  0.00000000  1.98834596
	      16.000000            31.972071          0.00000000  0.00000000 -0.87085242

	 - Coordinate -           - BOHR/RAD -       - ANG/DEG -
	 R(1,2)           =         2.859198           1.513023

	        --- Internal Coordinate Step in ANG or DEG, aJ/ANG or AJ/DEG ---
	-------------------------------------------------------------------------------
	           Coordinate      Previous         Force          Change          New
	           ----------      --------        ------          ------        ------
	               R(1,2)       1.51302        0.00084        0.00010       1.51312
	-------------------------------------------------------------------------------

	                                 ==> Convergence Check <==

	Measures of convergence in internal coordinates in au.

	Criteria marked as inactive (o), active & met (*), and active & unmet ( ).

	----------------------------------------------------------------------------------------------
	   Step    Total Energy     Delta E     Max Force     RMS Force      Max Disp      RMS Disp
	----------------------------------------------------------------------------------------------
	  Convergence Criteria     1.00e-06 *    3.00e-04 *             o    1.20e-03 *             o
	----------------------------------------------------------------------------------------------
	    10    -452.39617049   -4.93e-07 *    1.02e-04 *    1.02e-04 o    1.84e-04 *    1.84e-04 o  ~
	----------------------------------------------------------------------------------------------

Next Geometry in Ang
	Fragment 1 (Ang)

	    N   0.0000000000   0.0000000000   1.0522360440
	    S   0.0000000000   0.0000000000  -0.4608839313

    Final optimized geometry and variables:
    Molecular point group: c2v
    Full point group: C_inf_v

    Geometry (in Angstrom), charge = 1, multiplicity = 3:

    N            0.000000000000     0.000000000000     1.052187367973
    S            0.000000000000     0.000000000000    -0.460835255241

    Psi4 stopped on: Thursday, 17 July 2025 01:57PM
    Psi4 wall time for execution: 0:00:12.74

*** Psi4 exiting successfully. Buy a developer a beer!
