                               Psi4 1.9.1 release

  ==> Input File <==

--------------------------------------------------------------------------
molecule {
1 3
Na   0.00000        0.60000        0.00000
Si   0.00000       -0.60000        0.00000
}

set {
basis              cc-pvdz
reference          uks
maxiter            500
geom_maxiter       500
DAMPING_PERCENTAGE 1
guess              SAP
}

optimize('b3lyp')
--------------------------------------------------------------------------

    Molecular point group: c2v
  Charge       = 1
  Multiplicity = 3
  Basis Set: CC-PVDZ
    Blend: CC-PVDZ
  Basis Set: (CC-PVDZ AUX)
    Blend: CC-PVDZ-JKFIT + DEF2-UNIVERSAL-JKFIT
  @DF-UKS Final Energy:  -450.68492996978620
    Total Energy =                       -450.6849299697861966
 Dipole X            :          0.0000000            0.0000000            0.0000000
 Dipole Y            :          0.0000000            0.0000000            0.0000000
 Dipole Z            :          1.7857064           -0.6278248            1.1578817
 Magnitude           :                                                    1.1578817
    Molecular point group: c2v
  Basis Set: CC-PVDZ
    Blend: CC-PVDZ
  Basis Set: (CC-PVDZ AUX)
    Blend: CC-PVDZ-JKFIT + DEF2-UNIVERSAL-JKFIT
  Basis Set: CC-PVDZ
    Blend: CC-PVDZ
  Basis Set: (CC-PVDZ AUX)
    Blend: CC-PVDZ-JKFIT + DEF2-UNIVERSAL-JKFIT
  @DF-UKS Final Energy:  -450.69347826811190
    Total Energy =                       -450.6934782681119032
  Basis Set: CC-PVDZ
    Blend: CC-PVDZ
  Basis Set: (CC-PVDZ AUX)
    Blend: CC-PVDZ-JKFIT + DEF2-UNIVERSAL-JKFIT
  Basis Set: CC-PVDZ
    Blend: CC-PVDZ
  @DF-UKS Final Energy:  -450.71002106173734
    Total Energy =                       -450.7100210617373364
  @DF-UKS Final Energy:  -450.77046450989423
    Total Energy =                       -450.7704645098942251
  @DF-UKS Final Energy:  -451.05264243546219
    Total Energy =                       -451.0526424354622463
  @DF-UKS Final Energy:  -451.21884340880791
    Total Energy =                       -451.2188434088078566
  @DF-UKS Final Energy:  -451.33694228381376
    Total Energy =                       -451.3369422838136984
  @DF-UKS Final Energy:  -451.40434239032010
    Total Energy =                       -451.4043423903200392
  @DF-UKS Final Energy:  -451.43978052961057
    Total Energy =                       -451.4397805296105730
  @DF-UKS Final Energy:  -451.45790224133884
    Total Energy =                       -451.4579022413388429
  @DF-UKS Final Energy:  -451.46760969558278
    Total Energy =                       -451.4676096955827802
  @DF-UKS Final Energy:  -451.47279239649646
    Total Energy =                       -451.4727923964964589
  @DF-UKS Final Energy:  -451.47542628271157
    Total Energy =                       -451.4754262827116236
  @DF-UKS Final Energy:  -451.47675067954742
    Total Energy =                       -451.4767506795474219
  @DF-UKS Final Energy:  -451.47742377752917
    Total Energy =                       -451.4774237775291681
  @DF-UKS Final Energy:  -451.47777985418378
    Total Energy =                       -451.4777798541837797
  @DF-UKS Final Energy:  -451.47799664440311
    Total Energy =                       -451.4779966444030492
  @DF-UKS Final Energy:  -451.47816594483777
    Total Energy =                       -451.4781659448378264
  @DF-UKS Final Energy:  -451.47839625821859
    Total Energy =                       -451.4783962582185382
  @DF-UKS Final Energy:  -451.47839678576679
    Total Energy =                       -451.4783967857667903
  @DF-UKS Final Energy:  -451.47917475296038
    Total Energy =                       -451.4791747529603754
  @DF-UKS Final Energy:  -451.47917545467999
    Total Energy =                       -451.4791754546799893
  @DF-UKS Final Energy:  -451.47917615626761
    Total Energy =                       -451.4791761562676129
  @DF-UKS Final Energy:  -451.47917685776031
    Total Energy =                       -451.4791768577603079
  @DF-UKS Final Energy:  -451.47917755911698
    Total Energy =                       -451.4791775591170335
  @DF-UKS Final Energy:  -451.47917826029413
    Total Energy =                       -451.4791782602941339
  @DF-UKS Final Energy:  -451.47917896140018
    Total Energy =                       -451.4791789614001800
  @DF-UKS Final Energy:  -451.47917966236793
    Total Energy =                       -451.4791796623679261
  @DF-UKS Final Energy:  -451.47918036324393
    Total Energy =                       -451.4791803632439837
  @DF-UKS Final Energy:  -451.47918106396440
    Total Energy =                       -451.4791810639644609
  @DF-UKS Final Energy:  -451.47918176457898
    Total Energy =                       -451.4791817645789820
  @DF-UKS Final Energy:  -451.47918246505134
    Total Energy =                       -451.4791824650513945
  @DF-UKS Final Energy:  -451.47918316539091
    Total Energy =                       -451.4791831653909071
  @DF-UKS Final Energy:  -451.47918386564811
    Total Energy =                       -451.4791838656481104
  @DF-UKS Final Energy:  -451.47918456579242
    Total Energy =                       -451.4791845657924227
  @DF-UKS Final Energy:  -451.47918526579008
    Total Energy =                       -451.4791852657901359
  @DF-UKS Final Energy:  -451.47918596575886
    Total Energy =                       -451.4791859657588589
  @DF-UKS Final Energy:  -451.47918666555495
    Total Energy =                       -451.4791866655549484
  Basis Set: (CC-PVDZ AUX)
    Blend: CC-PVDZ-JKFIT + DEF2-UNIVERSAL-JKFIT
  Basis Set: CC-PVDZ
    Blend: CC-PVDZ
  Basis Set: (CC-PVDZ AUX)
    Blend: CC-PVDZ-JKFIT + DEF2-UNIVERSAL-JKFIT
  @DF-UKS Final Energy:  -451.47948409578731
    Total Energy =                       -451.4794840957873134
  Basis Set: CC-PVDZ
    Blend: CC-PVDZ
  Basis Set: (CC-PVDZ AUX)
    Blend: CC-PVDZ-JKFIT + DEF2-UNIVERSAL-JKFIT
  Charge       = 1
  Multiplicity = 3
  Basis Set: CC-PVDZ
    Blend: CC-PVDZ
  Basis Set: (CC-PVDZ AUX)
    Blend: CC-PVDZ-JKFIT + DEF2-UNIVERSAL-JKFIT

    Orbital Energies [Eh]
    ---------------------

    Alpha Occupied:

       1A1   -66.258138     2A1   -38.774581     3A1    -5.400036
       4A1    -3.761860     1B2    -3.757824     1B1    -3.757824
       5A1    -2.511847     6A1    -1.443021     2B2    -1.442984
       2B1    -1.442984     7A1    -0.540898     3B1    -0.277384
       3B2    -0.277384

    Alpha Virtual:

       8A1    -0.257469     9A1    -0.216468     4B1    -0.149546
       4B2    -0.149546    10A1    -0.146600    11A1    -0.066909
       5B1    -0.047686     5B2    -0.047686    12A1    -0.046899
      13A1     0.009381    14A1     0.009887     1A2     0.009887
       6B2     0.011531     6B1     0.011531    15A1     0.173668
       7B1     0.217408     7B2     0.217408    16A1     0.240774
      17A1     0.252061     2A2     0.252104     8B1     0.256638
       8B2     0.256638    18A1     0.266218

    Beta Occupied:

       1A1   -66.252197     2A1   -38.774581     3A1    -5.393399
       4A1    -3.758540     1B2    -3.745041     1B1    -3.745041
       5A1    -2.511846     6A1    -1.443020     2B2    -1.442984
       2B1    -1.442984     7A1    -0.476035

    Beta Virtual:

       8A1    -0.257662     9A1    -0.200067     3B1    -0.161930
       3B2    -0.161930     4B2    -0.148514     4B1    -0.148514
      10A1    -0.146977    11A1    -0.064770    12A1    -0.046969
       5B1    -0.046161     5B2    -0.046161    13A1     0.008840
       1A2     0.009997    14A1     0.009998     6B2     0.010518
       6B1     0.010518    15A1     0.196803    16A1     0.248760
       7B1     0.256369     7B2     0.256369    17A1     0.294722
       8B1     0.302676     8B2     0.302676    18A1     0.331346
       2A2     0.331386

    Final Occupation by Irrep:
             A1    A2    B1    B2
    DOCC [     7,    0,    2,    2 ]
    SOCC [     0,    0,    1,    1 ]
    NA   [     7,    0,    3,    3 ]
    NB   [     7,    0,    2,    2 ]

  @DF-UKS Final Energy:  -451.47948465163330

   => Energetics <=

    Nuclear Repulsion Energy =             13.5011111143853153
    One-Electron Energy =                -651.1400987841102506
    Two-Electron Energy =                 214.4532553860012456
    DFT Exchange-Correlation Energy =     -28.2937523679096508
    Empirical Dispersion Energy =           0.0000000000000000
    VV10 Nonlocal Energy =                  0.0000000000000000
    Total Energy =                       -451.4794846516332427

  UHF NO Occupations:
  HONO-2 :    7 A1 1.9983599
  HONO-1 :    3 B2 1.0000000
  HONO-0 :    3 B1 1.0000000
  LUNO+0 :    8 A1 0.0016401
  LUNO+1 :    9 A1 0.0000000
  LUNO+2 :   10 A1 0.0000000
  LUNO+3 :    4 B2 0.0000000

Computation Completed

Properties will be evaluated at   0.000000,   0.000000,   0.000000 [a0]

Properties computed using the SCF density matrix

 Multipole Moments:

 ------------------------------------------------------------------------------------
     Multipole            Electronic (a.u.)      Nuclear  (a.u.)        Total (a.u.)
 ------------------------------------------------------------------------------------

 L = 1.  Multiply by 2.5417464519 to convert [e a0] to [Debye]
 Dipole X            :          0.0000000            0.0000000            0.0000000
 Dipole Y            :          0.0000000            0.0000000            0.0000000
 Dipole Z            :          9.2524513           -3.1579812            6.0944701
 Magnitude           :                                                    6.0944701

 ------------------------------------------------------------------------------------

*** tstop() called on Joses-MacBook-Pro-2.local at Thu Jul 17 14:53:26 2025
Module time:
	user time   =       4.23 seconds =       0.07 minutes
	system time =       2.73 seconds =       0.05 minutes
	total time  =          1 seconds =       0.02 minutes
Total time:
	user time   =    1222.62 seconds =      20.38 minutes
	system time =     513.49 seconds =       8.56 minutes
	total time  =        166 seconds =       2.77 minutes

*** tstart() called on Joses-MacBook-Pro-2.local
*** at Thu Jul 17 14:53:26 2025

         ------------------------------------------------------------
                                   SCF GRAD
                          Rob Parrish, Justin Turney,
                       Andy Simmonett, and Alex Sokolov
         ------------------------------------------------------------

  ==> Geometry <==

    Molecular point group: c2v
    Full point group: C_inf_v

    Geometry (in Angstrom), charge = 1, multiplicity = 3:

       Center              X                  Y                   Z               Mass
    ------------   -----------------  -----------------  -----------------  -----------------
         NA           0.000000000000     0.000000000000     3.313338946439    22.989769282000
         SI           0.000000000000     0.000000000000    -2.722704291243    27.976926534650

  Nuclear repulsion =   13.501111114385315

  ==> Basis Set <==

  Basis Set: CC-PVDZ
    Blend: CC-PVDZ
    Number of shells: 16
    Number of basis functions: 36
    Number of Cartesian functions: 38
    Spherical Harmonics?: true
    Max angular momentum: 2

  ==> DFJKGrad: Density-Fitted SCF Gradients <==

    Gradient:                    1
    J tasked:                  Yes
    K tasked:                  Yes
    wK tasked:                  No
    OpenMP threads:              1
    Integrals threads:           1
    Memory [MiB]:              375
    Schwarz Cutoff:          1E-12
    Fitting Condition:       1E-10

   => Auxiliary Basis Set <=

  Basis Set: (CC-PVDZ AUX)
    Blend: CC-PVDZ-JKFIT + DEF2-UNIVERSAL-JKFIT
    Number of shells: 70
    Number of basis functions: 224
    Number of Cartesian functions: 267
    Spherical Harmonics?: true
    Max angular momentum: 4

  ==> DFT Potential <==

   => LibXC <=

    Version 6.2.2
    S. Lehtola, C. Steigemann, M. J.T. Oliveira, and M. A.L. Marques.,  SoftwareX 7, 1â€“5 (2018) (10.1016/j.softx.2017.11.002)

   => Composite Functional: B3LYP <=

    B3LYP Hyb-GGA Exchange-Correlation Functional

    P. J. Stephens, F. J. Devlin, C. F. Chabalowski, and M. J. Frisch.,  J. Phys. Chem. 98, 11623 (1994) (10.1021/j100096a001)

    Deriv               =              1
    GGA                 =           TRUE
    Meta                =          FALSE

    Exchange Hybrid     =           TRUE
    MP2 Hybrid          =          FALSE

   => Exchange Functionals <=

    0.0800   Slater exchange
    0.7200         Becke 88

   => Exact (HF) Exchange <=

    0.2000               HF

   => Correlation Functionals <=

    0.1900   Vosko, Wilk & Nusair (VWN5_RPA)
    0.8100   Lee, Yang & Parr

   => LibXC Density Thresholds  <==

    XC_HYB_GGA_XC_B3LYP:  1.00E-15

   => Molecular Quadrature <=

    Radial Scheme          =       TREUTLER
    Pruning Scheme         =           NONE
    Nuclear Scheme         =       TREUTLER

    Blocking Scheme        =         OCTREE
    BS radius alpha        =              1
    Pruning alpha          =              1
    Radial Points          =             75
    Spherical Points       =            302
    Total Points           =          43931
    Total Blocks           =            474
    Max Points             =            256
    Max Functions          =             36
    Weights Tolerance      =       1.00E-15

  -Total Gradient:
     Atom            X                  Y                   Z
    ------   -----------------  -----------------  -----------------
       1        0.000000000000    -0.000000000000    -0.000287897096
       2        0.000000000000    -0.000000000000     0.000292493912

*** tstop() called on Joses-MacBook-Pro-2.local at Thu Jul 17 14:53:27 2025
Module time:
	user time   =       3.02 seconds =       0.05 minutes
	system time =       1.60 seconds =       0.03 minutes
	total time  =          1 seconds =       0.02 minutes
Total time:
	user time   =    1225.64 seconds =      20.43 minutes
	system time =     515.10 seconds =       8.59 minutes
	total time  =        167 seconds =       2.78 minutes

    			-----------------------------------------

    			 OPTKING 3.0: for geometry optimizations

    			     By R.A. King, Bethel University

    			        with contributions from

    			    A.V. Copan, J. Cayton, A. Heide

    			-----------------------------------------

	                            ===> Fragment 1 <==

	 Z (Atomic Numbers)          Masses                          Geom
	      11.000000            22.989769          0.00000000  0.00000000  6.26130317
	      14.000000            27.976927          0.00000000  0.00000000 -5.14516543

	 - Coordinate -           - BOHR/RAD -       - ANG/DEG -
	 R(1,2)           =        11.406469           6.036043

	        --- Internal Coordinate Step in ANG or DEG, aJ/ANG or AJ/DEG ---
	-------------------------------------------------------------------------------
	           Coordinate      Previous         Force          Change          New
	           ----------      --------        ------          ------        ------
	               R(1,2)       6.03604        0.00239        0.00103       6.03707
	-------------------------------------------------------------------------------

	                                 ==> Convergence Check <==

	Measures of convergence in internal coordinates in au.

	Criteria marked as inactive (o), active & met (*), and active & unmet ( ).

	----------------------------------------------------------------------------------------------
	   Step    Total Energy     Delta E     Max Force     RMS Force      Max Disp      RMS Disp
	----------------------------------------------------------------------------------------------
	  Convergence Criteria     1.00e-06 *    3.00e-04 *             o    1.20e-03 *             o
	----------------------------------------------------------------------------------------------
	   133    -451.47948465   -5.56e-07 *    2.90e-04 *    2.90e-04 o    1.94e-03      1.94e-03 o  ~
	----------------------------------------------------------------------------------------------

Next Geometry in Ang
	Fragment 1 (Ang)

	   Na   0.0000000000   0.0000000000   3.3138515537
	   Si   0.0000000000   0.0000000000  -2.7232168985

    Final optimized geometry and variables:
    Molecular point group: c2v
    Full point group: C_inf_v

    Geometry (in Angstrom), charge = 1, multiplicity = 3:

    NA           0.000000000000     0.000000000000     3.313338946439
    SI           0.000000000000     0.000000000000    -2.722704291243

    Psi4 stopped on: Thursday, 17 July 2025 02:53PM
    Psi4 wall time for execution: 0:02:47.14

*** Psi4 exiting successfully. Buy a developer a beer!
