                               Psi4 1.9.1 release

  ==> Input File <==

--------------------------------------------------------------------------
molecule {
1 3
Ne   0.00000        0.60000        0.00000
Na   0.00000       -0.60000        0.00000
}

set {
basis              cc-pvdz
reference          uks
maxiter            500
geom_maxiter       500
DAMPING_PERCENTAGE 1
guess              SAP
}

optimize('b3lyp')
--------------------------------------------------------------------------

    Molecular point group: c2v
  Charge       = 1
  Multiplicity = 3
  Basis Set: CC-PVDZ
    Blend: CC-PVDZ
  Basis Set: (CC-PVDZ AUX)
    Blend: CC-PVDZ-JKFIT + DEF2-UNIVERSAL-JKFIT
  @DF-UKS Final Energy:  -289.95469254326997
    Total Energy =                       -289.9546925432699140
 Dipole X            :          0.0000000            0.0000000            0.0000000
 Dipole Y            :          0.0000000            0.0000000            0.0000000
 Dipole Z            :         -0.3906669            0.5265734            0.1359065
 Magnitude           :                                                    0.1359065
    Molecular point group: c2v
  Basis Set: CC-PVDZ
    Blend: CC-PVDZ
  Basis Set: (CC-PVDZ AUX)
    Blend: CC-PVDZ-JKFIT + DEF2-UNIVERSAL-JKFIT
  Basis Set: CC-PVDZ
    Blend: CC-PVDZ
  Basis Set: (CC-PVDZ AUX)
    Blend: CC-PVDZ-JKFIT + DEF2-UNIVERSAL-JKFIT
  @DF-UKS Final Energy:  -290.11327425351521
    Total Energy =                       -290.1132742535151579
  Basis Set: CC-PVDZ
    Blend: CC-PVDZ
  Basis Set: (CC-PVDZ AUX)
    Blend: CC-PVDZ-JKFIT + DEF2-UNIVERSAL-JKFIT
  Basis Set: CC-PVDZ
    Blend: CC-PVDZ
  @DF-UKS Final Energy:  -290.21853616071218
    Total Energy =                       -290.2185361607121763
  @DF-UKS Final Energy:  -290.27412553274019
    Total Energy =                       -290.2741255327401291
  @DF-UKS Final Energy:  -290.31550524857585
    Total Energy =                       -290.3155052485759029
  @DF-UKS Final Energy:  -290.35040493856786
    Total Energy =                       -290.3504049385678627
  @DF-UKS Final Energy:  -290.38778618109615
    Total Energy =                       -290.3877861810960894
  @DF-UKS Final Energy:  -290.39439393619944
    Total Energy =                       -290.3943939361993785
  @DF-UKS Final Energy:  -290.42259034313548
    Total Energy =                       -290.4225903431355391
  @DF-UKS Final Energy:  -290.42501622461020
    Total Energy =                       -290.4250162246102036
  @DF-UKS Final Energy:  -290.43685624783012
    Total Energy =                       -290.4368562478300646
  @DF-UKS Final Energy:  -290.43740193732765
    Total Energy =                       -290.4374019373276496
  @DF-UKS Final Energy:  -290.44099201664778
    Total Energy =                       -290.4409920166477832
  @DF-UKS Final Energy:  -290.44159310148456
    Total Energy =                       -290.4415931014845569
  @DF-UKS Final Energy:  -290.44166674296434
    Total Energy =                       -290.4416667429642871
  Basis Set: (CC-PVDZ AUX)
    Blend: CC-PVDZ-JKFIT + DEF2-UNIVERSAL-JKFIT
  Basis Set: CC-PVDZ
    Blend: CC-PVDZ
  Basis Set: (CC-PVDZ AUX)
    Blend: CC-PVDZ-JKFIT + DEF2-UNIVERSAL-JKFIT
  @DF-UKS Final Energy:  -290.44167112216672
    Total Energy =                       -290.4416711221667242
  Basis Set: CC-PVDZ
    Blend: CC-PVDZ
  Basis Set: (CC-PVDZ AUX)
    Blend: CC-PVDZ-JKFIT + DEF2-UNIVERSAL-JKFIT
  Charge       = 1
  Multiplicity = 3
  Basis Set: CC-PVDZ
    Blend: CC-PVDZ
  Basis Set: (CC-PVDZ AUX)
    Blend: CC-PVDZ-JKFIT + DEF2-UNIVERSAL-JKFIT

    Orbital Energies [Eh]
    ---------------------

    Alpha Occupied:

       1A1   -38.645175     2A1   -31.791237     3A1    -2.390207
       4A1    -2.158761     5A1    -1.331141     6A1    -1.321183
       1B2    -1.321048     1B1    -1.321048     2B1    -1.221392
       2B2    -1.221392     7A1    -0.301368

    Alpha Virtual:

       8A1    -0.164354     3B1    -0.146836     3B2    -0.146836
       9A1    -0.101268     4B2    -0.038400     4B1    -0.038400
      10A1    -0.036803    11A1     0.009361     5B1     0.012660
       5B2     0.012660     1A2     0.032198    12A1     0.032198
      13A1     0.826470     6B1     0.828614     6B2     0.828614
      14A1     1.341974    15A1     3.942310     7B2     3.966980
       7B1     3.966980     2A2     4.048732    16A1     4.049515

    Beta Occupied:

       1A1   -38.643837     2A1   -31.750532     3A1    -2.387651
       4A1    -2.049861     1B2    -1.319513     1B1    -1.319513
       5A1    -1.318789     2B1    -1.181278     2B2    -1.181278

    Beta Virtual:

       6A1    -0.968813     7A1    -0.223605     8A1    -0.153503
       3B2    -0.124704     3B1    -0.124704     9A1    -0.074386
      10A1    -0.030971     4B2    -0.028208     4B1    -0.028208
      11A1     0.027638     5B1     0.032632     5B2     0.032632
      12A1     0.045693     1A2     0.045704     6B1     0.847116
       6B2     0.847116    13A1     0.936221    14A1     1.396667
       2A2     4.068089    15A1     4.068813     7B2     4.081705
       7B1     4.081705    16A1     4.106785

    Final Occupation by Irrep:
             A1    A2    B1    B2
    DOCC [     5,    0,    2,    2 ]
    SOCC [     2,    0,    0,    0 ]
    NA   [     7,    0,    2,    2 ]
    NB   [     5,    0,    2,    2 ]

  @DF-UKS Final Energy:  -290.44167162091117

   => Energetics <=

    Nuclear Repulsion Energy =             17.3722422223932611
    One-Electron Energy =                -436.2002140582818015
    Two-Electron Energy =                 149.6976920654313119
    DFT Exchange-Correlation Energy =     -21.3113918504539619
    Empirical Dispersion Energy =           0.0000000000000000
    VV10 Nonlocal Energy =                  0.0000000000000000
    Total Energy =                       -290.4416716209112224

  UHF NO Occupations:
  HONO-2 :    5 A1 1.9997358
  HONO-1 :    6 A1 1.0000000
  HONO-0 :    7 A1 1.0000000
  LUNO+0 :    8 A1 0.0002642
  LUNO+1 :    3 B1 0.0000458
  LUNO+2 :    3 B2 0.0000458
  LUNO+3 :    9 A1 0.0000012

Computation Completed

Properties will be evaluated at   0.000000,   0.000000,   0.000000 [a0]

Properties computed using the SCF density matrix

 Multipole Moments:

 ------------------------------------------------------------------------------------
     Multipole            Electronic (a.u.)      Nuclear  (a.u.)        Total (a.u.)
 ------------------------------------------------------------------------------------

 L = 1.  Multiply by 2.5417464519 to convert [e a0] to [Debye]
 Dipole X            :          0.0000000            0.0000000            0.0000000
 Dipole Y            :          0.0000000            0.0000000            0.0000000
 Dipole Z            :         -0.3732259            1.4703328            1.0971069
 Magnitude           :                                                    1.0971069

 ------------------------------------------------------------------------------------

*** tstop() called on Joses-MacBook-Pro-2.local at Thu Jul 17 14:37:52 2025
Module time:
	user time   =       2.13 seconds =       0.04 minutes
	system time =       3.72 seconds =       0.06 minutes
	total time  =          1 seconds =       0.02 minutes
Total time:
	user time   =      61.80 seconds =       1.03 minutes
	system time =      96.59 seconds =       1.61 minutes
	total time  =         16 seconds =       0.27 minutes

*** tstart() called on Joses-MacBook-Pro-2.local
*** at Thu Jul 17 14:37:52 2025

         ------------------------------------------------------------
                                   SCF GRAD
                          Rob Parrish, Justin Turney,
                       Andy Simmonett, and Alex Sokolov
         ------------------------------------------------------------

  ==> Geometry <==

    Molecular point group: c2v
    Full point group: C_inf_v

    Geometry (in Angstrom), charge = 1, multiplicity = 3:

       Center              X                  Y                   Z               Mass
    ------------   -----------------  -----------------  -----------------  -----------------
         NE           0.000000000000     0.000000000000     1.792189045516    19.992440176200
         NA           0.000000000000     0.000000000000    -1.558529441397    22.989769282000

  Nuclear repulsion =   17.372242222393261

  ==> Basis Set <==

  Basis Set: CC-PVDZ
    Blend: CC-PVDZ
    Number of shells: 14
    Number of basis functions: 32
    Number of Cartesian functions: 34
    Spherical Harmonics?: true
    Max angular momentum: 2

  ==> DFJKGrad: Density-Fitted SCF Gradients <==

    Gradient:                    1
    J tasked:                  Yes
    K tasked:                  Yes
    wK tasked:                  No
    OpenMP threads:              1
    Integrals threads:           1
    Memory [MiB]:              375
    Schwarz Cutoff:          1E-12
    Fitting Condition:       1E-10

   => Auxiliary Basis Set <=

  Basis Set: (CC-PVDZ AUX)
    Blend: CC-PVDZ-JKFIT + DEF2-UNIVERSAL-JKFIT
    Number of shells: 58
    Number of basis functions: 182
    Number of Cartesian functions: 218
    Spherical Harmonics?: true
    Max angular momentum: 4

  ==> DFT Potential <==

   => LibXC <=

    Version 6.2.2
    S. Lehtola, C. Steigemann, M. J.T. Oliveira, and M. A.L. Marques.,  SoftwareX 7, 1â€“5 (2018) (10.1016/j.softx.2017.11.002)

   => Composite Functional: B3LYP <=

    B3LYP Hyb-GGA Exchange-Correlation Functional

    P. J. Stephens, F. J. Devlin, C. F. Chabalowski, and M. J. Frisch.,  J. Phys. Chem. 98, 11623 (1994) (10.1021/j100096a001)

    Deriv               =              1
    GGA                 =           TRUE
    Meta                =          FALSE

    Exchange Hybrid     =           TRUE
    MP2 Hybrid          =          FALSE

   => Exchange Functionals <=

    0.0800   Slater exchange
    0.7200         Becke 88

   => Exact (HF) Exchange <=

    0.2000               HF

   => Correlation Functionals <=

    0.1900   Vosko, Wilk & Nusair (VWN5_RPA)
    0.8100   Lee, Yang & Parr

   => LibXC Density Thresholds  <==

    XC_HYB_GGA_XC_B3LYP:  1.00E-15

   => Molecular Quadrature <=

    Radial Scheme          =       TREUTLER
    Pruning Scheme         =           NONE
    Nuclear Scheme         =       TREUTLER

    Blocking Scheme        =         OCTREE
    BS radius alpha        =              1
    Pruning alpha          =              1
    Radial Points          =             75
    Spherical Points       =            302
    Total Points           =          43866
    Total Blocks           =            427
    Max Points             =            253
    Max Functions          =             32
    Weights Tolerance      =       1.00E-15

  -Total Gradient:
     Atom            X                  Y                   Z
    ------   -----------------  -----------------  -----------------
       1        0.000000000000    -0.000000000000     0.000085665631
       2       -0.000000000000     0.000000000000     0.000097925638

*** tstop() called on Joses-MacBook-Pro-2.local at Thu Jul 17 14:37:52 2025
Module time:
	user time   =       1.08 seconds =       0.02 minutes
	system time =       2.03 seconds =       0.03 minutes
	total time  =          0 seconds =       0.00 minutes
Total time:
	user time   =      62.88 seconds =       1.05 minutes
	system time =      98.63 seconds =       1.64 minutes
	total time  =         16 seconds =       0.27 minutes

    			-----------------------------------------

    			 OPTKING 3.0: for geometry optimizations

    			     By R.A. King, Bethel University

    			        with contributions from

    			    A.V. Copan, J. Cayton, A. Heide

    			-----------------------------------------

	                            ===> Fragment 1 <==

	 Z (Atomic Numbers)          Masses                          Geom
	      10.000000            19.992440          0.00000000  0.00000000  3.38674646
	      11.000000            22.989769          0.00000000  0.00000000 -2.94519380

	 - Coordinate -           - BOHR/RAD -       - ANG/DEG -
	 R(1,2)           =         6.331940           3.350718

	        --- Internal Coordinate Step in ANG or DEG, aJ/ANG or AJ/DEG ---
	-------------------------------------------------------------------------------
	           Coordinate      Previous         Force          Change          New
	           ----------      --------        ------          ------        ------
	               R(1,2)       3.35072        0.00005        0.00027       3.35099
	-------------------------------------------------------------------------------

	                                 ==> Convergence Check <==

	Measures of convergence in internal coordinates in au.

	Criteria marked as inactive (o), active & met (*), and active & unmet ( ).

	----------------------------------------------------------------------------------------------
	   Step    Total Energy     Delta E     Max Force     RMS Force      Max Disp      RMS Disp
	----------------------------------------------------------------------------------------------
	  Convergence Criteria     1.00e-06 *    3.00e-04 *             o    1.20e-03 *             o
	----------------------------------------------------------------------------------------------
	    17    -290.44167162   -4.99e-07 *    6.13e-06 *    6.13e-06 o    5.07e-04 *    5.07e-04 o  ~
	----------------------------------------------------------------------------------------------

Next Geometry in Ang
	Fragment 1 (Ang)

	   Ne   0.0000000000   0.0000000000   1.7923232973
	   Na   0.0000000000   0.0000000000  -1.5586636932

    Final optimized geometry and variables:
    Molecular point group: c2v
    Full point group: C_inf_v

    Geometry (in Angstrom), charge = 1, multiplicity = 3:

    NE           0.000000000000     0.000000000000     1.792189045516
    NA           0.000000000000     0.000000000000    -1.558529441397

    Psi4 stopped on: Thursday, 17 July 2025 02:37PM
    Psi4 wall time for execution: 0:00:17.03

*** Psi4 exiting successfully. Buy a developer a beer!
