                               Psi4 1.9.1 release

  ==> Input File <==

--------------------------------------------------------------------------
molecule {
1 3
Na   0.00000        0.60000        0.00000
Ar   0.00000       -0.60000        0.00000
}

set {
basis              cc-pvdz
reference          uks
maxiter            500
geom_maxiter       500
DAMPING_PERCENTAGE 1
guess              SAP
}

optimize('b3lyp')
--------------------------------------------------------------------------

    Molecular point group: c2v
  Charge       = 1
  Multiplicity = 3
  Basis Set: CC-PVDZ
    Blend: CC-PVDZ
  Basis Set: (CC-PVDZ AUX)
    Blend: CC-PVDZ-JKFIT + DEF2-UNIVERSAL-JKFIT
  @DF-UKS Final Energy:  -688.17073024685305
    Total Energy =                       -688.1707302468531680
 Dipole X            :          0.0000000            0.0000000            0.0000000
 Dipole Y            :          0.0000000            0.0000000            0.0000000
 Dipole Z            :         -1.3116141            0.9283038           -0.3833103
 Magnitude           :                                                    0.3833103
    Molecular point group: c2v
  Basis Set: CC-PVDZ
    Blend: CC-PVDZ
  Basis Set: (CC-PVDZ AUX)
    Blend: CC-PVDZ-JKFIT + DEF2-UNIVERSAL-JKFIT
  Basis Set: CC-PVDZ
    Blend: CC-PVDZ
  Basis Set: (CC-PVDZ AUX)
    Blend: CC-PVDZ-JKFIT + DEF2-UNIVERSAL-JKFIT
  @DF-UKS Final Energy:  -688.18918489490898
    Total Energy =                       -688.1891848949089763
  Basis Set: CC-PVDZ
    Blend: CC-PVDZ
  Basis Set: (CC-PVDZ AUX)
    Blend: CC-PVDZ-JKFIT + DEF2-UNIVERSAL-JKFIT
  Basis Set: CC-PVDZ
    Blend: CC-PVDZ
  @DF-UKS Final Energy:  -688.22442644224429
    Total Energy =                       -688.2244264422442939
  @DF-UKS Final Energy:  -688.34840022334095
    Total Energy =                       -688.3484002233409456
  @DF-UKS Final Energy:  -688.79133320471612
    Total Energy =                       -688.7913332047162385
  @DF-UKS Final Energy:  -688.95130585453535
    Total Energy =                       -688.9513058545353488
  @DF-UKS Final Energy:  -689.05638853398466
    Total Energy =                       -689.0563885339846593
  @DF-UKS Final Energy:  -689.12429392616241
    Total Energy =                       -689.1242939261625224
  @DF-UKS Final Energy:  -689.16941136418757
    Total Energy =                       -689.1694113641875674
  @DF-UKS Final Energy:  -689.20447541934345
    Total Energy =                       -689.2044754193434528
  @DF-UKS Final Energy:  -689.23268936302236
    Total Energy =                       -689.2326893630223594
  @DF-UKS Final Energy:  -689.23474388905106
    Total Energy =                       -689.2347438890510603
  @DF-UKS Final Energy:  -689.25388270408166
    Total Energy =                       -689.2538827040817750
  @DF-UKS Final Energy:  -689.25460905235855
    Total Energy =                       -689.2546090523585463
  @DF-UKS Final Energy:  -689.26319157607816
    Total Energy =                       -689.2631915760782704
  @DF-UKS Final Energy:  -689.26337605195135
    Total Energy =                       -689.2633760519513544
  @DF-UKS Final Energy:  -689.26648321784603
    Total Energy =                       -689.2664832178460301
  @DF-UKS Final Energy:  -689.26651263162228
    Total Energy =                       -689.2665126316222768
  @DF-UKS Final Energy:  -689.26723051684826
    Total Energy =                       -689.2672305168482580
  @DF-UKS Final Energy:  -689.26728730690138
    Total Energy =                       -689.2672873069013804
  Basis Set: (CC-PVDZ AUX)
    Blend: CC-PVDZ-JKFIT + DEF2-UNIVERSAL-JKFIT
  Basis Set: CC-PVDZ
    Blend: CC-PVDZ
  Basis Set: (CC-PVDZ AUX)
    Blend: CC-PVDZ-JKFIT + DEF2-UNIVERSAL-JKFIT
  @DF-UKS Final Energy:  -689.26729036808149
    Total Energy =                       -689.2672903680814898
  Basis Set: CC-PVDZ
    Blend: CC-PVDZ
  Basis Set: (CC-PVDZ AUX)
    Blend: CC-PVDZ-JKFIT + DEF2-UNIVERSAL-JKFIT
  Charge       = 1
  Multiplicity = 3
  Basis Set: CC-PVDZ
    Blend: CC-PVDZ
  Basis Set: (CC-PVDZ AUX)
    Blend: CC-PVDZ-JKFIT + DEF2-UNIVERSAL-JKFIT

    Orbital Energies [Eh]
    ---------------------

    Alpha Occupied:

       1A1  -115.593961     2A1   -38.621273     3A1   -11.620231
       4A1    -9.192947     1B2    -9.162851     1B1    -9.162851
       5A1    -2.365974     6A1    -1.416769     2B2    -1.296863
       2B1    -1.296863     7A1    -1.296787     8A1    -0.894287
       3B2    -0.829317     3B1    -0.829317     9A1    -0.271601

    Alpha Virtual:

      10A1    -0.149574     4B1    -0.134126     4B2    -0.134126
      11A1    -0.087705     5B1    -0.029027     5B2    -0.029027
      12A1    -0.028686    13A1     0.020969     6B2     0.026750
       6B1     0.026750     1A2     0.044102    14A1     0.044102
       7B2     0.267986     7B1     0.267986    15A1     0.271033
      16A1     0.370046     8B2     0.378507     8B1     0.378507
      17A1     0.426441     2A2     0.426475    18A1     0.477592

    Beta Occupied:

       1A1  -115.584799     2A1   -38.619915     3A1   -11.611438
       4A1    -9.164290     1B2    -9.157514     1B1    -9.157514
       5A1    -2.363329     6A1    -1.353261     2B2    -1.295220
       2B1    -1.295220     7A1    -1.294591     3B2    -0.809268
       3B1    -0.809268

    Beta Virtual:

       8A1    -0.702069     9A1    -0.200024    10A1    -0.136001
       4B2    -0.111143     4B1    -0.111143    11A1    -0.060463
      12A1    -0.021574     5B2    -0.017599     5B1    -0.017599
      13A1     0.042195     6B1     0.050770     6B2     0.050770
      14A1     0.062634     1A2     0.062635     7B2     0.275062
       7B1     0.275062    15A1     0.312575    16A1     0.437026
       2A2     0.437062     8B2     0.445760     8B1     0.445760
      17A1     0.460117    18A1     0.505409

    Final Occupation by Irrep:
             A1    A2    B1    B2
    DOCC [     7,    0,    3,    3 ]
    SOCC [     2,    0,    0,    0 ]
    NA   [     9,    0,    3,    3 ]
    NB   [     7,    0,    3,    3 ]

  @DF-UKS Final Energy:  -689.26729051327891

   => Energetics <=

    Nuclear Repulsion Energy =             26.0935365432664312
    One-Electron Energy =                -998.5797509108108443
    Two-Electron Energy =                 319.4386607186559104
    DFT Exchange-Correlation Energy =     -36.2197368643903701
    Empirical Dispersion Energy =           0.0000000000000000
    VV10 Nonlocal Energy =                  0.0000000000000000
    Total Energy =                       -689.2672905132789083

  UHF NO Occupations:
  HONO-2 :    7 A1 1.9991758
  HONO-1 :    8 A1 1.0000000
  HONO-0 :    9 A1 1.0000000
  LUNO+0 :   10 A1 0.0008242
  LUNO+1 :    4 B2 0.0000298
  LUNO+2 :    4 B1 0.0000298
  LUNO+3 :   11 A1 0.0000013

Computation Completed

Properties will be evaluated at   0.000000,   0.000000,   0.000000 [a0]

Properties computed using the SCF density matrix

 Multipole Moments:

 ------------------------------------------------------------------------------------
     Multipole            Electronic (a.u.)      Nuclear  (a.u.)        Total (a.u.)
 ------------------------------------------------------------------------------------

 L = 1.  Multiply by 2.5417464519 to convert [e a0] to [Debye]
 Dipole X            :          0.0000000            0.0000000            0.0000000
 Dipole Y            :          0.0000000            0.0000000            0.0000000
 Dipole Z            :         -3.8969454            3.1062919           -0.7906534
 Magnitude           :                                                    0.7906534

 ------------------------------------------------------------------------------------

*** tstop() called on Joses-MacBook-Pro-2.local at Thu Jul 17 15:02:17 2025
Module time:
	user time   =       5.70 seconds =       0.10 minutes
	system time =       2.36 seconds =       0.04 minutes
	total time  =          1 seconds =       0.02 minutes
Total time:
	user time   =     229.10 seconds =       3.82 minutes
	system time =      70.47 seconds =       1.17 minutes
	total time  =         29 seconds =       0.48 minutes

*** tstart() called on Joses-MacBook-Pro-2.local
*** at Thu Jul 17 15:02:17 2025

         ------------------------------------------------------------
                                   SCF GRAD
                          Rob Parrish, Justin Turney,
                       Andy Simmonett, and Alex Sokolov
         ------------------------------------------------------------

  ==> Geometry <==

    Molecular point group: c2v
    Full point group: C_inf_v

    Geometry (in Angstrom), charge = 1, multiplicity = 3:

       Center              X                  Y                   Z               Mass
    ------------   -----------------  -----------------  -----------------  -----------------
         NA           0.000000000000     0.000000000000     2.549025464062    22.989769282000
         AR           0.000000000000     0.000000000000    -1.466416733240    39.962383123700

  Nuclear repulsion =   26.093536543266435

  ==> Basis Set <==

  Basis Set: CC-PVDZ
    Blend: CC-PVDZ
    Number of shells: 16
    Number of basis functions: 36
    Number of Cartesian functions: 38
    Spherical Harmonics?: true
    Max angular momentum: 2

  ==> DFJKGrad: Density-Fitted SCF Gradients <==

    Gradient:                    1
    J tasked:                  Yes
    K tasked:                  Yes
    wK tasked:                  No
    OpenMP threads:              1
    Integrals threads:           1
    Memory [MiB]:              375
    Schwarz Cutoff:          1E-12
    Fitting Condition:       1E-10

   => Auxiliary Basis Set <=

  Basis Set: (CC-PVDZ AUX)
    Blend: CC-PVDZ-JKFIT + DEF2-UNIVERSAL-JKFIT
    Number of shells: 70
    Number of basis functions: 224
    Number of Cartesian functions: 267
    Spherical Harmonics?: true
    Max angular momentum: 4

  ==> DFT Potential <==

   => LibXC <=

    Version 6.2.2
    S. Lehtola, C. Steigemann, M. J.T. Oliveira, and M. A.L. Marques.,  SoftwareX 7, 1â€“5 (2018) (10.1016/j.softx.2017.11.002)

   => Composite Functional: B3LYP <=

    B3LYP Hyb-GGA Exchange-Correlation Functional

    P. J. Stephens, F. J. Devlin, C. F. Chabalowski, and M. J. Frisch.,  J. Phys. Chem. 98, 11623 (1994) (10.1021/j100096a001)

    Deriv               =              1
    GGA                 =           TRUE
    Meta                =          FALSE

    Exchange Hybrid     =           TRUE
    MP2 Hybrid          =          FALSE

   => Exchange Functionals <=

    0.0800   Slater exchange
    0.7200         Becke 88

   => Exact (HF) Exchange <=

    0.2000               HF

   => Correlation Functionals <=

    0.1900   Vosko, Wilk & Nusair (VWN5_RPA)
    0.8100   Lee, Yang & Parr

   => LibXC Density Thresholds  <==

    XC_HYB_GGA_XC_B3LYP:  1.00E-15

   => Molecular Quadrature <=

    Radial Scheme          =       TREUTLER
    Pruning Scheme         =           NONE
    Nuclear Scheme         =       TREUTLER

    Blocking Scheme        =         OCTREE
    BS radius alpha        =              1
    Pruning alpha          =              1
    Radial Points          =             75
    Spherical Points       =            302
    Total Points           =          43903
    Total Blocks           =            457
    Max Points             =            256
    Max Functions          =             36
    Weights Tolerance      =       1.00E-15

  -Total Gradient:
     Atom            X                  Y                   Z
    ------   -----------------  -----------------  -----------------
       1       -0.000000000000     0.000000000000    -0.000009264314
       2        0.000000000000     0.000000000000     0.000011337537

*** tstop() called on Joses-MacBook-Pro-2.local at Thu Jul 17 15:02:17 2025
Module time:
	user time   =       2.45 seconds =       0.04 minutes
	system time =       1.30 seconds =       0.02 minutes
	total time  =          0 seconds =       0.00 minutes
Total time:
	user time   =     231.55 seconds =       3.86 minutes
	system time =      71.78 seconds =       1.20 minutes
	total time  =         29 seconds =       0.48 minutes

    			-----------------------------------------

    			 OPTKING 3.0: for geometry optimizations

    			     By R.A. King, Bethel University

    			        with contributions from

    			    A.V. Copan, J. Cayton, A. Heide

    			-----------------------------------------

	                            ===> Fragment 1 <==

	 Z (Atomic Numbers)          Masses                          Geom
	      11.000000            22.989769          0.00000000  0.00000000  4.81696001
	      18.000000            39.962383          0.00000000  0.00000000 -2.77112601

	 - Coordinate -           - BOHR/RAD -       - ANG/DEG -
	 R(1,2)           =         7.588086           4.015442

	        --- Internal Coordinate Step in ANG or DEG, aJ/ANG or AJ/DEG ---
	-------------------------------------------------------------------------------
	           Coordinate      Previous         Force          Change          New
	           ----------      --------        ------          ------        ------
	               R(1,2)       4.01544        0.00008        0.00078       4.01622
	-------------------------------------------------------------------------------

	                                 ==> Convergence Check <==

	Measures of convergence in internal coordinates in au.

	Criteria marked as inactive (o), active & met (*), and active & unmet ( ).

	----------------------------------------------------------------------------------------------
	   Step    Total Energy     Delta E     Max Force     RMS Force      Max Disp      RMS Disp
	----------------------------------------------------------------------------------------------
	  Convergence Criteria     1.00e-06 *    3.00e-04 *             o    1.20e-03 *             o
	----------------------------------------------------------------------------------------------
	    22    -689.26729051   -1.45e-07 *    1.03e-05 *    1.03e-05 o    1.47e-03      1.47e-03 o  ~
	----------------------------------------------------------------------------------------------

Next Geometry in Ang
	Fragment 1 (Ang)

	   Na   0.0000000000   0.0000000000   2.5494140804
	   Ar   0.0000000000   0.0000000000  -1.4668053495

    Final optimized geometry and variables:
    Molecular point group: c2v
    Full point group: C_inf_v

    Geometry (in Angstrom), charge = 1, multiplicity = 3:

    NA           0.000000000000     0.000000000000     2.549025464062
    AR           0.000000000000     0.000000000000    -1.466416733240

    Psi4 stopped on: Thursday, 17 July 2025 03:02PM
    Psi4 wall time for execution: 0:00:29.19

*** Psi4 exiting successfully. Buy a developer a beer!
