                               Psi4 1.9.1 release

  ==> Input File <==

--------------------------------------------------------------------------
molecule {
1 3
Cl   0.00000        0.60000        0.00000
Ar   0.00000       -0.60000        0.00000
}

set {
basis              cc-pvdz
reference          uks
maxiter            500
geom_maxiter       500
DAMPING_PERCENTAGE 1
guess              SAP
}

optimize('b3lyp')
--------------------------------------------------------------------------

    Molecular point group: c2v
  Charge       = 1
  Multiplicity = 3
  Basis Set: CC-PVDZ
    Blend: CC-PVDZ
  Basis Set: (CC-PVDZ AUX)
    Blend: CC-PVDZ-JKFIT
  @DF-UKS Final Energy:  -985.62600782768277
    Total Energy =                       -985.6260078276827699
 Dipole X            :          0.0000000            0.0000000            0.0000000
 Dipole Y            :          0.0000000            0.0000000            0.0000000
 Dipole Z            :         -2.7877922            1.5107824           -1.2770098
 Magnitude           :                                                    1.2770098
    Molecular point group: c2v
  Basis Set: CC-PVDZ
    Blend: CC-PVDZ
  Basis Set: (CC-PVDZ AUX)
    Blend: CC-PVDZ-JKFIT
  Basis Set: CC-PVDZ
    Blend: CC-PVDZ
  Basis Set: (CC-PVDZ AUX)
    Blend: CC-PVDZ-JKFIT
  @DF-UKS Final Energy:  -985.67404471352143
    Total Energy =                       -985.6740447135214254
  Basis Set: CC-PVDZ
    Blend: CC-PVDZ
  Basis Set: (CC-PVDZ AUX)
    Blend: CC-PVDZ-JKFIT
  Basis Set: CC-PVDZ
    Blend: CC-PVDZ
  @DF-UKS Final Energy:  -985.76345011201579
    Total Energy =                       -985.7634501120157893
  @DF-UKS Final Energy:  -986.05640906974133
    Total Energy =                       -986.0564090697413349
  @DF-UKS Final Energy:  -986.68109599414936
    Total Energy =                       -986.6810959941493593
  @DF-UKS Final Energy:  -986.91626721946841
    Total Energy =                       -986.9162672194684092
  @DF-UKS Final Energy:  -987.07542964046252
    Total Energy =                       -987.0754296404625165
  @DF-UKS Final Energy:  -987.17099224235994
    Total Energy =                       -987.1709922423599437
  @DF-UKS Final Energy:  -987.21666415229345
    Total Energy =                       -987.2166641522935606
  @DF-UKS Final Energy:  -987.23779081990392
    Total Energy =                       -987.2377908199039211
  @DF-UKS Final Energy:  -987.24667642204679
    Total Energy =                       -987.2466764220467894
  @DF-UKS Final Energy:  -987.24987766687900
    Total Energy =                       -987.2498776668790015
  @DF-UKS Final Energy:  -987.25060363053376
    Total Energy =                       -987.2506036305338739
  @DF-UKS Final Energy:  -987.25083982820627
    Total Energy =                       -987.2508398282061535
  @DF-UKS Final Energy:  -987.25087645822748
    Total Energy =                       -987.2508764582274807
  @DF-UKS Final Energy:  -987.25088256934146
    Total Energy =                       -987.2508825693414565
  Basis Set: (CC-PVDZ AUX)
    Blend: CC-PVDZ-JKFIT
  Basis Set: CC-PVDZ
    Blend: CC-PVDZ
  Basis Set: (CC-PVDZ AUX)
    Blend: CC-PVDZ-JKFIT
  @DF-UKS Final Energy:  -987.25088370887613
    Total Energy =                       -987.2508837088761311
  Basis Set: CC-PVDZ
    Blend: CC-PVDZ
  Basis Set: (CC-PVDZ AUX)
    Blend: CC-PVDZ-JKFIT
  Charge       = 1
  Multiplicity = 3
  Basis Set: CC-PVDZ
    Blend: CC-PVDZ
  Basis Set: (CC-PVDZ AUX)
    Blend: CC-PVDZ-JKFIT

    Orbital Energies [Eh]
    ---------------------

    Alpha Occupied:

       1A1  -115.390300     2A1  -101.985830     3A1   -11.424460
       4A1    -9.894624     5A1    -8.981346     1B2    -8.972373
       1B1    -8.971658     2B2    -7.664777     6A1    -7.659214
       2B1    -7.639429     7A1    -1.251500     8A1    -1.209597
       9A1    -0.766660     3B2    -0.745983     3B1    -0.696409
       4B2    -0.686251     4B1    -0.676463    10A1    -0.674157

    Alpha Virtual:

       5B2     0.194840    11A1     0.209361     5B1     0.222142
      12A1     0.229138     6B2     0.273053    13A1     0.278896
       6B1     0.308458     1A2     0.328087    14A1     0.335995
       7B2     0.388279     7B1     0.402343    15A1     0.418532
      16A1     0.519182     8B2     0.557628     8B1     0.560066
       2A2     0.569719    17A1     0.569744    18A1     0.810871

    Beta Occupied:

       1A1  -115.387170     2A1  -101.972745     3A1   -11.421509
       4A1    -9.881815     5A1    -8.972204     1B2    -8.970054
       1B1    -8.969838     2B2    -7.637757     6A1    -7.636234
       2B1    -7.631753     7A1    -1.229997     8A1    -1.117313
       9A1    -0.699708     3B1    -0.683587     3B2    -0.680535
       4B1    -0.653586

    Beta Virtual:

       4B2    -0.561210    10A1    -0.547395     5B1     0.232485
       5B2     0.236599    11A1     0.246384    12A1     0.265766
       6B1     0.339620     6B2     0.344006    13A1     0.346265
       1A2     0.393318    14A1     0.399339     7B1     0.427266
       7B2     0.433257    15A1     0.438880    16A1     0.542408
       2A2     0.574424    17A1     0.574443     8B2     0.579185
       8B1     0.579606    18A1     0.835283

    Final Occupation by Irrep:
             A1    A2    B1    B2
    DOCC [     9,    0,    4,    3 ]
    SOCC [     1,    0,    0,    1 ]
    NA   [    10,    0,    4,    4 ]
    NB   [     9,    0,    4,    3 ]

  @DF-UKS Final Energy:  -987.25088374622328

   => Energetics <=

    Nuclear Repulsion Energy =             60.2503873028746000
    One-Electron Energy =               -1472.5568312358250296
    Two-Electron Energy =                 472.3708047489989212
    DFT Exchange-Correlation Energy =     -47.3152445622717508
    Empirical Dispersion Energy =           0.0000000000000000
    VV10 Nonlocal Energy =                  0.0000000000000000
    Total Energy =                       -987.2508837462233942

  UHF NO Occupations:
  HONO-2 :    9 A1 1.9992371
  HONO-1 :   10 A1 1.0000000
  HONO-0 :    4 B2 1.0000000
  LUNO+0 :   11 A1 0.0007629
  LUNO+1 :   12 A1 0.0005402
  LUNO+2 :    5 B1 0.0000870
  LUNO+3 :   13 A1 0.0000597

Computation Completed

Properties will be evaluated at   0.000000,   0.000000,   0.000000 [a0]

Properties computed using the SCF density matrix

 Multipole Moments:

 ------------------------------------------------------------------------------------
     Multipole            Electronic (a.u.)      Nuclear  (a.u.)        Total (a.u.)
 ------------------------------------------------------------------------------------

 L = 1.  Multiply by 2.5417464519 to convert [e a0] to [Debye]
 Dipole X            :          0.0000000            0.0000000            0.0000000
 Dipole Y            :          0.0000000            0.0000000            0.0000000
 Dipole Z            :         -2.2656107            3.3836341            1.1180234
 Magnitude           :                                                    1.1180234

 ------------------------------------------------------------------------------------

*** tstop() called on Joses-MacBook-Pro-2.local at Thu Jul 17 16:01:36 2025
Module time:
	user time   =      14.11 seconds =       0.24 minutes
	system time =       1.49 seconds =       0.02 minutes
	total time  =          2 seconds =       0.03 minutes
Total time:
	user time   =     213.91 seconds =       3.57 minutes
	system time =      54.88 seconds =       0.91 minutes
	total time  =         26 seconds =       0.43 minutes

*** tstart() called on Joses-MacBook-Pro-2.local
*** at Thu Jul 17 16:01:36 2025

         ------------------------------------------------------------
                                   SCF GRAD
                          Rob Parrish, Justin Turney,
                       Andy Simmonett, and Alex Sokolov
         ------------------------------------------------------------

  ==> Geometry <==

    Molecular point group: c2v
    Full point group: C_inf_v

    Geometry (in Angstrom), charge = 1, multiplicity = 3:

       Center              X                  Y                   Z               Mass
    ------------   -----------------  -----------------  -----------------  -----------------
         CL           0.000000000000     0.000000000000     1.433346532374    34.968852682000
         AR           0.000000000000     0.000000000000    -1.254241609608    39.962383123700

  Nuclear repulsion =   60.250387302874600

  ==> Basis Set <==

  Basis Set: CC-PVDZ
    Blend: CC-PVDZ
    Number of shells: 16
    Number of basis functions: 36
    Number of Cartesian functions: 38
    Spherical Harmonics?: true
    Max angular momentum: 2

  ==> DFJKGrad: Density-Fitted SCF Gradients <==

    Gradient:                    1
    J tasked:                  Yes
    K tasked:                  Yes
    wK tasked:                  No
    OpenMP threads:              1
    Integrals threads:           1
    Memory [MiB]:              375
    Schwarz Cutoff:          1E-12
    Fitting Condition:       1E-10

   => Auxiliary Basis Set <=

  Basis Set: (CC-PVDZ AUX)
    Blend: CC-PVDZ-JKFIT
    Number of shells: 72
    Number of basis functions: 224
    Number of Cartesian functions: 260
    Spherical Harmonics?: true
    Max angular momentum: 3

  ==> DFT Potential <==

   => LibXC <=

    Version 6.2.2
    S. Lehtola, C. Steigemann, M. J.T. Oliveira, and M. A.L. Marques.,  SoftwareX 7, 1â€“5 (2018) (10.1016/j.softx.2017.11.002)

   => Composite Functional: B3LYP <=

    B3LYP Hyb-GGA Exchange-Correlation Functional

    P. J. Stephens, F. J. Devlin, C. F. Chabalowski, and M. J. Frisch.,  J. Phys. Chem. 98, 11623 (1994) (10.1021/j100096a001)

    Deriv               =              1
    GGA                 =           TRUE
    Meta                =          FALSE

    Exchange Hybrid     =           TRUE
    MP2 Hybrid          =          FALSE

   => Exchange Functionals <=

    0.0800   Slater exchange
    0.7200         Becke 88

   => Exact (HF) Exchange <=

    0.2000               HF

   => Correlation Functionals <=

    0.1900   Vosko, Wilk & Nusair (VWN5_RPA)
    0.8100   Lee, Yang & Parr

   => LibXC Density Thresholds  <==

    XC_HYB_GGA_XC_B3LYP:  1.00E-15

   => Molecular Quadrature <=

    Radial Scheme          =       TREUTLER
    Pruning Scheme         =           NONE
    Nuclear Scheme         =       TREUTLER

    Blocking Scheme        =         OCTREE
    BS radius alpha        =              1
    Pruning alpha          =              1
    Radial Points          =             75
    Spherical Points       =            302
    Total Points           =          39750
    Total Blocks           =            364
    Max Points             =            239
    Max Functions          =             36
    Weights Tolerance      =       1.00E-15

  -Total Gradient:
     Atom            X                  Y                   Z
    ------   -----------------  -----------------  -----------------
       1        0.000000000000    -0.000000000000    -0.000007531208
       2        0.000000000000     0.000000000000     0.000014485500

*** tstop() called on Joses-MacBook-Pro-2.local at Thu Jul 17 16:01:36 2025
Module time:
	user time   =       2.42 seconds =       0.04 minutes
	system time =       0.96 seconds =       0.02 minutes
	total time  =          0 seconds =       0.00 minutes
Total time:
	user time   =     216.34 seconds =       3.61 minutes
	system time =      55.84 seconds =       0.93 minutes
	total time  =         26 seconds =       0.43 minutes

    			-----------------------------------------

    			 OPTKING 3.0: for geometry optimizations

    			     By R.A. King, Bethel University

    			        with contributions from

    			    A.V. Copan, J. Cayton, A. Heide

    			-----------------------------------------

	                            ===> Fragment 1 <==

	 Z (Atomic Numbers)          Masses                          Geom
	      17.000000            34.968853          0.00000000  0.00000000  2.70863239
	      18.000000            39.962383          0.00000000  0.00000000 -2.37017314

	 - Coordinate -           - BOHR/RAD -       - ANG/DEG -
	 R(1,2)           =         5.078806           2.687588

	        --- Internal Coordinate Step in ANG or DEG, aJ/ANG or AJ/DEG ---
	-------------------------------------------------------------------------------
	           Coordinate      Previous         Force          Change          New
	           ----------      --------        ------          ------        ------
	               R(1,2)       2.68759        0.00009        0.00020       2.68779
	-------------------------------------------------------------------------------

	                                 ==> Convergence Check <==

	Measures of convergence in internal coordinates in au.

	Criteria marked as inactive (o), active & met (*), and active & unmet ( ).

	----------------------------------------------------------------------------------------------
	   Step    Total Energy     Delta E     Max Force     RMS Force      Max Disp      RMS Disp
	----------------------------------------------------------------------------------------------
	  Convergence Criteria     1.00e-06 *    3.00e-04 *             o    1.20e-03 *             o
	----------------------------------------------------------------------------------------------
	    18    -987.25088375   -3.73e-08 *    1.10e-05 *    1.10e-05 o    3.86e-04 *    3.86e-04 o  ~
	----------------------------------------------------------------------------------------------

Next Geometry in Ang
	Fragment 1 (Ang)

	   Cl   0.0000000000   0.0000000000   1.4334487258
	   Ar   0.0000000000   0.0000000000  -1.2543438030

    Final optimized geometry and variables:
    Molecular point group: c2v
    Full point group: C_inf_v

    Geometry (in Angstrom), charge = 1, multiplicity = 3:

    CL           0.000000000000     0.000000000000     1.433346532374
    AR           0.000000000000     0.000000000000    -1.254241609608

    Psi4 stopped on: Thursday, 17 July 2025 04:01PM
    Psi4 wall time for execution: 0:00:26.38

*** Psi4 exiting successfully. Buy a developer a beer!
