                               Psi4 1.9.1 release

  ==> Input File <==

--------------------------------------------------------------------------
molecule {
1 3
F   0.00000        0.60000        0.00000
Ne   0.00000       -0.60000        0.00000
}

set {
basis              cc-pvdz
reference          uks
maxiter            500
geom_maxiter       500
DAMPING_PERCENTAGE 1
guess              SAP
}

optimize('b3lyp')
--------------------------------------------------------------------------

    Molecular point group: c2v
  Charge       = 1
  Multiplicity = 3
  Basis Set: CC-PVDZ
    Blend: CC-PVDZ
  Basis Set: (CC-PVDZ AUX)
    Blend: CC-PVDZ-JKFIT
  @DF-UKS Final Energy:  -227.75636338548756
    Total Energy =                       -227.7563633854875604
 Dipole X            :          0.0000000            0.0000000            0.0000000
 Dipole Y            :          0.0000000            0.0000000            0.0000000
 Dipole Z            :          0.5899452           -0.5846191            0.0053261
 Magnitude           :                                                    0.0053261
    Molecular point group: c2v
  Basis Set: CC-PVDZ
    Blend: CC-PVDZ
  Basis Set: (CC-PVDZ AUX)
    Blend: CC-PVDZ-JKFIT
  Basis Set: CC-PVDZ
    Blend: CC-PVDZ
  Basis Set: (CC-PVDZ AUX)
    Blend: CC-PVDZ-JKFIT
  @DF-UKS Final Energy:  -227.98541054028422
    Total Energy =                       -227.9854105402842208
  Basis Set: CC-PVDZ
    Blend: CC-PVDZ
  Basis Set: (CC-PVDZ AUX)
    Blend: CC-PVDZ-JKFIT
  Basis Set: CC-PVDZ
    Blend: CC-PVDZ
  @DF-UKS Final Energy:  -228.01294663059122
    Total Energy =                       -228.0129466305912160
  @DF-UKS Final Energy:  -228.03360308448543
    Total Energy =                       -228.0336030844854349
  @DF-UKS Final Energy:  -228.03923276731879
    Total Energy =                       -228.0392327673187935
  @DF-UKS Final Energy:  -228.04160233781161
    Total Energy =                       -228.0416023378116108
  @DF-UKS Final Energy:  -228.04234046168588
    Total Energy =                       -228.0423404616858818
  @DF-UKS Final Energy:  -228.04268713667335
    Total Energy =                       -228.0426871366733508
  @DF-UKS Final Energy:  -228.04276278070583
    Total Energy =                       -228.0427627807058002
  @DF-UKS Final Energy:  -228.04278371803923
    Total Energy =                       -228.0427837180392601
  Basis Set: (CC-PVDZ AUX)
    Blend: CC-PVDZ-JKFIT
  Basis Set: CC-PVDZ
    Blend: CC-PVDZ
  Basis Set: (CC-PVDZ AUX)
    Blend: CC-PVDZ-JKFIT
  @DF-UKS Final Energy:  -228.04278699045705
    Total Energy =                       -228.0427869904570457
  Basis Set: CC-PVDZ
    Blend: CC-PVDZ
  Basis Set: (CC-PVDZ AUX)
    Blend: CC-PVDZ-JKFIT
  Charge       = 1
  Multiplicity = 3
  Basis Set: CC-PVDZ
    Blend: CC-PVDZ
  Basis Set: (CC-PVDZ AUX)
    Blend: CC-PVDZ-JKFIT

    Orbital Energies [Eh]
    ---------------------

    Alpha Occupied:

       1A1   -31.424754     2A1   -25.420184     3A1    -1.868799
       4A1    -1.785438     5A1    -1.091543     1B2    -1.090213
       1B1    -0.998008     6A1    -0.963161     2B2    -0.952286
       2B1    -0.948077

    Alpha Virtual:

       3B2     0.570700     7A1     0.602068     3B1     0.619767
       8A1     0.838277     4B2     1.018304     4B1     1.022927
       9A1     1.190031    10A1     1.688378     5B2     2.871418
      11A1     2.899565     1A2     2.922695     5B1     2.941573
      12A1     2.990782     6B2     4.283522     6B1     4.284999
      13A1     4.303964     2A2     4.312752    14A1     4.312795

    Beta Occupied:

       1A1   -31.411362     2A1   -25.361920     3A1    -1.833392
       4A1    -1.626482     1B1    -0.951134     5A1    -0.940886
       1B2    -0.939147     2B1    -0.925055

    Beta Virtual:

       2B2    -0.749158     6A1    -0.748576     3B1     0.645822
       3B2     0.680352     7A1     0.683731     8A1     0.906718
       4B1     1.030264     4B2     1.031629     9A1     1.227377
      10A1     1.725510     5B1     3.026317     1A2     3.030076
      11A1     3.041656     5B2     3.049012    12A1     3.102513
       6B2     4.319948     6B1     4.320243    13A1     4.320483
       2A2     4.320505    14A1     4.349418

    Final Occupation by Irrep:
             A1    A2    B1    B2
    DOCC [     5,    0,    2,    1 ]
    SOCC [     1,    0,    0,    1 ]
    NA   [     6,    0,    2,    2 ]
    NB   [     5,    0,    2,    1 ]

  @DF-UKS Final Energy:  -228.04278723329693

   => Energetics <=

    Nuclear Repulsion Energy =             25.0602456112763861
    One-Electron Energy =                -362.7159219169107018
    Two-Electron Energy =                 127.6904698937458704
    DFT Exchange-Correlation Energy =     -18.0775808214084961
    Empirical Dispersion Energy =           0.0000000000000000
    VV10 Nonlocal Energy =                  0.0000000000000000
    Total Energy =                       -228.0427872332969343

  UHF NO Occupations:
  HONO-2 :    5 A1 1.9990339
  HONO-1 :    6 A1 1.0000000
  HONO-0 :    2 B2 1.0000000
  LUNO+0 :    7 A1 0.0009661
  LUNO+1 :    8 A1 0.0004493
  LUNO+2 :    3 B1 0.0001580
  LUNO+3 :    3 B2 0.0000376

Computation Completed

Properties will be evaluated at   0.000000,   0.000000,   0.000000 [a0]

Properties computed using the SCF density matrix

 Multipole Moments:

 ------------------------------------------------------------------------------------
     Multipole            Electronic (a.u.)      Nuclear  (a.u.)        Total (a.u.)
 ------------------------------------------------------------------------------------

 L = 1.  Multiply by 2.5417464519 to convert [e a0] to [Debye]
 Dipole X            :          0.0000000            0.0000000            0.0000000
 Dipole Y            :          0.0000000            0.0000000            0.0000000
 Dipole Z            :          1.6383301           -0.9258701            0.7124600
 Magnitude           :                                                    0.7124600

 ------------------------------------------------------------------------------------

*** tstop() called on Joses-MacBook-Pro-2.local at Thu Jul 17 14:25:16 2025
Module time:
	user time   =       2.95 seconds =       0.05 minutes
	system time =       2.42 seconds =       0.04 minutes
	total time  =          0 seconds =       0.00 minutes
Total time:
	user time   =      51.09 seconds =       0.85 minutes
	system time =      51.83 seconds =       0.86 minutes
	total time  =          9 seconds =       0.15 minutes

*** tstart() called on Joses-MacBook-Pro-2.local
*** at Thu Jul 17 14:25:16 2025

         ------------------------------------------------------------
                                   SCF GRAD
                          Rob Parrish, Justin Turney,
                       Andy Simmonett, and Alex Sokolov
         ------------------------------------------------------------

  ==> Geometry <==

    Molecular point group: c2v
    Full point group: C_inf_v

    Geometry (in Angstrom), charge = 1, multiplicity = 3:

       Center              X                  Y                   Z               Mass
    ------------   -----------------  -----------------  -----------------  -----------------
         F            0.000000000000     0.000000000000     0.974454342953    18.998403162730
         NE           0.000000000000     0.000000000000    -0.926003844850    19.992440176200

  Nuclear repulsion =   25.060245611276386

  ==> Basis Set <==

  Basis Set: CC-PVDZ
    Blend: CC-PVDZ
    Number of shells: 12
    Number of basis functions: 28
    Number of Cartesian functions: 30
    Spherical Harmonics?: true
    Max angular momentum: 2

  ==> DFJKGrad: Density-Fitted SCF Gradients <==

    Gradient:                    1
    J tasked:                  Yes
    K tasked:                  Yes
    wK tasked:                  No
    OpenMP threads:              1
    Integrals threads:           1
    Memory [MiB]:              375
    Schwarz Cutoff:          1E-12
    Fitting Condition:       1E-10

   => Auxiliary Basis Set <=

  Basis Set: (CC-PVDZ AUX)
    Blend: CC-PVDZ-JKFIT
    Number of shells: 48
    Number of basis functions: 140
    Number of Cartesian functions: 162
    Spherical Harmonics?: true
    Max angular momentum: 3

  ==> DFT Potential <==

   => LibXC <=

    Version 6.2.2
    S. Lehtola, C. Steigemann, M. J.T. Oliveira, and M. A.L. Marques.,  SoftwareX 7, 1â€“5 (2018) (10.1016/j.softx.2017.11.002)

   => Composite Functional: B3LYP <=

    B3LYP Hyb-GGA Exchange-Correlation Functional

    P. J. Stephens, F. J. Devlin, C. F. Chabalowski, and M. J. Frisch.,  J. Phys. Chem. 98, 11623 (1994) (10.1021/j100096a001)

    Deriv               =              1
    GGA                 =           TRUE
    Meta                =          FALSE

    Exchange Hybrid     =           TRUE
    MP2 Hybrid          =          FALSE

   => Exchange Functionals <=

    0.0800   Slater exchange
    0.7200         Becke 88

   => Exact (HF) Exchange <=

    0.2000               HF

   => Correlation Functionals <=

    0.1900   Vosko, Wilk & Nusair (VWN5_RPA)
    0.8100   Lee, Yang & Parr

   => LibXC Density Thresholds  <==

    XC_HYB_GGA_XC_B3LYP:  1.00E-15

   => Molecular Quadrature <=

    Radial Scheme          =       TREUTLER
    Pruning Scheme         =           NONE
    Nuclear Scheme         =       TREUTLER

    Blocking Scheme        =         OCTREE
    BS radius alpha        =              1
    Pruning alpha          =              1
    Radial Points          =             75
    Spherical Points       =            302
    Total Points           =          42330
    Total Blocks           =            370
    Max Points             =            255
    Max Functions          =             28
    Weights Tolerance      =       1.00E-15

  -Total Gradient:
     Atom            X                  Y                   Z
    ------   -----------------  -----------------  -----------------
       1        0.000000000000    -0.000000000000    -0.000037188744
       2        0.000000000000     0.000000000000     0.000020481607

*** tstop() called on Joses-MacBook-Pro-2.local at Thu Jul 17 14:25:16 2025
Module time:
	user time   =       0.49 seconds =       0.01 minutes
	system time =       1.15 seconds =       0.02 minutes
	total time  =          0 seconds =       0.00 minutes
Total time:
	user time   =      51.58 seconds =       0.86 minutes
	system time =      52.99 seconds =       0.88 minutes
	total time  =          9 seconds =       0.15 minutes

    			-----------------------------------------

    			 OPTKING 3.0: for geometry optimizations

    			     By R.A. King, Bethel University

    			        with contributions from

    			    A.V. Copan, J. Cayton, A. Heide

    			-----------------------------------------

	                            ===> Fragment 1 <==

	 Z (Atomic Numbers)          Masses                          Geom
	       9.000000            18.998403          0.00000000  0.00000000  1.84145183
	      10.000000            19.992440          0.00000000  0.00000000 -1.74989366

	 - Coordinate -           - BOHR/RAD -       - ANG/DEG -
	 R(1,2)           =         3.591345           1.900458

	        --- Internal Coordinate Step in ANG or DEG, aJ/ANG or AJ/DEG ---
	-------------------------------------------------------------------------------
	           Coordinate      Previous         Force          Change          New
	           ----------      --------        ------          ------        ------
	               R(1,2)       1.90046        0.00024        0.00022       1.90068
	-------------------------------------------------------------------------------

	                                 ==> Convergence Check <==

	Measures of convergence in internal coordinates in au.

	Criteria marked as inactive (o), active & met (*), and active & unmet ( ).

	----------------------------------------------------------------------------------------------
	   Step    Total Energy     Delta E     Max Force     RMS Force      Max Disp      RMS Disp
	----------------------------------------------------------------------------------------------
	  Convergence Criteria     1.00e-06 *    3.00e-04 *             o    1.20e-03 *             o
	----------------------------------------------------------------------------------------------
	    12    -228.04278723   -2.43e-07 *    2.88e-05 *    2.88e-05 o    4.17e-04 *    4.17e-04 o  ~
	----------------------------------------------------------------------------------------------

Next Geometry in Ang
	Fragment 1 (Ang)

	    F   0.0000000000   0.0000000000   0.9745646847
	   Ne   0.0000000000   0.0000000000  -0.9261141866

    Final optimized geometry and variables:
    Molecular point group: c2v
    Full point group: C_inf_v

    Geometry (in Angstrom), charge = 1, multiplicity = 3:

    F            0.000000000000     0.000000000000     0.974454342953
    NE           0.000000000000     0.000000000000    -0.926003844850

    Psi4 stopped on: Thursday, 17 July 2025 02:25PM
    Psi4 wall time for execution: 0:00:10.39

*** Psi4 exiting successfully. Buy a developer a beer!
