                               Psi4 1.9.1 release

  ==> Input File <==

--------------------------------------------------------------------------
molecule {
1 3
H   0.00000        0.60000        0.00000
Si   0.00000       -0.60000        0.00000
}

set {
basis              cc-pvdz
reference          uks
maxiter            500
geom_maxiter       500
DAMPING_PERCENTAGE 1
guess              SAP
}

optimize('b3lyp')
--------------------------------------------------------------------------

    Molecular point group: c2v
  Charge       = 1
  Multiplicity = 3
  Basis Set: CC-PVDZ
    Blend: CC-PVDZ
  Basis Set: (CC-PVDZ AUX)
    Blend: CC-PVDZ-JKFIT
  @DF-UKS Final Energy:  -289.58064374210926
    Total Energy =                       -289.5806437421092596
 Dipole X            :          0.0000000            0.0000000            0.0000000
 Dipole Y            :          0.0000000            0.0000000            0.0000000
 Dipole Z            :         -1.0850535            1.0849378           -0.0001157
 Magnitude           :                                                    0.0001157
    Molecular point group: c2v
  Basis Set: CC-PVDZ
    Blend: CC-PVDZ
  Basis Set: (CC-PVDZ AUX)
    Blend: CC-PVDZ-JKFIT
  Basis Set: CC-PVDZ
    Blend: CC-PVDZ
  Basis Set: (CC-PVDZ AUX)
    Blend: CC-PVDZ-JKFIT
  @DF-UKS Final Energy:  -289.62656808182982
    Total Energy =                       -289.6265680818298165
  Basis Set: CC-PVDZ
    Blend: CC-PVDZ
  Basis Set: (CC-PVDZ AUX)
    Blend: CC-PVDZ-JKFIT
  Basis Set: CC-PVDZ
    Blend: CC-PVDZ
  @DF-UKS Final Energy:  -289.63092408544122
    Total Energy =                       -289.6309240854411655
  @DF-UKS Final Energy:  -289.63267823570578
    Total Energy =                       -289.6326782357058391
  @DF-UKS Final Energy:  -289.63286278008098
    Total Energy =                       -289.6328627800809272
  @DF-UKS Final Energy:  -289.63288639663574
    Total Energy =                       -289.6328863966357403
  Basis Set: (CC-PVDZ AUX)
    Blend: CC-PVDZ-JKFIT
  Basis Set: CC-PVDZ
    Blend: CC-PVDZ
  Basis Set: (CC-PVDZ AUX)
    Blend: CC-PVDZ-JKFIT
  @DF-UKS Final Energy:  -289.63288967430719
    Total Energy =                       -289.6328896743072505
  Basis Set: CC-PVDZ
    Blend: CC-PVDZ
  Basis Set: (CC-PVDZ AUX)
    Blend: CC-PVDZ-JKFIT
  Charge       = 1
  Multiplicity = 3
  Basis Set: CC-PVDZ
    Blend: CC-PVDZ
  Basis Set: (CC-PVDZ AUX)
    Blend: CC-PVDZ-JKFIT

    Orbital Energies [Eh]
    ---------------------

    Alpha Occupied:

       1A1   -66.524059     2A1    -5.660634     1B1    -4.022594
       3A1    -4.018808     1B2    -4.017774     4A1    -0.813573
       5A1    -0.621068     2B2    -0.478931

    Alpha Virtual:

       2B1    -0.406255     6A1    -0.244309     7A1    -0.023932
       8A1     0.026112     3B2     0.026917     3B1     0.034880
       1A2     0.053496     4B2     0.054164     9A1     0.060251
       4B1     0.061874    10A1     0.191942    11A1     0.382251
       5B1     1.057618     5B2     1.059117    12A1     1.490740

    Beta Occupied:

       1A1   -66.517078     2A1    -5.652026     1B1    -4.017785
       3A1    -4.008876     1B2    -4.001176     4A1    -0.743561

    Beta Virtual:

       5A1    -0.477695     2B1    -0.379211     2B2    -0.344244
       6A1    -0.190142     7A1    -0.004695     8A1     0.055903
       3B1     0.067248     4B1     0.074908     3B2     0.089764
       4B2     0.102409     1A2     0.113869     9A1     0.114550
      10A1     0.225340    11A1     0.449698     5B1     1.121830
       5B2     1.129552    12A1     1.550985

    Final Occupation by Irrep:
             A1    A2    B1    B2
    DOCC [     4,    0,    1,    1 ]
    SOCC [     1,    0,    0,    1 ]
    NA   [     5,    0,    1,    2 ]
    NB   [     4,    0,    1,    1 ]

  @DF-UKS Final Energy:  -289.63289018853351

   => Energetics <=

    Nuclear Repulsion Energy =              4.7001499318026045
    One-Electron Energy =                -405.5526688344513673
    Two-Electron Energy =                 128.0760498893033059
    DFT Exchange-Correlation Energy =     -16.8564211751880322
    Empirical Dispersion Energy =           0.0000000000000000
    VV10 Nonlocal Energy =                  0.0000000000000000
    Total Energy =                       -289.6328901885334517

  UHF NO Occupations:
  HONO-2 :    4 A1 1.9971266
  HONO-1 :    2 B2 1.0000000
  HONO-0 :    5 A1 1.0000000
  LUNO+0 :    6 A1 0.0028734
  LUNO+1 :    2 B1 0.0000004
  LUNO+2 :    7 A1 0.0000002
  LUNO+3 :    3 B2 0.0000002

Computation Completed

Properties will be evaluated at   0.000000,   0.000000,   0.000000 [a0]

Properties computed using the SCF density matrix

 Multipole Moments:

 ------------------------------------------------------------------------------------
     Multipole            Electronic (a.u.)      Nuclear  (a.u.)        Total (a.u.)
 ------------------------------------------------------------------------------------

 L = 1.  Multiply by 2.5417464519 to convert [e a0] to [Debye]
 Dipole X            :          0.0000000            0.0000000            0.0000000
 Dipole Y            :          0.0000000            0.0000000            0.0000000
 Dipole Z            :         -1.2008260            1.4250859            0.2242598
 Magnitude           :                                                    0.2242598

 ------------------------------------------------------------------------------------

*** tstop() called on Joses-MacBook-Pro-2.local at Thu Jul 17 12:22:43 2025
Module time:
	user time   =       2.63 seconds =       0.04 minutes
	system time =       2.60 seconds =       0.04 minutes
	total time  =          1 seconds =       0.02 minutes
Total time:
	user time   =      28.73 seconds =       0.48 minutes
	system time =      33.49 seconds =       0.56 minutes
	total time  =          6 seconds =       0.10 minutes

*** tstart() called on Joses-MacBook-Pro-2.local
*** at Thu Jul 17 12:22:43 2025

         ------------------------------------------------------------
                                   SCF GRAD
                          Rob Parrish, Justin Turney,
                       Andy Simmonett, and Alex Sokolov
         ------------------------------------------------------------

  ==> Geometry <==

    Molecular point group: c2v
    Full point group: C_inf_v

    Geometry (in Angstrom), charge = 1, multiplicity = 3:

       Center              X                  Y                   Z               Mass
    ------------   -----------------  -----------------  -----------------  -----------------
         H            0.000000000000     0.000000000000     1.521415640831     1.007825032230
         SI           0.000000000000     0.000000000000    -0.054806619496    27.976926534650

  Nuclear repulsion =    4.700149931802605

  ==> Basis Set <==

  Basis Set: CC-PVDZ
    Blend: CC-PVDZ
    Number of shells: 11
    Number of basis functions: 23
    Number of Cartesian functions: 24
    Spherical Harmonics?: true
    Max angular momentum: 2

  ==> DFJKGrad: Density-Fitted SCF Gradients <==

    Gradient:                    1
    J tasked:                  Yes
    K tasked:                  Yes
    wK tasked:                  No
    OpenMP threads:              1
    Integrals threads:           1
    Memory [MiB]:              375
    Schwarz Cutoff:          1E-12
    Fitting Condition:       1E-10

   => Auxiliary Basis Set <=

  Basis Set: (CC-PVDZ AUX)
    Blend: CC-PVDZ-JKFIT
    Number of shells: 45
    Number of basis functions: 135
    Number of Cartesian functions: 155
    Spherical Harmonics?: true
    Max angular momentum: 3

  ==> DFT Potential <==

   => LibXC <=

    Version 6.2.2
    S. Lehtola, C. Steigemann, M. J.T. Oliveira, and M. A.L. Marques.,  SoftwareX 7, 1â€“5 (2018) (10.1016/j.softx.2017.11.002)

   => Composite Functional: B3LYP <=

    B3LYP Hyb-GGA Exchange-Correlation Functional

    P. J. Stephens, F. J. Devlin, C. F. Chabalowski, and M. J. Frisch.,  J. Phys. Chem. 98, 11623 (1994) (10.1021/j100096a001)

    Deriv               =              1
    GGA                 =           TRUE
    Meta                =          FALSE

    Exchange Hybrid     =           TRUE
    MP2 Hybrid          =          FALSE

   => Exchange Functionals <=

    0.0800   Slater exchange
    0.7200         Becke 88

   => Exact (HF) Exchange <=

    0.2000               HF

   => Correlation Functionals <=

    0.1900   Vosko, Wilk & Nusair (VWN5_RPA)
    0.8100   Lee, Yang & Parr

   => LibXC Density Thresholds  <==

    XC_HYB_GGA_XC_B3LYP:  1.00E-15

   => Molecular Quadrature <=

    Radial Scheme          =       TREUTLER
    Pruning Scheme         =           NONE
    Nuclear Scheme         =       TREUTLER

    Blocking Scheme        =         OCTREE
    BS radius alpha        =              1
    Pruning alpha          =              1
    Radial Points          =             75
    Spherical Points       =            302
    Total Points           =          42897
    Total Blocks           =            388
    Max Points             =            253
    Max Functions          =             23
    Weights Tolerance      =       1.00E-15

  -Total Gradient:
     Atom            X                  Y                   Z
    ------   -----------------  -----------------  -----------------
       1        0.000000000000    -0.000000000000    -0.000081645059
       2        0.000000000000     0.000000000000     0.000082148678

*** tstop() called on Joses-MacBook-Pro-2.local at Thu Jul 17 12:22:43 2025
Module time:
	user time   =       0.64 seconds =       0.01 minutes
	system time =       1.24 seconds =       0.02 minutes
	total time  =          0 seconds =       0.00 minutes
Total time:
	user time   =      29.37 seconds =       0.49 minutes
	system time =      34.73 seconds =       0.58 minutes
	total time  =          6 seconds =       0.10 minutes

    			-----------------------------------------

    			 OPTKING 3.0: for geometry optimizations

    			     By R.A. King, Bethel University

    			        with contributions from

    			    A.V. Copan, J. Cayton, A. Heide

    			-----------------------------------------

	                            ===> Fragment 1 <==

	 Z (Atomic Numbers)          Masses                          Geom
	       1.000000             1.007825          0.00000000  0.00000000  2.87505888
	      14.000000            27.976927          0.00000000  0.00000000 -0.10356950

	 - Coordinate -           - BOHR/RAD -       - ANG/DEG -
	 R(1,2)           =         2.978628           1.576222

	        --- Internal Coordinate Step in ANG or DEG, aJ/ANG or AJ/DEG ---
	-------------------------------------------------------------------------------
	           Coordinate      Previous         Force          Change          New
	           ----------      --------        ------          ------        ------
	               R(1,2)       1.57622        0.00067        0.00040       1.57663
	-------------------------------------------------------------------------------

	                                 ==> Convergence Check <==

	Measures of convergence in internal coordinates in au.

	Criteria marked as inactive (o), active & met (*), and active & unmet ( ).

	----------------------------------------------------------------------------------------------
	   Step    Total Energy     Delta E     Max Force     RMS Force      Max Disp      RMS Disp
	----------------------------------------------------------------------------------------------
	  Convergence Criteria     1.00e-06 *    3.00e-04 *             o    1.20e-03 *             o
	----------------------------------------------------------------------------------------------
	     8    -289.63289019   -5.14e-07 *    8.19e-05 *    8.19e-05 o    7.63e-04 *    7.63e-04 o  ~
	----------------------------------------------------------------------------------------------

Next Geometry in Ang
	Fragment 1 (Ang)

	    H   0.0000000000   0.0000000000   1.5216174530
	   Si   0.0000000000   0.0000000000  -0.0550084317

    Final optimized geometry and variables:
    Molecular point group: c2v
    Full point group: C_inf_v

    Geometry (in Angstrom), charge = 1, multiplicity = 3:

    H            0.000000000000     0.000000000000     1.521415640831
    SI           0.000000000000     0.000000000000    -0.054806619496

    Psi4 stopped on: Thursday, 17 July 2025 12:22PM
    Psi4 wall time for execution: 0:00:06.65

*** Psi4 exiting successfully. Buy a developer a beer!
