                               Psi4 1.9.1 release

  ==> Input File <==

--------------------------------------------------------------------------
molecule {
1 3
Be   0.00000        0.60000        0.00000
Na   0.00000       -0.60000        0.00000
}

set {
basis              cc-pvdz
reference          uks
maxiter            500
geom_maxiter       500
DAMPING_PERCENTAGE 1
guess              SAP
}

optimize('b3lyp')
--------------------------------------------------------------------------

    Molecular point group: c2v
  Charge       = 1
  Multiplicity = 3
  Basis Set: CC-PVDZ
    Blend: CC-PVDZ
  Basis Set: (CC-PVDZ AUX)
    Blend: DEF2-UNIVERSAL-JKFIT
  @DF-UKS Final Energy:  -176.33127604701264
    Total Energy =                       -176.3312760470126364
 Dipole X            :          0.0000000            0.0000000            0.0000000
 Dipole Y            :          0.0000000            0.0000000            0.0000000
 Dipole Z            :         -0.0319756           -0.5084189           -0.5403945
 Magnitude           :                                                    0.5403945
    Molecular point group: c2v
  Basis Set: CC-PVDZ
    Blend: CC-PVDZ
  Basis Set: (CC-PVDZ AUX)
    Blend: DEF2-UNIVERSAL-JKFIT
  Basis Set: CC-PVDZ
    Blend: CC-PVDZ
  Basis Set: (CC-PVDZ AUX)
    Blend: DEF2-UNIVERSAL-JKFIT
  @DF-UKS Final Energy:  -176.38628385948721
    Total Energy =                       -176.3862838594872073
  Basis Set: CC-PVDZ
    Blend: CC-PVDZ
  Basis Set: (CC-PVDZ AUX)
    Blend: DEF2-UNIVERSAL-JKFIT
  Basis Set: CC-PVDZ
    Blend: CC-PVDZ
  @DF-UKS Final Energy:  -176.45258966351767
    Total Energy =                       -176.4525896635176991
  @DF-UKS Final Energy:  -176.54235795891265
    Total Energy =                       -176.5423579589126462
  @DF-UKS Final Energy:  -176.60624259743975
    Total Energy =                       -176.6062425974397456
  @DF-UKS Final Energy:  -176.64331932958311
    Total Energy =                       -176.6433193295831074
  @DF-UKS Final Energy:  -176.66153200747559
    Total Energy =                       -176.6615320074755857
  @DF-UKS Final Energy:  -176.67019945689992
    Total Energy =                       -176.6701994568999510
  @DF-UKS Final Energy:  -176.67420634824450
    Total Energy =                       -176.6742063482445246
  @DF-UKS Final Energy:  -176.67585604052275
    Total Energy =                       -176.6758560405227456
  @DF-UKS Final Energy:  -176.67639732293514
    Total Energy =                       -176.6763973229351166
  @DF-UKS Final Energy:  -176.67651642783025
    Total Energy =                       -176.6765164278302791
  @DF-UKS Final Energy:  -176.67652829791433
    Total Energy =                       -176.6765282979143308
  Basis Set: (CC-PVDZ AUX)
    Blend: DEF2-UNIVERSAL-JKFIT
  Basis Set: CC-PVDZ
    Blend: CC-PVDZ
  Basis Set: (CC-PVDZ AUX)
    Blend: DEF2-UNIVERSAL-JKFIT
  @DF-UKS Final Energy:  -176.67652954718906
    Total Energy =                       -176.6765295471890624
  Basis Set: CC-PVDZ
    Blend: CC-PVDZ
  Basis Set: (CC-PVDZ AUX)
    Blend: DEF2-UNIVERSAL-JKFIT
  Charge       = 1
  Multiplicity = 3
  Basis Set: CC-PVDZ
    Blend: CC-PVDZ
  Basis Set: (CC-PVDZ AUX)
    Blend: DEF2-UNIVERSAL-JKFIT

    Orbital Energies [Eh]
    ---------------------

    Alpha Occupied:

       1A1   -38.749518     2A1    -4.291302     3A1    -2.487365
       4A1    -1.418682     1B1    -1.418603     1B2    -1.418276
       5A1    -0.446688     2B2    -0.303806

    Alpha Virtual:

       6A1    -0.265558     2B1    -0.229390     7A1    -0.203039
       3B2    -0.143659     3B1    -0.135276     8A1    -0.106463
       9A1    -0.063683     4B2    -0.049834     4B1    -0.046886
      10A1    -0.032646     1A2     0.010253     5B2     0.010346
      11A1     0.012076     5B1     0.019067    12A1     0.024960
       6B2     0.050846     6B1     0.064987    13A1     0.126573
      14A1     0.146624     2A2     0.285354    15A1     0.295633
       7B2     0.341640     7B1     0.360312    16A1     0.491393

    Beta Occupied:

       1A1   -38.749271     2A1    -4.273384     3A1    -2.486915
       1B1    -1.418404     4A1    -1.418270     1B2    -1.417940

    Beta Virtual:

       5A1    -0.303063     6A1    -0.237936     2B1    -0.177432
       7A1    -0.170033     2B2    -0.161671     3B1    -0.126823
       3B2    -0.111036     8A1    -0.088759     9A1    -0.056918
       4B1    -0.045579     4B2    -0.044369    10A1    -0.024528
       1A2     0.009163    11A1     0.009834     5B1     0.025288
       5B2     0.032589    12A1     0.046321     6B1     0.086047
       6B2     0.105922    13A1     0.139073    14A1     0.196386
      15A1     0.392920     2A2     0.396116     7B1     0.418784
       7B2     0.446100    16A1     0.553022

    Final Occupation by Irrep:
             A1    A2    B1    B2
    DOCC [     4,    0,    1,    1 ]
    SOCC [     1,    0,    0,    1 ]
    NA   [     5,    0,    1,    2 ]
    NB   [     4,    0,    1,    1 ]

  @DF-UKS Final Energy:  -176.67652968130307

   => Energetics <=

    Nuclear Repulsion Energy =              7.4694059190172517
    One-Electron Energy =                -258.1280737987414113
    Two-Electron Energy =                  87.7587210488217835
    DFT Exchange-Correlation Energy =     -13.7765828504006969
    Empirical Dispersion Energy =           0.0000000000000000
    VV10 Nonlocal Energy =                  0.0000000000000000
    Total Energy =                       -176.6765296813030659

  UHF NO Occupations:
  HONO-2 :    4 A1 1.9999991
  HONO-1 :    5 A1 1.0000000
  HONO-0 :    2 B2 1.0000000
  LUNO+0 :    6 A1 0.0000009
  LUNO+1 :    7 A1 0.0000008
  LUNO+2 :    2 B1 0.0000002
  LUNO+3 :    3 B2 0.0000002

Computation Completed

Properties will be evaluated at   0.000000,   0.000000,   0.000000 [a0]

Properties computed using the SCF density matrix

 Multipole Moments:

 ------------------------------------------------------------------------------------
     Multipole            Electronic (a.u.)      Nuclear  (a.u.)        Total (a.u.)
 ------------------------------------------------------------------------------------

 L = 1.  Multiply by 2.5417464519 to convert [e a0] to [Debye]
 Dipole X            :          0.0000000            0.0000000            0.0000000
 Dipole Y            :          0.0000000            0.0000000            0.0000000
 Dipole Z            :          0.7480175           -1.3207123           -0.5726948
 Magnitude           :                                                    0.5726948

 ------------------------------------------------------------------------------------

*** tstop() called on Joses-MacBook-Pro-2.local at Thu Jul 17 13:20:59 2025
Module time:
	user time   =       2.85 seconds =       0.05 minutes
	system time =       2.59 seconds =       0.04 minutes
	total time  =          1 seconds =       0.02 minutes
Total time:
	user time   =      47.40 seconds =       0.79 minutes
	system time =      89.05 seconds =       1.48 minutes
	total time  =         14 seconds =       0.23 minutes

*** tstart() called on Joses-MacBook-Pro-2.local
*** at Thu Jul 17 13:20:59 2025

         ------------------------------------------------------------
                                   SCF GRAD
                          Rob Parrish, Justin Turney,
                       Andy Simmonett, and Alex Sokolov
         ------------------------------------------------------------

  ==> Geometry <==

    Molecular point group: c2v
    Full point group: C_inf_v

    Geometry (in Angstrom), charge = 1, multiplicity = 3:

       Center              X                  Y                   Z               Mass
    ------------   -----------------  -----------------  -----------------  -----------------
         BE           0.000000000000     0.000000000000     2.239370157867     9.012183065000
         NA           0.000000000000     0.000000000000    -0.877851950815    22.989769282000

  Nuclear repulsion =    7.469405919017252

  ==> Basis Set <==

  Basis Set: CC-PVDZ
    Blend: CC-PVDZ
    Number of shells: 14
    Number of basis functions: 32
    Number of Cartesian functions: 34
    Spherical Harmonics?: true
    Max angular momentum: 2

  ==> DFJKGrad: Density-Fitted SCF Gradients <==

    Gradient:                    1
    J tasked:                  Yes
    K tasked:                  Yes
    wK tasked:                  No
    OpenMP threads:              1
    Integrals threads:           1
    Memory [MiB]:              375
    Schwarz Cutoff:          1E-12
    Fitting Condition:       1E-10

   => Auxiliary Basis Set <=

  Basis Set: (CC-PVDZ AUX)
    Blend: DEF2-UNIVERSAL-JKFIT
    Number of shells: 51
    Number of basis functions: 163
    Number of Cartesian functions: 197
    Spherical Harmonics?: true
    Max angular momentum: 4

  ==> DFT Potential <==

   => LibXC <=

    Version 6.2.2
    S. Lehtola, C. Steigemann, M. J.T. Oliveira, and M. A.L. Marques.,  SoftwareX 7, 1â€“5 (2018) (10.1016/j.softx.2017.11.002)

   => Composite Functional: B3LYP <=

    B3LYP Hyb-GGA Exchange-Correlation Functional

    P. J. Stephens, F. J. Devlin, C. F. Chabalowski, and M. J. Frisch.,  J. Phys. Chem. 98, 11623 (1994) (10.1021/j100096a001)

    Deriv               =              1
    GGA                 =           TRUE
    Meta                =          FALSE

    Exchange Hybrid     =           TRUE
    MP2 Hybrid          =          FALSE

   => Exchange Functionals <=

    0.0800   Slater exchange
    0.7200         Becke 88

   => Exact (HF) Exchange <=

    0.2000               HF

   => Correlation Functionals <=

    0.1900   Vosko, Wilk & Nusair (VWN5_RPA)
    0.8100   Lee, Yang & Parr

   => LibXC Density Thresholds  <==

    XC_HYB_GGA_XC_B3LYP:  1.00E-15

   => Molecular Quadrature <=

    Radial Scheme          =       TREUTLER
    Pruning Scheme         =           NONE
    Nuclear Scheme         =       TREUTLER

    Blocking Scheme        =         OCTREE
    BS radius alpha        =              1
    Pruning alpha          =              1
    Radial Points          =             75
    Spherical Points       =            302
    Total Points           =          43866
    Total Blocks           =            453
    Max Points             =            255
    Max Functions          =             32
    Weights Tolerance      =       1.00E-15

  -Total Gradient:
     Atom            X                  Y                   Z
    ------   -----------------  -----------------  -----------------
       1        0.000000000000     0.000000000000    -0.000016083607
       2        0.000000000000     0.000000000000     0.000010255432

*** tstop() called on Joses-MacBook-Pro-2.local at Thu Jul 17 13:20:59 2025
Module time:
	user time   =       1.63 seconds =       0.03 minutes
	system time =       1.78 seconds =       0.03 minutes
	total time  =          0 seconds =       0.00 minutes
Total time:
	user time   =      49.03 seconds =       0.82 minutes
	system time =      90.84 seconds =       1.51 minutes
	total time  =         14 seconds =       0.23 minutes

    			-----------------------------------------

    			 OPTKING 3.0: for geometry optimizations

    			     By R.A. King, Bethel University

    			        with contributions from

    			    A.V. Copan, J. Cayton, A. Heide

    			-----------------------------------------

	                            ===> Fragment 1 <==

	 Z (Atomic Numbers)          Masses                          Geom
	       4.000000             9.012183          0.00000000  0.00000000  4.23179629
	      11.000000            22.989769          0.00000000  0.00000000 -1.65889977

	 - Coordinate -           - BOHR/RAD -       - ANG/DEG -
	 R(1,2)           =         5.890696           3.117222

	        --- Internal Coordinate Step in ANG or DEG, aJ/ANG or AJ/DEG ---
	-------------------------------------------------------------------------------
	           Coordinate      Previous         Force          Change          New
	           ----------      --------        ------          ------        ------
	               R(1,2)       3.11722        0.00011        0.00123       3.11845
	-------------------------------------------------------------------------------

	                                 ==> Convergence Check <==

	Measures of convergence in internal coordinates in au.

	Criteria marked as inactive (o), active & met (*), and active & unmet ( ).

	----------------------------------------------------------------------------------------------
	   Step    Total Energy     Delta E     Max Force     RMS Force      Max Disp      RMS Disp
	----------------------------------------------------------------------------------------------
	  Convergence Criteria     1.00e-06 *    3.00e-04 *             o    1.20e-03 *             o
	----------------------------------------------------------------------------------------------
	    15    -176.67652968   -1.34e-07 *    1.32e-05 *    1.32e-05 o    2.32e-03      2.32e-03 o  ~
	----------------------------------------------------------------------------------------------

Next Geometry in Ang
	Fragment 1 (Ang)

	   Be   0.0000000000   0.0000000000   2.2399829550
	   Na   0.0000000000   0.0000000000  -0.8784647479

    Final optimized geometry and variables:
    Molecular point group: c2v
    Full point group: C_inf_v

    Geometry (in Angstrom), charge = 1, multiplicity = 3:

    BE           0.000000000000     0.000000000000     2.239370157867
    NA           0.000000000000     0.000000000000    -0.877851950815

    Psi4 stopped on: Thursday, 17 July 2025 01:20PM
    Psi4 wall time for execution: 0:00:14.93

*** Psi4 exiting successfully. Buy a developer a beer!
