                               Psi4 1.9.1 release

  ==> Input File <==

--------------------------------------------------------------------------
molecule {
1 3
C   0.00000        0.60000        0.00000
Cl   0.00000       -0.60000        0.00000
}

set {
basis              cc-pvdz
reference          uks
maxiter            500
geom_maxiter       500
DAMPING_PERCENTAGE 1
guess              SAP
}

optimize('b3lyp')
--------------------------------------------------------------------------

    Molecular point group: c2v
  Charge       = 1
  Multiplicity = 3
  Basis Set: CC-PVDZ
    Blend: CC-PVDZ
  Basis Set: (CC-PVDZ AUX)
    Blend: CC-PVDZ-JKFIT
  @DF-UKS Final Energy:  -497.47488531271887
    Total Energy =                       -497.4748853127188681
 Dipole X            :          0.0000000            0.0000000            0.0000000
 Dipole Y            :          0.0000000            0.0000000            0.0000000
 Dipole Z            :         -0.0974348            0.2806591            0.1832243
 Magnitude           :                                                    0.1832243
    Molecular point group: c2v
  Basis Set: CC-PVDZ
    Blend: CC-PVDZ
  Basis Set: (CC-PVDZ AUX)
    Blend: CC-PVDZ-JKFIT
  Basis Set: CC-PVDZ
    Blend: CC-PVDZ
  Basis Set: (CC-PVDZ AUX)
    Blend: CC-PVDZ-JKFIT
  @DF-UKS Final Energy:  -497.62918152096836
    Total Energy =                       -497.6291815209683591
  Basis Set: CC-PVDZ
    Blend: CC-PVDZ
  Basis Set: (CC-PVDZ AUX)
    Blend: CC-PVDZ-JKFIT
  Basis Set: CC-PVDZ
    Blend: CC-PVDZ
  @DF-UKS Final Energy:  -497.68847647085818
    Total Energy =                       -497.6884764708581770
  @DF-UKS Final Energy:  -497.70481388724318
    Total Energy =                       -497.7048138872431764
  @DF-UKS Final Energy:  -497.71200797085550
    Total Energy =                       -497.7120079708554954
  @DF-UKS Final Energy:  -497.71371697412883
    Total Energy =                       -497.7137169741288290
  @DF-UKS Final Energy:  -497.71418425008494
    Total Energy =                       -497.7141842500849407
  @DF-UKS Final Energy:  -497.71435276934130
    Total Energy =                       -497.7143527693413034
  Basis Set: (CC-PVDZ AUX)
    Blend: CC-PVDZ-JKFIT
  Basis Set: CC-PVDZ
    Blend: CC-PVDZ
  Basis Set: (CC-PVDZ AUX)
    Blend: CC-PVDZ-JKFIT
  @DF-UKS Final Energy:  -497.71438106033651
    Total Energy =                       -497.7143810603365068
  Basis Set: CC-PVDZ
    Blend: CC-PVDZ
  Basis Set: (CC-PVDZ AUX)
    Blend: CC-PVDZ-JKFIT
  Charge       = 1
  Multiplicity = 3
  Basis Set: CC-PVDZ
    Blend: CC-PVDZ
  Basis Set: (CC-PVDZ AUX)
    Blend: CC-PVDZ-JKFIT

    Orbital Energies [Eh]
    ---------------------

    Alpha Occupied:

       1A1  -101.962627     2A1   -10.706150     3A1    -9.876231
       4A1    -7.640596     1B2    -7.630574     1B1    -7.627706
       5A1    -1.284363     6A1    -0.951843     7A1    -0.760830
       2B1    -0.747741     2B2    -0.731875     3B1    -0.559339

    Alpha Virtual:

       3B2    -0.466847     8A1    -0.223440     9A1     0.082443
       4B1     0.157772     4B2     0.167698    10A1     0.192696
      11A1     0.220314     5B1     0.237176     5B2     0.238734
       1A2     0.343442    12A1     0.344075     6B1     0.344965
       6B2     0.346320    13A1     0.591691     2A2     0.787659
      14A1     0.791821    15A1     0.861250     7B1     1.069249
       7B2     1.071941    16A1     1.429331

    Beta Occupied:

       1A1  -101.960564     2A1   -10.670467     3A1    -9.874247
       4A1    -7.635532     1B2    -7.631352     1B1    -7.622858
       5A1    -1.261542     6A1    -0.890200     2B2    -0.724752
       2B1    -0.701885

    Beta Virtual:

       7A1    -0.547289     3B2    -0.413015     3B1    -0.374177
       8A1    -0.181392     9A1     0.101676     4B2     0.184321
       4B1     0.204744    10A1     0.233291     5B2     0.255843
       5B1     0.276716    11A1     0.280418     1A2     0.351733
      12A1     0.351865     6B2     0.362282     6B1     0.382418
      13A1     0.614624    14A1     0.870101     2A2     0.871913
      15A1     0.891934     7B2     1.129865     7B1     1.160478
      16A1     1.507749

    Final Occupation by Irrep:
             A1    A2    B1    B2
    DOCC [     6,    0,    2,    2 ]
    SOCC [     1,    0,    1,    0 ]
    NA   [     7,    0,    3,    2 ]
    NB   [     6,    0,    2,    2 ]

  @DF-UKS Final Energy:  -497.71438340878541

   => Energetics <=

    Nuclear Repulsion Energy =             34.2698894662012989
    One-Electron Energy =                -745.4449904162004259
    Two-Electron Energy =                 240.2401512051155237
    DFT Exchange-Correlation Energy =     -26.7794336639018518
    Empirical Dispersion Energy =           0.0000000000000000
    VV10 Nonlocal Energy =                  0.0000000000000000
    Total Energy =                       -497.7143834087854088

  UHF NO Occupations:
  HONO-2 :    2 B2 1.9932785
  HONO-1 :    3 B1 1.0000000
  HONO-0 :    7 A1 1.0000000
  LUNO+0 :    3 B2 0.0067215
  LUNO+1 :    4 B1 0.0007698
  LUNO+2 :    8 A1 0.0003771
  LUNO+3 :    9 A1 0.0001176

Computation Completed

Properties will be evaluated at   0.000000,   0.000000,   0.000000 [a0]

Properties computed using the SCF density matrix

 Multipole Moments:

 ------------------------------------------------------------------------------------
     Multipole            Electronic (a.u.)      Nuclear  (a.u.)        Total (a.u.)
 ------------------------------------------------------------------------------------

 L = 1.  Multiply by 2.5417464519 to convert [e a0] to [Debye]
 Dipole X            :          0.0000000            0.0000000            0.0000000
 Dipole Y            :          0.0000000            0.0000000            0.0000000
 Dipole Z            :          0.2706550            0.3683719            0.6390269
 Magnitude           :                                                    0.6390269

 ------------------------------------------------------------------------------------

*** tstop() called on Joses-MacBook-Pro-2.local at Thu Jul 17 13:46:47 2025
Module time:
	user time   =       3.67 seconds =       0.06 minutes
	system time =       2.52 seconds =       0.04 minutes
	total time  =          0 seconds =       0.00 minutes
Total time:
	user time   =      38.92 seconds =       0.65 minutes
	system time =      63.10 seconds =       1.05 minutes
	total time  =          9 seconds =       0.15 minutes

*** tstart() called on Joses-MacBook-Pro-2.local
*** at Thu Jul 17 13:46:47 2025

         ------------------------------------------------------------
                                   SCF GRAD
                          Rob Parrish, Justin Turney,
                       Andy Simmonett, and Alex Sokolov
         ------------------------------------------------------------

  ==> Geometry <==

    Molecular point group: c2v
    Full point group: C_inf_v

    Geometry (in Angstrom), charge = 1, multiplicity = 3:

       Center              X                  Y                   Z               Mass
    ------------   -----------------  -----------------  -----------------  -----------------
         C            0.000000000000     0.000000000000     1.172627385927    12.000000000000
         CL           0.000000000000     0.000000000000    -0.402401781925    34.968852682000

  Nuclear repulsion =   34.269889466201299

  ==> Basis Set <==

  Basis Set: CC-PVDZ
    Blend: CC-PVDZ
    Number of shells: 14
    Number of basis functions: 32
    Number of Cartesian functions: 34
    Spherical Harmonics?: true
    Max angular momentum: 2

  ==> DFJKGrad: Density-Fitted SCF Gradients <==

    Gradient:                    1
    J tasked:                  Yes
    K tasked:                  Yes
    wK tasked:                  No
    OpenMP threads:              1
    Integrals threads:           1
    Memory [MiB]:              375
    Schwarz Cutoff:          1E-12
    Fitting Condition:       1E-10

   => Auxiliary Basis Set <=

  Basis Set: (CC-PVDZ AUX)
    Blend: CC-PVDZ-JKFIT
    Number of shells: 60
    Number of basis functions: 182
    Number of Cartesian functions: 211
    Spherical Harmonics?: true
    Max angular momentum: 3

  ==> DFT Potential <==

   => LibXC <=

    Version 6.2.2
    S. Lehtola, C. Steigemann, M. J.T. Oliveira, and M. A.L. Marques.,  SoftwareX 7, 1â€“5 (2018) (10.1016/j.softx.2017.11.002)

   => Composite Functional: B3LYP <=

    B3LYP Hyb-GGA Exchange-Correlation Functional

    P. J. Stephens, F. J. Devlin, C. F. Chabalowski, and M. J. Frisch.,  J. Phys. Chem. 98, 11623 (1994) (10.1021/j100096a001)

    Deriv               =              1
    GGA                 =           TRUE
    Meta                =          FALSE

    Exchange Hybrid     =           TRUE
    MP2 Hybrid          =          FALSE

   => Exchange Functionals <=

    0.0800   Slater exchange
    0.7200         Becke 88

   => Exact (HF) Exchange <=

    0.2000               HF

   => Correlation Functionals <=

    0.1900   Vosko, Wilk & Nusair (VWN5_RPA)
    0.8100   Lee, Yang & Parr

   => LibXC Density Thresholds  <==

    XC_HYB_GGA_XC_B3LYP:  1.00E-15

   => Molecular Quadrature <=

    Radial Scheme          =       TREUTLER
    Pruning Scheme         =           NONE
    Nuclear Scheme         =       TREUTLER

    Blocking Scheme        =         OCTREE
    BS radius alpha        =              1
    Pruning alpha          =              1
    Radial Points          =             75
    Spherical Points       =            302
    Total Points           =          41096
    Total Blocks           =            367
    Max Points             =            255
    Max Functions          =             32
    Weights Tolerance      =       1.00E-15

  -Total Gradient:
     Atom            X                  Y                   Z
    ------   -----------------  -----------------  -----------------
       1        0.000000000000    -0.000000000000    -0.000234704044
       2       -0.000000000000     0.000000000000     0.000218160570

*** tstop() called on Joses-MacBook-Pro-2.local at Thu Jul 17 13:46:47 2025
Module time:
	user time   =       0.82 seconds =       0.01 minutes
	system time =       1.52 seconds =       0.03 minutes
	total time  =          0 seconds =       0.00 minutes
Total time:
	user time   =      39.74 seconds =       0.66 minutes
	system time =      64.62 seconds =       1.08 minutes
	total time  =          9 seconds =       0.15 minutes

    			-----------------------------------------

    			 OPTKING 3.0: for geometry optimizations

    			     By R.A. King, Bethel University

    			        with contributions from

    			    A.V. Copan, J. Cayton, A. Heide

    			-----------------------------------------

	                            ===> Fragment 1 <==

	 Z (Atomic Numbers)          Masses                          Geom
	       6.000000            12.000000          0.00000000  0.00000000  2.21594461
	      17.000000            34.968853          0.00000000  0.00000000 -0.76042916

	 - Coordinate -           - BOHR/RAD -       - ANG/DEG -
	 R(1,2)           =         2.976374           1.575029

	        --- Internal Coordinate Step in ANG or DEG, aJ/ANG or AJ/DEG ---
	-------------------------------------------------------------------------------
	           Coordinate      Previous         Force          Change          New
	           ----------      --------        ------          ------        ------
	               R(1,2)       1.57503        0.00187        0.00027       1.57530
	-------------------------------------------------------------------------------

	                                 ==> Convergence Check <==

	Measures of convergence in internal coordinates in au.

	Criteria marked as inactive (o), active & met (*), and active & unmet ( ).

	----------------------------------------------------------------------------------------------
	   Step    Total Energy     Delta E     Max Force     RMS Force      Max Disp      RMS Disp
	----------------------------------------------------------------------------------------------
	  Convergence Criteria     1.00e-06 *    3.00e-04 *             o    1.20e-03 *             o
	----------------------------------------------------------------------------------------------
	    10    -497.71438341   -2.35e-06      2.26e-04 *    2.26e-04 o    5.08e-04 *    5.08e-04 o  ~
	----------------------------------------------------------------------------------------------

Next Geometry in Ang
	Fragment 1 (Ang)

	    C   0.0000000000   0.0000000000   1.1727618899
	   Cl   0.0000000000   0.0000000000  -0.4025362859

    Final optimized geometry and variables:
    Molecular point group: c2v
    Full point group: C_inf_v

    Geometry (in Angstrom), charge = 1, multiplicity = 3:

    C            0.000000000000     0.000000000000     1.172627385927
    CL           0.000000000000     0.000000000000    -0.402401781925

    Psi4 stopped on: Thursday, 17 July 2025 01:46PM
    Psi4 wall time for execution: 0:00:10.50

*** Psi4 exiting successfully. Buy a developer a beer!
