                               Psi4 1.9.1 release

  ==> Input File <==

--------------------------------------------------------------------------
molecule {
1 3
H   0.00000        0.60000        0.00000
He   0.00000       -0.60000        0.00000
}

set {
basis              cc-pvdz
reference          uks
maxiter            500
geom_maxiter       500
DAMPING_PERCENTAGE 1
guess              SAP
}

optimize('b3lyp')
--------------------------------------------------------------------------

    Molecular point group: c2v
  Charge       = 1
  Multiplicity = 3
  Basis Set: CC-PVDZ
    Blend: CC-PVDZ
  Basis Set: (CC-PVDZ AUX)
    Blend: CC-PVDZ-JKFIT + DEF2-UNIVERSAL-JKFIT
  @DF-UKS Final Energy:    -2.41553018226889
    Total Energy =                         -2.4155301822688866
 Dipole X            :          0.0000000            0.0000000            0.0000000
 Dipole Y            :          0.0000000            0.0000000            0.0000000
 Dipole Z            :         -1.3628335            0.8992758           -0.4635577
 Magnitude           :                                                    0.4635577
    Molecular point group: c2v
  Basis Set: CC-PVDZ
    Blend: CC-PVDZ
  Basis Set: (CC-PVDZ AUX)
    Blend: CC-PVDZ-JKFIT + DEF2-UNIVERSAL-JKFIT
  Basis Set: CC-PVDZ
    Blend: CC-PVDZ
  Basis Set: (CC-PVDZ AUX)
    Blend: CC-PVDZ-JKFIT + DEF2-UNIVERSAL-JKFIT
  @DF-UKS Final Energy:    -2.46253379480800
    Total Energy =                         -2.4625337948080013
  Basis Set: CC-PVDZ
    Blend: CC-PVDZ
  Basis Set: (CC-PVDZ AUX)
    Blend: CC-PVDZ-JKFIT + DEF2-UNIVERSAL-JKFIT
  Basis Set: CC-PVDZ
    Blend: CC-PVDZ
  @DF-UKS Final Energy:    -2.47688079842471
    Total Energy =                         -2.4768807984247063
  @DF-UKS Final Energy:    -2.48573916943378
    Total Energy =                         -2.4857391694337814
  @DF-UKS Final Energy:    -2.49016736764322
    Total Energy =                         -2.4901673676432150
  @DF-UKS Final Energy:    -2.49247076674257
    Total Energy =                         -2.4924707667425681
  @DF-UKS Final Energy:    -2.49362177263603
    Total Energy =                         -2.4936217726360321
  @DF-UKS Final Energy:    -2.49417744413228
    Total Energy =                         -2.4941774441322782
  @DF-UKS Final Energy:    -2.49443292800526
    Total Energy =                         -2.4944329280052635
  @DF-UKS Final Energy:    -2.49454366921615
    Total Energy =                         -2.4945436692161547
  @DF-UKS Final Energy:    -2.49458743071940
    Total Energy =                         -2.4945874307194020
  @DF-UKS Final Energy:    -2.49459948367912
    Total Energy =                         -2.4945994836791163
  @DF-UKS Final Energy:    -2.49460463981295
    Total Energy =                         -2.4946046398129451
  Basis Set: (CC-PVDZ AUX)
    Blend: CC-PVDZ-JKFIT + DEF2-UNIVERSAL-JKFIT
  Basis Set: CC-PVDZ
    Blend: CC-PVDZ
  Basis Set: (CC-PVDZ AUX)
    Blend: CC-PVDZ-JKFIT + DEF2-UNIVERSAL-JKFIT
  @DF-UKS Final Energy:    -2.49460585566186
    Total Energy =                         -2.4946058556618635
  Basis Set: CC-PVDZ
    Blend: CC-PVDZ
  Basis Set: (CC-PVDZ AUX)
    Blend: CC-PVDZ-JKFIT + DEF2-UNIVERSAL-JKFIT
  Charge       = 1
  Multiplicity = 3
  Basis Set: CC-PVDZ
    Blend: CC-PVDZ
  Basis Set: (CC-PVDZ AUX)
    Blend: CC-PVDZ-JKFIT + DEF2-UNIVERSAL-JKFIT

    Orbital Energies [Eh]
    ---------------------

    Alpha Occupied:

       1A1    -1.631439     2A1    -0.489659

    Alpha Virtual:

       3A1     0.235641     4A1     0.408848     5A1     1.036969
       1B1     1.041647     1B2     1.041647     2B1     1.325379
       2B2     1.325379     6A1     1.326819

    Beta Occupied:

    Beta Virtual:

       1A1    -0.956824     2A1    -0.185698     3A1     0.484032
       4A1     0.748532     5A1     1.285717     1B1     1.290546
       1B2     1.290546     2B2     1.678720     2B1     1.678720
       6A1     1.679985

    Final Occupation by Irrep:
             A1    A2    B1    B2
    DOCC [     0,    0,    0,    0 ]
    SOCC [     2,    0,    0,    0 ]
    NA   [     2,    0,    0,    0 ]
    NB   [     0,    0,    0,    0 ]

  @DF-UKS Final Energy:    -2.49460625866993

   => Energetics <=

    Nuclear Repulsion Energy =              0.3400023884821254
    One-Electron Energy =                  -3.0036219546005105
    Two-Electron Energy =                   0.9140418698816508
    DFT Exchange-Correlation Energy =      -0.7450285624331943
    Empirical Dispersion Energy =           0.0000000000000000
    VV10 Nonlocal Energy =                  0.0000000000000000
    Total Energy =                         -2.4946062586699287

  UHF NO Occupations:
  HONO-1 :    1 A1 1.0000000
  HONO-0 :    2 A1 1.0000000
  LUNO+0 :    3 A1 0.0000000
  LUNO+1 :    4 A1 0.0000000
  LUNO+2 :    2 B2 0.0000000
  LUNO+3 :    1 B2 0.0000000

Computation Completed

Properties will be evaluated at   0.000000,   0.000000,   0.000000 [a0]

Properties computed using the SCF density matrix

 Multipole Moments:

 ------------------------------------------------------------------------------------
     Multipole            Electronic (a.u.)      Nuclear  (a.u.)        Total (a.u.)
 ------------------------------------------------------------------------------------

 L = 1.  Multiply by 2.5417464519 to convert [e a0] to [Debye]
 Dipole X            :          0.0000000            0.0000000            0.0000000
 Dipole Y            :          0.0000000            0.0000000            0.0000000
 Dipole Z            :         -3.4955638            2.3327103           -1.1628535
 Magnitude           :                                                    1.1628535

 ------------------------------------------------------------------------------------

*** tstop() called on Joses-MacBook-Pro-2.local at Thu Jul 17 12:18:41 2025
Module time:
	user time   =       0.65 seconds =       0.01 minutes
	system time =       1.16 seconds =       0.02 minutes
	total time  =          0 seconds =       0.00 minutes
Total time:
	user time   =      14.93 seconds =       0.25 minutes
	system time =      27.86 seconds =       0.46 minutes
	total time  =          5 seconds =       0.08 minutes

*** tstart() called on Joses-MacBook-Pro-2.local
*** at Thu Jul 17 12:18:41 2025

         ------------------------------------------------------------
                                   SCF GRAD
                          Rob Parrish, Justin Turney,
                       Andy Simmonett, and Alex Sokolov
         ------------------------------------------------------------

  ==> Geometry <==

    Molecular point group: c2v
    Full point group: C_inf_v

    Geometry (in Angstrom), charge = 1, multiplicity = 3:

       Center              X                  Y                   Z               Mass
    ------------   -----------------  -----------------  -----------------  -----------------
         H            0.000000000000     0.000000000000     2.486662551928     1.007825032230
         HE           0.000000000000     0.000000000000    -0.626122702508     4.002603254130

  Nuclear repulsion =    0.340002388482125

  ==> Basis Set <==

  Basis Set: CC-PVDZ
    Blend: CC-PVDZ
    Number of shells: 6
    Number of basis functions: 10
    Number of Cartesian functions: 10
    Spherical Harmonics?: true
    Max angular momentum: 1

  ==> DFJKGrad: Density-Fitted SCF Gradients <==

    Gradient:                    1
    J tasked:                  Yes
    K tasked:                  Yes
    wK tasked:                  No
    OpenMP threads:              1
    Integrals threads:           1
    Memory [MiB]:              375
    Schwarz Cutoff:          1E-12
    Fitting Condition:       1E-10

   => Auxiliary Basis Set <=

  Basis Set: (CC-PVDZ AUX)
    Blend: CC-PVDZ-JKFIT + DEF2-UNIVERSAL-JKFIT
    Number of shells: 18
    Number of basis functions: 46
    Number of Cartesian functions: 50
    Spherical Harmonics?: true
    Max angular momentum: 2

  ==> DFT Potential <==

   => LibXC <=

    Version 6.2.2
    S. Lehtola, C. Steigemann, M. J.T. Oliveira, and M. A.L. Marques.,  SoftwareX 7, 1â€“5 (2018) (10.1016/j.softx.2017.11.002)

   => Composite Functional: B3LYP <=

    B3LYP Hyb-GGA Exchange-Correlation Functional

    P. J. Stephens, F. J. Devlin, C. F. Chabalowski, and M. J. Frisch.,  J. Phys. Chem. 98, 11623 (1994) (10.1021/j100096a001)

    Deriv               =              1
    GGA                 =           TRUE
    Meta                =          FALSE

    Exchange Hybrid     =           TRUE
    MP2 Hybrid          =          FALSE

   => Exchange Functionals <=

    0.0800   Slater exchange
    0.7200         Becke 88

   => Exact (HF) Exchange <=

    0.2000               HF

   => Correlation Functionals <=

    0.1900   Vosko, Wilk & Nusair (VWN5_RPA)
    0.8100   Lee, Yang & Parr

   => LibXC Density Thresholds  <==

    XC_HYB_GGA_XC_B3LYP:  1.00E-15

   => Molecular Quadrature <=

    Radial Scheme          =       TREUTLER
    Pruning Scheme         =           NONE
    Nuclear Scheme         =       TREUTLER

    Blocking Scheme        =         OCTREE
    BS radius alpha        =              1
    Pruning alpha          =              1
    Radial Points          =             75
    Spherical Points       =            302
    Total Points           =          44684
    Total Blocks           =            386
    Max Points             =            254
    Max Functions          =             10
    Weights Tolerance      =       1.00E-15

  -Total Gradient:
     Atom            X                  Y                   Z
    ------   -----------------  -----------------  -----------------
       1       -0.000000000000     0.000000000000    -0.000005502822
       2       -0.000000000000     0.000000000000     0.000005915271

*** tstop() called on Joses-MacBook-Pro-2.local at Thu Jul 17 12:18:41 2025
Module time:
	user time   =       0.13 seconds =       0.00 minutes
	system time =       0.42 seconds =       0.01 minutes
	total time  =          0 seconds =       0.00 minutes
Total time:
	user time   =      15.07 seconds =       0.25 minutes
	system time =      28.28 seconds =       0.47 minutes
	total time  =          5 seconds =       0.08 minutes

    			-----------------------------------------

    			 OPTKING 3.0: for geometry optimizations

    			     By R.A. King, Bethel University

    			        with contributions from

    			    A.V. Copan, J. Cayton, A. Heide

    			-----------------------------------------

	                            ===> Fragment 1 <==

	 Z (Atomic Numbers)          Masses                          Geom
	       1.000000             1.007825          0.00000000  0.00000000  4.69911119
	       2.000000             4.002603          0.00000000  0.00000000 -1.18320043

	 - Coordinate -           - BOHR/RAD -       - ANG/DEG -
	 R(1,2)           =         5.882312           3.112785

	        --- Internal Coordinate Step in ANG or DEG, aJ/ANG or AJ/DEG ---
	-------------------------------------------------------------------------------
	           Coordinate      Previous         Force          Change          New
	           ----------      --------        ------          ------        ------
	               R(1,2)       3.11279        0.00005        0.00821       3.12100
	-------------------------------------------------------------------------------

	                                 ==> Convergence Check <==

	Measures of convergence in internal coordinates in au.

	Criteria marked as inactive (o), active & met (*), and active & unmet ( ).

	----------------------------------------------------------------------------------------------
	   Step    Total Energy     Delta E     Max Force     RMS Force      Max Disp      RMS Disp
	----------------------------------------------------------------------------------------------
	  Convergence Criteria     1.00e-06 *    3.00e-04 *             o    1.20e-03 *             o
	----------------------------------------------------------------------------------------------
	    15      -2.49460626   -4.03e-07 *    5.71e-06 *    5.71e-06 o    1.55e-02      1.55e-02 o  ~
	----------------------------------------------------------------------------------------------

Next Geometry in Ang
	Fragment 1 (Ang)

	    H   0.0000000000   0.0000000000   2.4907700100
	   He   0.0000000000   0.0000000000  -0.6302301606

    Final optimized geometry and variables:
    Molecular point group: c2v
    Full point group: C_inf_v

    Geometry (in Angstrom), charge = 1, multiplicity = 3:

    H            0.000000000000     0.000000000000     2.486662551928
    HE           0.000000000000     0.000000000000    -0.626122702508

    Psi4 stopped on: Thursday, 17 July 2025 12:18PM
    Psi4 wall time for execution: 0:00:05.53

*** Psi4 exiting successfully. Buy a developer a beer!
