                               Psi4 1.9.1 release

  ==> Input File <==

--------------------------------------------------------------------------
molecule {
1 3
S   0.00000        0.60000        0.00000
Cl   0.00000       -0.60000        0.00000
}

set {
basis              cc-pvdz
reference          uks
maxiter            500
geom_maxiter       500
DAMPING_PERCENTAGE 1
guess              SAP
}

optimize('b3lyp')
--------------------------------------------------------------------------

    Molecular point group: c2v
  Charge       = 1
  Multiplicity = 3
  Basis Set: CC-PVDZ
    Blend: CC-PVDZ
  Basis Set: (CC-PVDZ AUX)
    Blend: CC-PVDZ-JKFIT
  @DF-UKS Final Energy:  -856.87512733137453
    Total Energy =                       -856.8751273313746424
 Dipole X            :          0.0000000            0.0000000            0.0000000
 Dipole Y            :          0.0000000            0.0000000            0.0000000
 Dipole Z            :         -0.8833604            0.5412130           -0.3421474
 Magnitude           :                                                    0.3421474
    Molecular point group: c2v
  Basis Set: CC-PVDZ
    Blend: CC-PVDZ
  Basis Set: (CC-PVDZ AUX)
    Blend: CC-PVDZ-JKFIT
  Basis Set: CC-PVDZ
    Blend: CC-PVDZ
  Basis Set: (CC-PVDZ AUX)
    Blend: CC-PVDZ-JKFIT
  @DF-UKS Final Energy:  -856.91957227156252
    Total Energy =                       -856.9195722715625152
  Basis Set: CC-PVDZ
    Blend: CC-PVDZ
  Basis Set: (CC-PVDZ AUX)
    Blend: CC-PVDZ-JKFIT
  Basis Set: CC-PVDZ
    Blend: CC-PVDZ
  @DF-UKS Final Energy:  -857.00115675452696
    Total Energy =                       -857.0011567545269600
  @DF-UKS Final Energy:  -857.25945802586693
    Total Energy =                       -857.2594580258669339
  @DF-UKS Final Energy:  -857.73085216470906
    Total Energy =                       -857.7308521647090629
  @DF-UKS Final Energy:  -857.88320377137870
    Total Energy =                       -857.8832037713785894
  @DF-UKS Final Energy:  -857.97408643691926
    Total Energy =                       -857.9740864369192650
  @DF-UKS Final Energy:  -858.00637088190763
    Total Energy =                       -858.0063708819075146
  @DF-UKS Final Energy:  -858.02059799745371
    Total Energy =                       -858.0205979974537058
  @DF-UKS Final Energy:  -858.02584768785721
    Total Energy =                       -858.0258476878572083
  @DF-UKS Final Energy:  -858.02689068975099
    Total Energy =                       -858.0268906897509851
  @DF-UKS Final Energy:  -858.02712380934202
    Total Energy =                       -858.0271238093420152
  @DF-UKS Final Energy:  -858.02718723707778
    Total Energy =                       -858.0271872370778965
  Basis Set: (CC-PVDZ AUX)
    Blend: CC-PVDZ-JKFIT
  Basis Set: CC-PVDZ
    Blend: CC-PVDZ
  Basis Set: (CC-PVDZ AUX)
    Blend: CC-PVDZ-JKFIT
  @DF-UKS Final Energy:  -858.02719644859371
    Total Energy =                       -858.0271964485935996
  Basis Set: CC-PVDZ
    Blend: CC-PVDZ
  Basis Set: (CC-PVDZ AUX)
    Blend: CC-PVDZ-JKFIT
  Charge       = 1
  Multiplicity = 3
  Basis Set: CC-PVDZ
    Blend: CC-PVDZ
  Basis Set: (CC-PVDZ AUX)
    Blend: CC-PVDZ-JKFIT

    Orbital Energies [Eh]
    ---------------------

    Alpha Occupied:

       1A1  -101.905777     2A1   -89.298574     3A1    -9.822430
       4A1    -8.354301     5A1    -7.583435     1B1    -7.577292
       1B2    -7.577292     2B1    -6.317099     2B2    -6.317099
       6A1    -6.315425     7A1    -1.233223     8A1    -1.012790
       9A1    -0.748017     3B1    -0.711597     3B2    -0.711597
       4B1    -0.587143     4B2    -0.587143

    Alpha Virtual:

      10A1    -0.346528    11A1     0.044293     5B2     0.130635
       5B1     0.130635    12A1     0.175909     6B2     0.186677
       6B1     0.186677     1A2     0.205827    13A1     0.205829
      14A1     0.222925     7B2     0.279787     7B1     0.279787
       2A2     0.398604    15A1     0.398605    16A1     0.456221
      17A1     0.514597     8B2     0.588282     8B1     0.588282
      18A1     1.017343

    Beta Occupied:

       1A1  -101.901840     2A1   -89.288615     3A1    -9.818632
       4A1    -8.344217     5A1    -7.581655     1B1    -7.569607
       1B2    -7.569607     6A1    -6.309549     2B1    -6.297564
       2B2    -6.297564     7A1    -1.207017     8A1    -0.949200
       9A1    -0.722696     3B1    -0.664448     3B2    -0.664448

    Beta Virtual:

       4B1    -0.461054     4B2    -0.461054    10A1    -0.323726
      11A1     0.059902     5B2     0.168067     5B1     0.168067
      12A1     0.192220     6B2     0.221843     6B1     0.221843
      13A1     0.236150     1A2     0.287724    14A1     0.287725
       7B2     0.295056     7B1     0.295056     2A2     0.434212
      15A1     0.434213    16A1     0.472708    17A1     0.534505
       8B2     0.617236     8B1     0.617236    18A1     1.036726

    Final Occupation by Irrep:
             A1    A2    B1    B2
    DOCC [     9,    0,    3,    3 ]
    SOCC [     0,    0,    1,    1 ]
    NA   [     9,    0,    4,    4 ]
    NB   [     9,    0,    3,    3 ]

  @DF-UKS Final Energy:  -858.02719699176919

   => Energetics <=

    Nuclear Repulsion Energy =             74.7902551758720335
    One-Electron Energy =               -1323.1011403227817027
    Two-Electron Energy =                 433.4540462259355422
    DFT Exchange-Correlation Energy =     -43.1703580707951460
    Empirical Dispersion Energy =           0.0000000000000000
    VV10 Nonlocal Energy =                  0.0000000000000000
    Total Energy =                       -858.0271969917691877

  UHF NO Occupations:
  HONO-2 :    9 A1 1.9990144
  HONO-1 :    4 B1 1.0000000
  HONO-0 :    4 B2 1.0000000
  LUNO+0 :   10 A1 0.0009856
  LUNO+1 :    5 B2 0.0005002
  LUNO+2 :    5 B1 0.0005002
  LUNO+3 :   11 A1 0.0001782

Computation Completed

Properties will be evaluated at   0.000000,   0.000000,   0.000000 [a0]

Properties computed using the SCF density matrix

 Multipole Moments:

 ------------------------------------------------------------------------------------
     Multipole            Electronic (a.u.)      Nuclear  (a.u.)        Total (a.u.)
 ------------------------------------------------------------------------------------

 L = 1.  Multiply by 2.5417464519 to convert [e a0] to [Debye]
 Dipole X            :          0.0000000            0.0000000            0.0000000
 Dipole Y            :          0.0000000            0.0000000            0.0000000
 Dipole Z            :         -0.3353222            0.8679846            0.5326623
 Magnitude           :                                                    0.5326623

 ------------------------------------------------------------------------------------

*** tstop() called on Joses-MacBook-Pro-2.local at Thu Jul 17 15:54:00 2025
Module time:
	user time   =       7.65 seconds =       0.13 minutes
	system time =       1.24 seconds =       0.02 minutes
	total time  =          0 seconds =       0.00 minutes
Total time:
	user time   =     177.30 seconds =       2.95 minutes
	system time =      43.21 seconds =       0.72 minutes
	total time  =         20 seconds =       0.33 minutes

*** tstart() called on Joses-MacBook-Pro-2.local
*** at Thu Jul 17 15:54:00 2025

         ------------------------------------------------------------
                                   SCF GRAD
                          Rob Parrish, Justin Turney,
                       Andy Simmonett, and Alex Sokolov
         ------------------------------------------------------------

  ==> Geometry <==

    Molecular point group: c2v
    Full point group: C_inf_v

    Geometry (in Angstrom), charge = 1, multiplicity = 3:

       Center              X                  Y                   Z               Mass
    ------------   -----------------  -----------------  -----------------  -----------------
         S            0.000000000000     0.000000000000     1.005344030407    31.972071174400
         CL           0.000000000000     0.000000000000    -0.919187460544    34.968852682000

  Nuclear repulsion =   74.790255175872034

  ==> Basis Set <==

  Basis Set: CC-PVDZ
    Blend: CC-PVDZ
    Number of shells: 16
    Number of basis functions: 36
    Number of Cartesian functions: 38
    Spherical Harmonics?: true
    Max angular momentum: 2

  ==> DFJKGrad: Density-Fitted SCF Gradients <==

    Gradient:                    1
    J tasked:                  Yes
    K tasked:                  Yes
    wK tasked:                  No
    OpenMP threads:              1
    Integrals threads:           1
    Memory [MiB]:              375
    Schwarz Cutoff:          1E-12
    Fitting Condition:       1E-10

   => Auxiliary Basis Set <=

  Basis Set: (CC-PVDZ AUX)
    Blend: CC-PVDZ-JKFIT
    Number of shells: 72
    Number of basis functions: 224
    Number of Cartesian functions: 260
    Spherical Harmonics?: true
    Max angular momentum: 3

  ==> DFT Potential <==

   => LibXC <=

    Version 6.2.2
    S. Lehtola, C. Steigemann, M. J.T. Oliveira, and M. A.L. Marques.,  SoftwareX 7, 1â€“5 (2018) (10.1016/j.softx.2017.11.002)

   => Composite Functional: B3LYP <=

    B3LYP Hyb-GGA Exchange-Correlation Functional

    P. J. Stephens, F. J. Devlin, C. F. Chabalowski, and M. J. Frisch.,  J. Phys. Chem. 98, 11623 (1994) (10.1021/j100096a001)

    Deriv               =              1
    GGA                 =           TRUE
    Meta                =          FALSE

    Exchange Hybrid     =           TRUE
    MP2 Hybrid          =          FALSE

   => Exchange Functionals <=

    0.0800   Slater exchange
    0.7200         Becke 88

   => Exact (HF) Exchange <=

    0.2000               HF

   => Correlation Functionals <=

    0.1900   Vosko, Wilk & Nusair (VWN5_RPA)
    0.8100   Lee, Yang & Parr

   => LibXC Density Thresholds  <==

    XC_HYB_GGA_XC_B3LYP:  1.00E-15

   => Molecular Quadrature <=

    Radial Scheme          =       TREUTLER
    Pruning Scheme         =           NONE
    Nuclear Scheme         =       TREUTLER

    Blocking Scheme        =         OCTREE
    BS radius alpha        =              1
    Pruning alpha          =              1
    Radial Points          =             75
    Spherical Points       =            302
    Total Points           =          40206
    Total Blocks           =            360
    Max Points             =            256
    Max Functions          =             36
    Weights Tolerance      =       1.00E-15

  -Total Gradient:
     Atom            X                  Y                   Z
    ------   -----------------  -----------------  -----------------
       1       -0.000000000000     0.000000000000    -0.000061113132
       2        0.000000000000    -0.000000000000     0.000072929862

*** tstop() called on Joses-MacBook-Pro-2.local at Thu Jul 17 15:54:01 2025
Module time:
	user time   =       2.22 seconds =       0.04 minutes
	system time =       1.23 seconds =       0.02 minutes
	total time  =          1 seconds =       0.02 minutes
Total time:
	user time   =     179.53 seconds =       2.99 minutes
	system time =      44.44 seconds =       0.74 minutes
	total time  =         21 seconds =       0.35 minutes

    			-----------------------------------------

    			 OPTKING 3.0: for geometry optimizations

    			     By R.A. King, Bethel University

    			        with contributions from

    			    A.V. Copan, J. Cayton, A. Heide

    			-----------------------------------------

	                            ===> Fragment 1 <==

	 Z (Atomic Numbers)          Masses                          Geom
	      16.000000            31.972071          0.00000000  0.00000000  1.89982488
	      17.000000            34.968853          0.00000000  0.00000000 -1.73701256

	 - Coordinate -           - BOHR/RAD -       - ANG/DEG -
	 R(1,2)           =         3.636837           1.924531

	        --- Internal Coordinate Step in ANG or DEG, aJ/ANG or AJ/DEG ---
	-------------------------------------------------------------------------------
	           Coordinate      Previous         Force          Change          New
	           ----------      --------        ------          ------        ------
	               R(1,2)       1.92453        0.00055        0.00012       1.92465
	-------------------------------------------------------------------------------

	                                 ==> Convergence Check <==

	Measures of convergence in internal coordinates in au.

	Criteria marked as inactive (o), active & met (*), and active & unmet ( ).

	----------------------------------------------------------------------------------------------
	   Step    Total Energy     Delta E     Max Force     RMS Force      Max Disp      RMS Disp
	----------------------------------------------------------------------------------------------
	  Convergence Criteria     1.00e-06 *    3.00e-04 *             o    1.20e-03 *             o
	----------------------------------------------------------------------------------------------
	    15    -858.02719699   -5.43e-07 *    6.70e-05 *    6.70e-05 o    2.27e-04 *    2.27e-04 o  ~
	----------------------------------------------------------------------------------------------

Next Geometry in Ang
	Fragment 1 (Ang)

	    S   0.0000000000   0.0000000000   1.0054040558
	   Cl   0.0000000000   0.0000000000  -0.9192474859

    Final optimized geometry and variables:
    Molecular point group: c2v
    Full point group: C_inf_v

    Geometry (in Angstrom), charge = 1, multiplicity = 3:

    S            0.000000000000     0.000000000000     1.005344030407
    CL           0.000000000000     0.000000000000    -0.919187460544

    Psi4 stopped on: Thursday, 17 July 2025 03:54PM
    Psi4 wall time for execution: 0:00:21.78

*** Psi4 exiting successfully. Buy a developer a beer!
