                               Psi4 1.9.1 release

  ==> Input File <==

--------------------------------------------------------------------------
molecule {
1 3
F   0.00000        0.60000        0.00000
Mg   0.00000       -0.60000        0.00000
}

set {
basis              cc-pvdz
reference          uks
maxiter            500
geom_maxiter       500
DAMPING_PERCENTAGE 1
guess              SAP
}

optimize('b3lyp')
--------------------------------------------------------------------------

    Molecular point group: c2v
  Charge       = 1
  Multiplicity = 3
  Basis Set: CC-PVDZ
    Blend: CC-PVDZ
  Basis Set: (CC-PVDZ AUX)
    Blend: CC-PVDZ-JKFIT + DEF2-UNIVERSAL-JKFIT
  @DF-UKS Final Energy:  -299.07339095879161
    Total Energy =                       -299.0733909587914923
 Dipole X            :          0.0000000            0.0000000            0.0000000
 Dipole Y            :          0.0000000            0.0000000            0.0000000
 Dipole Z            :          0.5495831           -0.6391737           -0.0895906
 Magnitude           :                                                    0.0895906
    Molecular point group: c2v
  Basis Set: CC-PVDZ
    Blend: CC-PVDZ
  Basis Set: (CC-PVDZ AUX)
    Blend: CC-PVDZ-JKFIT + DEF2-UNIVERSAL-JKFIT
  Basis Set: CC-PVDZ
    Blend: CC-PVDZ
  Basis Set: (CC-PVDZ AUX)
    Blend: CC-PVDZ-JKFIT + DEF2-UNIVERSAL-JKFIT
  @DF-UKS Final Energy:  -299.27248155170912
    Total Energy =                       -299.2724815517091201
  Basis Set: CC-PVDZ
    Blend: CC-PVDZ
  Basis Set: (CC-PVDZ AUX)
    Blend: CC-PVDZ-JKFIT + DEF2-UNIVERSAL-JKFIT
  Basis Set: CC-PVDZ
    Blend: CC-PVDZ
  @DF-UKS Final Energy:  -299.38736698074359
    Total Energy =                       -299.3873669807435363
  @DF-UKS Final Energy:  -299.44910089190313
    Total Energy =                       -299.4491008919031287
  @DF-UKS Final Energy:  -299.48370266271183
    Total Energy =                       -299.4837026627118348
  @DF-UKS Final Energy:  -299.50393339582280
    Total Energy =                       -299.5039333958227985
  @DF-UKS Final Energy:  -299.51600592127699
    Total Energy =                       -299.5160059212769852
  @DF-UKS Final Energy:  -299.52325768641720
    Total Energy =                       -299.5232576864171392
  @DF-UKS Final Energy:  -299.52751406901109
    Total Energy =                       -299.5275140690110334
  @DF-UKS Final Energy:  -299.52986886768991
    Total Energy =                       -299.5298688676899701
  @DF-UKS Final Energy:  -299.53106928779096
    Total Energy =                       -299.5310692877909560
  @DF-UKS Final Energy:  -299.53164055627485
    Total Energy =                       -299.5316405562748514
  @DF-UKS Final Energy:  -299.53190936660150
    Total Energy =                       -299.5319093666014965
  @DF-UKS Final Energy:  -299.53204814875124
    Total Energy =                       -299.5320481487511870
  @DF-UKS Final Energy:  -299.53213174556481
    Total Energy =                       -299.5321317455649250
  @DF-UKS Final Energy:  -299.53219333495218
    Total Energy =                       -299.5321933349521828
  @DF-UKS Final Energy:  -299.53223945608590
    Total Energy =                       -299.5322394560858470
  @DF-UKS Final Energy:  -299.53225689474681
    Total Energy =                       -299.5322568947468085
  Basis Set: (CC-PVDZ AUX)
    Blend: CC-PVDZ-JKFIT + DEF2-UNIVERSAL-JKFIT
  Basis Set: CC-PVDZ
    Blend: CC-PVDZ
  Basis Set: (CC-PVDZ AUX)
    Blend: CC-PVDZ-JKFIT + DEF2-UNIVERSAL-JKFIT
  @DF-UKS Final Energy:  -299.53226943540329
    Total Energy =                       -299.5322694354032365
  Basis Set: CC-PVDZ
    Blend: CC-PVDZ
  Basis Set: (CC-PVDZ AUX)
    Blend: CC-PVDZ-JKFIT + DEF2-UNIVERSAL-JKFIT
  Charge       = 1
  Multiplicity = 3
  Basis Set: CC-PVDZ
    Blend: CC-PVDZ
  Basis Set: (CC-PVDZ AUX)
    Blend: CC-PVDZ-JKFIT + DEF2-UNIVERSAL-JKFIT

    Orbital Energies [Eh]
    ---------------------

    Alpha Occupied:

       1A1   -47.171111     2A1   -24.913968     3A1    -3.441388
       4A1    -2.184263     1B2    -2.184232     1B1    -2.184232
       5A1    -1.343658     6A1    -0.672164     2B2    -0.580996
       2B1    -0.580996     7A1    -0.464866

    Alpha Virtual:

       3B2    -0.257096     3B1    -0.257096     8A1    -0.257073
       9A1    -0.080274     4B2    -0.031892     4B1    -0.031892
      10A1    -0.029476    11A1     0.051531     5B2     0.052165
       5B1     0.052165     1A2     0.052514    12A1     0.052514
      13A1     0.922065     6B1     0.962761     6B2     0.962761
      14A1     1.333629    15A1     3.306468     7B2     3.328423
       7B1     3.328423     2A2     3.398619    16A1     3.398962

    Beta Occupied:

       1A1   -47.167755     2A1   -24.883403     3A1    -3.435190
       4A1    -2.180153     1B2    -2.180124     1B1    -2.180124
       5A1    -1.253048     2B2    -0.549684     2B1    -0.549684

    Beta Virtual:

       6A1    -0.384252     7A1    -0.369325     3B2    -0.218054
       3B1    -0.218054     8A1    -0.215045     9A1    -0.065364
       4B2    -0.016294     4B1    -0.016294    10A1    -0.013830
       1A2     0.092681    11A1     0.092681     5B1     0.093289
       5B2     0.093289    12A1     0.093313     6B1     0.980631
       6B2     0.980631    13A1     1.032148    14A1     1.380441
       2A2     3.413790    15A1     3.414110     7B2     3.423264
       7B1     3.423264    16A1     3.442536

    Final Occupation by Irrep:
             A1    A2    B1    B2
    DOCC [     5,    0,    2,    2 ]
    SOCC [     2,    0,    0,    0 ]
    NA   [     7,    0,    2,    2 ]
    NB   [     5,    0,    2,    2 ]

  @DF-UKS Final Energy:  -299.53226932366374

   => Energetics <=

    Nuclear Repulsion Energy =             14.1145026701363925
    One-Electron Energy =                -441.8125051896105333
    Two-Electron Energy =                 149.6626074917996618
    DFT Exchange-Correlation Energy =     -21.4968742959892900
    Empirical Dispersion Energy =           0.0000000000000000
    VV10 Nonlocal Energy =                  0.0000000000000000
    Total Energy =                       -299.5322693236637406

  UHF NO Occupations:
  HONO-2 :    5 A1 1.9996902
  HONO-1 :    6 A1 1.0000000
  HONO-0 :    7 A1 1.0000000
  LUNO+0 :    8 A1 0.0003098
  LUNO+1 :    3 B2 0.0000562
  LUNO+2 :    3 B1 0.0000562
  LUNO+3 :    9 A1 0.0000015

Computation Completed

Properties will be evaluated at   0.000000,   0.000000,   0.000000 [a0]

Properties computed using the SCF density matrix

 Multipole Moments:

 ------------------------------------------------------------------------------------
     Multipole            Electronic (a.u.)      Nuclear  (a.u.)        Total (a.u.)
 ------------------------------------------------------------------------------------

 L = 1.  Multiply by 2.5417464519 to convert [e a0] to [Debye]
 Dipole X            :          0.0000000            0.0000000            0.0000000
 Dipole Y            :          0.0000000            0.0000000            0.0000000
 Dipole Z            :         -1.1912479           -2.1567359           -3.3479838
 Magnitude           :                                                    3.3479838

 ------------------------------------------------------------------------------------

*** tstop() called on Joses-MacBook-Pro-2.local at Thu Jul 17 14:26:46 2025
Module time:
	user time   =       2.51 seconds =       0.04 minutes
	system time =       1.93 seconds =       0.03 minutes
	total time  =          1 seconds =       0.02 minutes
Total time:
	user time   =      93.74 seconds =       1.56 minutes
	system time =      99.29 seconds =       1.65 minutes
	total time  =         19 seconds =       0.32 minutes

*** tstart() called on Joses-MacBook-Pro-2.local
*** at Thu Jul 17 14:26:46 2025

         ------------------------------------------------------------
                                   SCF GRAD
                          Rob Parrish, Justin Turney,
                       Andy Simmonett, and Alex Sokolov
         ------------------------------------------------------------

  ==> Geometry <==

    Molecular point group: c2v
    Full point group: C_inf_v

    Geometry (in Angstrom), charge = 1, multiplicity = 3:

       Center              X                  Y                   Z               Mass
    ------------   -----------------  -----------------  -----------------  -----------------
         F            0.000000000000     0.000000000000     2.259428316280    18.998403162730
         MG           0.000000000000     0.000000000000    -1.789679193068    23.985041697000

  Nuclear repulsion =   14.114502670136392

  ==> Basis Set <==

  Basis Set: CC-PVDZ
    Blend: CC-PVDZ
    Number of shells: 14
    Number of basis functions: 32
    Number of Cartesian functions: 34
    Spherical Harmonics?: true
    Max angular momentum: 2

  ==> DFJKGrad: Density-Fitted SCF Gradients <==

    Gradient:                    1
    J tasked:                  Yes
    K tasked:                  Yes
    wK tasked:                  No
    OpenMP threads:              1
    Integrals threads:           1
    Memory [MiB]:              375
    Schwarz Cutoff:          1E-12
    Fitting Condition:       1E-10

   => Auxiliary Basis Set <=

  Basis Set: (CC-PVDZ AUX)
    Blend: CC-PVDZ-JKFIT + DEF2-UNIVERSAL-JKFIT
    Number of shells: 58
    Number of basis functions: 182
    Number of Cartesian functions: 218
    Spherical Harmonics?: true
    Max angular momentum: 4

  ==> DFT Potential <==

   => LibXC <=

    Version 6.2.2
    S. Lehtola, C. Steigemann, M. J.T. Oliveira, and M. A.L. Marques.,  SoftwareX 7, 1â€“5 (2018) (10.1016/j.softx.2017.11.002)

   => Composite Functional: B3LYP <=

    B3LYP Hyb-GGA Exchange-Correlation Functional

    P. J. Stephens, F. J. Devlin, C. F. Chabalowski, and M. J. Frisch.,  J. Phys. Chem. 98, 11623 (1994) (10.1021/j100096a001)

    Deriv               =              1
    GGA                 =           TRUE
    Meta                =          FALSE

    Exchange Hybrid     =           TRUE
    MP2 Hybrid          =          FALSE

   => Exchange Functionals <=

    0.0800   Slater exchange
    0.7200         Becke 88

   => Exact (HF) Exchange <=

    0.2000               HF

   => Correlation Functionals <=

    0.1900   Vosko, Wilk & Nusair (VWN5_RPA)
    0.8100   Lee, Yang & Parr

   => LibXC Density Thresholds  <==

    XC_HYB_GGA_XC_B3LYP:  1.00E-15

   => Molecular Quadrature <=

    Radial Scheme          =       TREUTLER
    Pruning Scheme         =           NONE
    Nuclear Scheme         =       TREUTLER

    Blocking Scheme        =         OCTREE
    BS radius alpha        =              1
    Pruning alpha          =              1
    Radial Points          =             75
    Spherical Points       =            302
    Total Points           =          43576
    Total Blocks           =            422
    Max Points             =            254
    Max Functions          =             32
    Weights Tolerance      =       1.00E-15

  -Total Gradient:
     Atom            X                  Y                   Z
    ------   -----------------  -----------------  -----------------
       1        0.000000000000    -0.000000000000     0.000062177137
       2        0.000000000000    -0.000000000000     0.000062330738

*** tstop() called on Joses-MacBook-Pro-2.local at Thu Jul 17 14:26:46 2025
Module time:
	user time   =       1.06 seconds =       0.02 minutes
	system time =       1.65 seconds =       0.03 minutes
	total time  =          0 seconds =       0.00 minutes
Total time:
	user time   =      94.80 seconds =       1.58 minutes
	system time =     100.94 seconds =       1.68 minutes
	total time  =         19 seconds =       0.32 minutes

    			-----------------------------------------

    			 OPTKING 3.0: for geometry optimizations

    			     By R.A. King, Bethel University

    			        with contributions from

    			    A.V. Copan, J. Cayton, A. Heide

    			-----------------------------------------

	                            ===> Fragment 1 <==

	 Z (Atomic Numbers)          Masses                          Geom
	       9.000000            18.998403          0.00000000  0.00000000  4.26970072
	      12.000000            23.985042          0.00000000  0.00000000 -3.38200353

	 - Coordinate -           - BOHR/RAD -       - ANG/DEG -
	 R(1,2)           =         7.651704           4.049108

	        --- Internal Coordinate Step in ANG or DEG, aJ/ANG or AJ/DEG ---
	-------------------------------------------------------------------------------
	           Coordinate      Previous         Force          Change          New
	           ----------      --------        ------          ------        ------
	               R(1,2)       4.04911        0.00000        0.00042       4.04953
	-------------------------------------------------------------------------------

	                                 ==> Convergence Check <==

	Measures of convergence in internal coordinates in au.

	Criteria marked as inactive (o), active & met (*), and active & unmet ( ).

	----------------------------------------------------------------------------------------------
	   Step    Total Energy     Delta E     Max Force     RMS Force      Max Disp      RMS Disp
	----------------------------------------------------------------------------------------------
	  Convergence Criteria     1.00e-06 *    3.00e-04 *             o    1.20e-03 *             o
	----------------------------------------------------------------------------------------------
	    20    -299.53226932    1.12e-07 *    7.68e-08 *    7.68e-08 o    7.89e-04 *    7.89e-04 o  ~
	----------------------------------------------------------------------------------------------

Next Geometry in Ang
	Fragment 1 (Ang)

	    F   0.0000000000   0.0000000000   2.2596371228
	   Mg   0.0000000000   0.0000000000  -1.7898879996

    Final optimized geometry and variables:
    Molecular point group: c2v
    Full point group: C_inf_v

    Geometry (in Angstrom), charge = 1, multiplicity = 3:

    F            0.000000000000     0.000000000000     2.259428316280
    MG           0.000000000000     0.000000000000    -1.789679193068

    Psi4 stopped on: Thursday, 17 July 2025 02:26PM
    Psi4 wall time for execution: 0:00:19.75

*** Psi4 exiting successfully. Buy a developer a beer!
