                               Psi4 1.9.1 release

  ==> Input File <==

--------------------------------------------------------------------------
molecule {
1 3
O   0.00000        0.60000        0.00000
Na   0.00000       -0.60000        0.00000
}

set {
basis              cc-pvdz
reference          uks
maxiter            500
geom_maxiter       500
DAMPING_PERCENTAGE 1
guess              SAP
}

optimize('b3lyp')
--------------------------------------------------------------------------

    Molecular point group: c2v
  Charge       = 1
  Multiplicity = 3
  Basis Set: CC-PVDZ
    Blend: CC-PVDZ
  Basis Set: (CC-PVDZ AUX)
    Blend: CC-PVDZ-JKFIT + DEF2-UNIVERSAL-JKFIT
  @DF-UKS Final Energy:  -236.66647617496716
    Total Energy =                       -236.6664761749671584
 Dipole X            :          0.0000000            0.0000000            0.0000000
 Dipole Y            :          0.0000000            0.0000000            0.0000000
 Dipole Z            :         -1.6051020            0.4638392           -1.1412629
 Magnitude           :                                                    1.1412629
    Molecular point group: c2v
  Basis Set: CC-PVDZ
    Blend: CC-PVDZ
  Basis Set: (CC-PVDZ AUX)
    Blend: CC-PVDZ-JKFIT + DEF2-UNIVERSAL-JKFIT
  Basis Set: CC-PVDZ
    Blend: CC-PVDZ
  Basis Set: (CC-PVDZ AUX)
    Blend: CC-PVDZ-JKFIT + DEF2-UNIVERSAL-JKFIT
  @DF-UKS Final Energy:  -236.88214207572264
    Total Energy =                       -236.8821420757226406
  Basis Set: CC-PVDZ
    Blend: CC-PVDZ
  Basis Set: (CC-PVDZ AUX)
    Blend: CC-PVDZ-JKFIT + DEF2-UNIVERSAL-JKFIT
  Basis Set: CC-PVDZ
    Blend: CC-PVDZ
  @DF-UKS Final Energy:  -237.01866853634496
    Total Energy =                       -237.0186685363449612
  @DF-UKS Final Energy:  -237.09283108051466
    Total Energy =                       -237.0928310805146566
  @DF-UKS Final Energy:  -237.12954877973129
    Total Energy =                       -237.1295487797312944
  @DF-UKS Final Energy:  -237.14813827166077
    Total Energy =                       -237.1481382716607698
  @DF-UKS Final Energy:  -237.15736878712491
    Total Energy =                       -237.1573687871249092
  @DF-UKS Final Energy:  -237.16187491912996
    Total Energy =                       -237.1618749191299571
  @DF-UKS Final Energy:  -237.16398492147454
    Total Energy =                       -237.1639849214745368
  @DF-UKS Final Energy:  -237.16487096348331
    Total Energy =                       -237.1648709634833097
  @DF-UKS Final Energy:  -237.16512181534071
    Total Energy =                       -237.1651218153407115
  @DF-UKS Final Energy:  -237.16523009980969
    Total Energy =                       -237.1652300998096905
  @DF-UKS Final Energy:  -237.16525632712751
    Total Energy =                       -237.1652563271275085
  @DF-UKS Final Energy:  -237.16526501236299
    Total Energy =                       -237.1652650123629940
  Basis Set: (CC-PVDZ AUX)
    Blend: CC-PVDZ-JKFIT + DEF2-UNIVERSAL-JKFIT
  Basis Set: CC-PVDZ
    Blend: CC-PVDZ
  Basis Set: (CC-PVDZ AUX)
    Blend: CC-PVDZ-JKFIT + DEF2-UNIVERSAL-JKFIT
  @DF-UKS Final Energy:  -237.16526642296625
    Total Energy =                       -237.1652664229662548
  Basis Set: CC-PVDZ
    Blend: CC-PVDZ
  Basis Set: (CC-PVDZ AUX)
    Blend: CC-PVDZ-JKFIT + DEF2-UNIVERSAL-JKFIT
  Charge       = 1
  Multiplicity = 3
  Basis Set: CC-PVDZ
    Blend: CC-PVDZ
  Basis Set: (CC-PVDZ AUX)
    Blend: CC-PVDZ-JKFIT + DEF2-UNIVERSAL-JKFIT

    Orbital Energies [Eh]
    ---------------------

    Alpha Occupied:

       1A1   -38.769255     2A1   -19.491886     3A1    -2.506810
       4A1    -1.438257     1B1    -1.437962     1B2    -1.437795
       5A1    -1.218697     6A1    -0.661378     2B1    -0.653933
       2B2    -0.577808

    Alpha Virtual:

       7A1    -0.249906     3B2    -0.150778     3B1    -0.150619
       8A1    -0.141088     9A1    -0.068780     4B2    -0.047806
       4B1    -0.047197    10A1    -0.046594     5B1     0.003728
       5B2     0.005548     1A2     0.008856    11A1     0.009138
      12A1     0.043248     6B1     0.678392    13A1     0.710423
       6B2     0.724019    14A1     1.195338    15A1     2.230440
       7B1     2.234060     2A2     2.288758     7B2     2.291759
      16A1     2.308768

    Beta Occupied:

       1A1   -38.769198     2A1   -19.441817     3A1    -2.506714
       4A1    -1.438122     1B1    -1.437927     1B2    -1.437773
       5A1    -1.061236     2B2    -0.525764

    Beta Virtual:

       6A1    -0.391172     2B1    -0.374213     7A1    -0.243699
       3B2    -0.150614     3B1    -0.147155     8A1    -0.135792
       9A1    -0.066312     4B2    -0.048894     4B1    -0.047328
      10A1    -0.040858     5B2     0.007135     1A2     0.008148
      11A1     0.009352     5B1     0.011789    12A1     0.054195
       6B2     0.752354     6B1     0.786428    13A1     0.816923
      14A1     1.269736     2A2     2.380269     7B2     2.381949
      15A1     2.386183    16A1     2.403108     7B1     2.406532

    Final Occupation by Irrep:
             A1    A2    B1    B2
    DOCC [     5,    0,    1,    2 ]
    SOCC [     1,    0,    1,    0 ]
    NA   [     6,    0,    2,    2 ]
    NB   [     5,    0,    1,    2 ]

  @DF-UKS Final Energy:  -237.16526678404063

   => Energetics <=

    Nuclear Repulsion Energy =             17.6000172365348142
    One-Electron Energy =                -361.5673455050531402
    Two-Electron Energy =                 125.1622471202274767
    DFT Exchange-Correlation Energy =     -18.3601856357498008
    Empirical Dispersion Energy =           0.0000000000000000
    VV10 Nonlocal Energy =                  0.0000000000000000
    Total Energy =                       -237.1652667840406252

  UHF NO Occupations:
  HONO-2 :    5 A1 1.9991422
  HONO-1 :    2 B1 1.0000000
  HONO-0 :    6 A1 1.0000000
  LUNO+0 :    7 A1 0.0008578
  LUNO+1 :    3 B2 0.0004428
  LUNO+2 :    8 A1 0.0000003
  LUNO+3 :    9 A1 0.0000001

Computation Completed

Properties will be evaluated at   0.000000,   0.000000,   0.000000 [a0]

Properties computed using the SCF density matrix

 Multipole Moments:

 ------------------------------------------------------------------------------------
     Multipole            Electronic (a.u.)      Nuclear  (a.u.)        Total (a.u.)
 ------------------------------------------------------------------------------------

 L = 1.  Multiply by 2.5417464519 to convert [e a0] to [Debye]
 Dipole X            :          0.0000000            0.0000000            0.0000000
 Dipole Y            :          0.0000000            0.0000000            0.0000000
 Dipole Z            :         -2.8806322            1.0227203           -1.8579119
 Magnitude           :                                                    1.8579119

 ------------------------------------------------------------------------------------

*** tstop() called on Joses-MacBook-Pro-2.local at Thu Jul 17 14:06:26 2025
Module time:
	user time   =       1.45 seconds =       0.02 minutes
	system time =       4.26 seconds =       0.07 minutes
	total time  =          0 seconds =       0.00 minutes
Total time:
	user time   =      50.55 seconds =       0.84 minutes
	system time =     119.15 seconds =       1.99 minutes
	total time  =         18 seconds =       0.30 minutes

*** tstart() called on Joses-MacBook-Pro-2.local
*** at Thu Jul 17 14:06:26 2025

         ------------------------------------------------------------
                                   SCF GRAD
                          Rob Parrish, Justin Turney,
                       Andy Simmonett, and Alex Sokolov
         ------------------------------------------------------------

  ==> Geometry <==

    Molecular point group: c2v
    Full point group: C_inf_v

    Geometry (in Angstrom), charge = 1, multiplicity = 3:

       Center              X                  Y                   Z               Mass
    ------------   -----------------  -----------------  -----------------  -----------------
         O            0.000000000000     0.000000000000     1.560311492957    15.994914619570
         NA           0.000000000000     0.000000000000    -1.085571969151    22.989769282000

  Nuclear repulsion =   17.600017236534814

  ==> Basis Set <==

  Basis Set: CC-PVDZ
    Blend: CC-PVDZ
    Number of shells: 14
    Number of basis functions: 32
    Number of Cartesian functions: 34
    Spherical Harmonics?: true
    Max angular momentum: 2

  ==> DFJKGrad: Density-Fitted SCF Gradients <==

    Gradient:                    1
    J tasked:                  Yes
    K tasked:                  Yes
    wK tasked:                  No
    OpenMP threads:              1
    Integrals threads:           1
    Memory [MiB]:              375
    Schwarz Cutoff:          1E-12
    Fitting Condition:       1E-10

   => Auxiliary Basis Set <=

  Basis Set: (CC-PVDZ AUX)
    Blend: CC-PVDZ-JKFIT + DEF2-UNIVERSAL-JKFIT
    Number of shells: 58
    Number of basis functions: 182
    Number of Cartesian functions: 218
    Spherical Harmonics?: true
    Max angular momentum: 4

  ==> DFT Potential <==

   => LibXC <=

    Version 6.2.2
    S. Lehtola, C. Steigemann, M. J.T. Oliveira, and M. A.L. Marques.,  SoftwareX 7, 1â€“5 (2018) (10.1016/j.softx.2017.11.002)

   => Composite Functional: B3LYP <=

    B3LYP Hyb-GGA Exchange-Correlation Functional

    P. J. Stephens, F. J. Devlin, C. F. Chabalowski, and M. J. Frisch.,  J. Phys. Chem. 98, 11623 (1994) (10.1021/j100096a001)

    Deriv               =              1
    GGA                 =           TRUE
    Meta                =          FALSE

    Exchange Hybrid     =           TRUE
    MP2 Hybrid          =          FALSE

   => Exchange Functionals <=

    0.0800   Slater exchange
    0.7200         Becke 88

   => Exact (HF) Exchange <=

    0.2000               HF

   => Correlation Functionals <=

    0.1900   Vosko, Wilk & Nusair (VWN5_RPA)
    0.8100   Lee, Yang & Parr

   => LibXC Density Thresholds  <==

    XC_HYB_GGA_XC_B3LYP:  1.00E-15

   => Molecular Quadrature <=

    Radial Scheme          =       TREUTLER
    Pruning Scheme         =           NONE
    Nuclear Scheme         =       TREUTLER

    Blocking Scheme        =         OCTREE
    BS radius alpha        =              1
    Pruning alpha          =              1
    Radial Points          =             75
    Spherical Points       =            302
    Total Points           =          43819
    Total Blocks           =            423
    Max Points             =            256
    Max Functions          =             32
    Weights Tolerance      =       1.00E-15

  -Total Gradient:
     Atom            X                  Y                   Z
    ------   -----------------  -----------------  -----------------
       1        0.000000000000    -0.000000000000     0.000025404252
       2        0.000000000000     0.000000000000     0.000039139459

*** tstop() called on Joses-MacBook-Pro-2.local at Thu Jul 17 14:06:27 2025
Module time:
	user time   =       0.82 seconds =       0.01 minutes
	system time =       2.34 seconds =       0.04 minutes
	total time  =          1 seconds =       0.02 minutes
Total time:
	user time   =      51.37 seconds =       0.86 minutes
	system time =     121.50 seconds =       2.02 minutes
	total time  =         19 seconds =       0.32 minutes

    			-----------------------------------------

    			 OPTKING 3.0: for geometry optimizations

    			     By R.A. King, Bethel University

    			        with contributions from

    			    A.V. Copan, J. Cayton, A. Heide

    			-----------------------------------------

	                            ===> Fragment 1 <==

	 Z (Atomic Numbers)          Masses                          Geom
	       8.000000            15.994915          0.00000000  0.00000000  2.94856139
	      11.000000            22.989769          0.00000000  0.00000000 -2.05143371

	 - Coordinate -           - BOHR/RAD -       - ANG/DEG -
	 R(1,2)           =         4.999995           2.645883

	        --- Internal Coordinate Step in ANG or DEG, aJ/ANG or AJ/DEG ---
	-------------------------------------------------------------------------------
	           Coordinate      Previous         Force          Change          New
	           ----------      --------        ------          ------        ------
	               R(1,2)       2.64588        0.00006        0.00064       2.64652
	-------------------------------------------------------------------------------

	                                 ==> Convergence Check <==

	Measures of convergence in internal coordinates in au.

	Criteria marked as inactive (o), active & met (*), and active & unmet ( ).

	----------------------------------------------------------------------------------------------
	   Step    Total Energy     Delta E     Max Force     RMS Force      Max Disp      RMS Disp
	----------------------------------------------------------------------------------------------
	  Convergence Criteria     1.00e-06 *    3.00e-04 *             o    1.20e-03 *             o
	----------------------------------------------------------------------------------------------
	    16    -237.16526678   -3.61e-07 *    6.87e-06 *    6.87e-06 o    1.21e-03      1.21e-03 o  ~
	----------------------------------------------------------------------------------------------

Next Geometry in Ang
	Fragment 1 (Ang)

	    O   0.0000000000   0.0000000000   1.5606321323
	   Na   0.0000000000   0.0000000000  -1.0858926085

    Final optimized geometry and variables:
    Molecular point group: c2v
    Full point group: C_inf_v

    Geometry (in Angstrom), charge = 1, multiplicity = 3:

    O            0.000000000000     0.000000000000     1.560311492957
    NA           0.000000000000     0.000000000000    -1.085571969151

    Psi4 stopped on: Thursday, 17 July 2025 02:06PM
    Psi4 wall time for execution: 0:00:19.34

*** Psi4 exiting successfully. Buy a developer a beer!
