                               Psi4 1.9.1 release

  ==> Input File <==

--------------------------------------------------------------------------
molecule {
1 3
Al   0.00000        0.60000        0.00000
S   0.00000       -0.60000        0.00000
}

set {
basis              cc-pvdz
reference          uks
maxiter            500
geom_maxiter       500
DAMPING_PERCENTAGE 1
guess              SAP
}

optimize('b3lyp')
--------------------------------------------------------------------------

    Molecular point group: c2v
  Charge       = 1
  Multiplicity = 3
  Basis Set: CC-PVDZ
    Blend: CC-PVDZ
  Basis Set: (CC-PVDZ AUX)
    Blend: CC-PVDZ-JKFIT
  @DF-UKS Final Energy:  -639.12792997435076
    Total Energy =                       -639.1279299743507636
 Dipole X            :          0.0000000            0.0000000            0.0000000
 Dipole Y            :          0.0000000            0.0000000            0.0000000
 Dipole Z            :          0.8254485           -0.6180494            0.2073991
 Magnitude           :                                                    0.2073991
    Molecular point group: c2v
  Basis Set: CC-PVDZ
    Blend: CC-PVDZ
  Basis Set: (CC-PVDZ AUX)
    Blend: CC-PVDZ-JKFIT
  Basis Set: CC-PVDZ
    Blend: CC-PVDZ
  Basis Set: (CC-PVDZ AUX)
    Blend: CC-PVDZ-JKFIT
  @DF-UKS Final Energy:  -639.15240004638815
    Total Energy =                       -639.1524000463881521
  Basis Set: CC-PVDZ
    Blend: CC-PVDZ
  Basis Set: (CC-PVDZ AUX)
    Blend: CC-PVDZ-JKFIT
  Basis Set: CC-PVDZ
    Blend: CC-PVDZ
  @DF-UKS Final Energy:  -639.19907386201112
    Total Energy =                       -639.1990738620112324
  @DF-UKS Final Energy:  -639.36243836617632
    Total Energy =                       -639.3624383661763204
  @DF-UKS Final Energy:  -639.90333732262570
    Total Energy =                       -639.9033373226258163
  @DF-UKS Final Energy:  -640.07662727949332
    Total Energy =                       -640.0766272794932092
  @DF-UKS Final Energy:  -640.16801048858326
    Total Energy =                       -640.1680104885832634
  @DF-UKS Final Energy:  -640.28578595079489
    Total Energy =                       -640.2857859507948888
  @DF-UKS Final Energy:  -640.31721277696965
    Total Energy =                       -640.3172127769696544
  @DF-UKS Final Energy:  -640.31898492493133
    Total Energy =                       -640.3189849249313284
  @DF-UKS Final Energy:  -640.31960582815941
    Total Energy =                       -640.3196058281595242
  @DF-UKS Final Energy:  -640.31964061983001
    Total Energy =                       -640.3196406198300110
  Basis Set: (CC-PVDZ AUX)
    Blend: CC-PVDZ-JKFIT
  Basis Set: CC-PVDZ
    Blend: CC-PVDZ
  Basis Set: (CC-PVDZ AUX)
    Blend: CC-PVDZ-JKFIT
  @DF-UKS Final Energy:  -640.31964284333719
    Total Energy =                       -640.3196428433371921
  Basis Set: CC-PVDZ
    Blend: CC-PVDZ
  Basis Set: (CC-PVDZ AUX)
    Blend: CC-PVDZ-JKFIT
  Charge       = 1
  Multiplicity = 3
  Basis Set: CC-PVDZ
    Blend: CC-PVDZ
  Basis Set: (CC-PVDZ AUX)
    Blend: CC-PVDZ-JKFIT

    Orbital Energies [Eh]
    ---------------------

    Alpha Occupied:

       1A1   -89.148647     2A1   -56.389644     3A1    -8.208420
       1B2    -6.178386     4A1    -6.171284     1B1    -6.160480
       5A1    -4.463599     2B2    -3.017120     2B1    -3.015672
       6A1    -3.014816     7A1    -0.954082     8A1    -0.627217
       3B2    -0.552613     3B1    -0.509387     9A1    -0.504252

    Alpha Virtual:

       4B2    -0.302818     4B1    -0.294604    10A1    -0.201782
      11A1    -0.061414     5B2    -0.011792    12A1    -0.010522
       5B1    -0.003130     1A2     0.015386    13A1     0.015480
       6B2     0.018201     6B1     0.025964    14A1     0.097528
       7B2     0.278009     7B1     0.307106    15A1     0.348846
       2A2     0.350271    16A1     0.352563    17A1     0.410373
       8B2     0.458194     8B1     0.487608    18A1     0.784989

    Beta Occupied:

       1A1   -89.141007     2A1   -56.386922     3A1    -8.200632
       4A1    -6.160061     1B2    -6.159506     1B1    -6.155658
       5A1    -4.459423     2B2    -3.014080     2B1    -3.013168
       6A1    -3.009350     7A1    -0.892856     8A1    -0.586351
       3B1    -0.491096

    Beta Virtual:

       3B2    -0.413974     9A1    -0.403329     4B1    -0.274325
       4B2    -0.269968    10A1    -0.173752    11A1    -0.052115
       5B1     0.000593     5B2     0.000975    12A1     0.014555
       1A2     0.032765    13A1     0.033043     6B1     0.053446
       6B2     0.053931    14A1     0.124176     7B1     0.319280
       7B2     0.325681    15A1     0.378692     2A2     0.402087
      16A1     0.406553    17A1     0.438778     8B1     0.510860
       8B2     0.516222    18A1     0.813798

    Final Occupation by Irrep:
             A1    A2    B1    B2
    DOCC [     8,    0,    3,    2 ]
    SOCC [     1,    0,    0,    1 ]
    NA   [     9,    0,    3,    3 ]
    NB   [     8,    0,    3,    2 ]

  @DF-UKS Final Energy:  -640.31964299018091

   => Energetics <=

    Nuclear Repulsion Energy =             49.1626941425724269
    One-Electron Energy =                -977.1124535894030032
    Two-Electron Energy =                 323.1101350511788723
    DFT Exchange-Correlation Energy =     -35.4800185945292057
    Empirical Dispersion Energy =           0.0000000000000000
    VV10 Nonlocal Energy =                  0.0000000000000000
    Total Energy =                       -640.3196429901809097

  UHF NO Occupations:
  HONO-2 :    8 A1 1.9971846
  HONO-1 :    3 B2 1.0000000
  HONO-0 :    9 A1 1.0000000
  LUNO+0 :   10 A1 0.0028154
  LUNO+1 :   11 A1 0.0006888
  LUNO+2 :    4 B1 0.0003328
  LUNO+3 :    5 B1 0.0000005

Computation Completed

Properties will be evaluated at   0.000000,   0.000000,   0.000000 [a0]

Properties computed using the SCF density matrix

 Multipole Moments:

 ------------------------------------------------------------------------------------
     Multipole            Electronic (a.u.)      Nuclear  (a.u.)        Total (a.u.)
 ------------------------------------------------------------------------------------

 L = 1.  Multiply by 2.5417464519 to convert [e a0] to [Debye]
 Dipole X            :          0.0000000            0.0000000            0.0000000
 Dipole Y            :          0.0000000            0.0000000            0.0000000
 Dipole Z            :          2.9328039           -1.1531100            1.7796939
 Magnitude           :                                                    1.7796939

 ------------------------------------------------------------------------------------

*** tstop() called on Joses-MacBook-Pro-2.local at Thu Jul 17 15:20:31 2025
Module time:
	user time   =       7.28 seconds =       0.12 minutes
	system time =       1.79 seconds =       0.03 minutes
	total time  =          1 seconds =       0.02 minutes
Total time:
	user time   =     407.75 seconds =       6.80 minutes
	system time =      58.02 seconds =       0.97 minutes
	total time  =         47 seconds =       0.78 minutes

*** tstart() called on Joses-MacBook-Pro-2.local
*** at Thu Jul 17 15:20:31 2025

         ------------------------------------------------------------
                                   SCF GRAD
                          Rob Parrish, Justin Turney,
                       Andy Simmonett, and Alex Sokolov
         ------------------------------------------------------------

  ==> Geometry <==

    Molecular point group: c2v
    Full point group: C_inf_v

    Geometry (in Angstrom), charge = 1, multiplicity = 3:

       Center              X                  Y                   Z               Mass
    ------------   -----------------  -----------------  -----------------  -----------------
         AL           0.000000000000     0.000000000000     1.214197019520    26.981538530000
         S            0.000000000000     0.000000000000    -1.024672548941    31.972071174400

  Nuclear repulsion =   49.162694142572427

  ==> Basis Set <==

  Basis Set: CC-PVDZ
    Blend: CC-PVDZ
    Number of shells: 16
    Number of basis functions: 36
    Number of Cartesian functions: 38
    Spherical Harmonics?: true
    Max angular momentum: 2

  ==> DFJKGrad: Density-Fitted SCF Gradients <==

    Gradient:                    1
    J tasked:                  Yes
    K tasked:                  Yes
    wK tasked:                  No
    OpenMP threads:              1
    Integrals threads:           1
    Memory [MiB]:              375
    Schwarz Cutoff:          1E-12
    Fitting Condition:       1E-10

   => Auxiliary Basis Set <=

  Basis Set: (CC-PVDZ AUX)
    Blend: CC-PVDZ-JKFIT
    Number of shells: 72
    Number of basis functions: 224
    Number of Cartesian functions: 260
    Spherical Harmonics?: true
    Max angular momentum: 3

  ==> DFT Potential <==

   => LibXC <=

    Version 6.2.2
    S. Lehtola, C. Steigemann, M. J.T. Oliveira, and M. A.L. Marques.,  SoftwareX 7, 1â€“5 (2018) (10.1016/j.softx.2017.11.002)

   => Composite Functional: B3LYP <=

    B3LYP Hyb-GGA Exchange-Correlation Functional

    P. J. Stephens, F. J. Devlin, C. F. Chabalowski, and M. J. Frisch.,  J. Phys. Chem. 98, 11623 (1994) (10.1021/j100096a001)

    Deriv               =              1
    GGA                 =           TRUE
    Meta                =          FALSE

    Exchange Hybrid     =           TRUE
    MP2 Hybrid          =          FALSE

   => Exchange Functionals <=

    0.0800   Slater exchange
    0.7200         Becke 88

   => Exact (HF) Exchange <=

    0.2000               HF

   => Correlation Functionals <=

    0.1900   Vosko, Wilk & Nusair (VWN5_RPA)
    0.8100   Lee, Yang & Parr

   => LibXC Density Thresholds  <==

    XC_HYB_GGA_XC_B3LYP:  1.00E-15

   => Molecular Quadrature <=

    Radial Scheme          =       TREUTLER
    Pruning Scheme         =           NONE
    Nuclear Scheme         =       TREUTLER

    Blocking Scheme        =         OCTREE
    BS radius alpha        =              1
    Pruning alpha          =              1
    Radial Points          =             75
    Spherical Points       =            302
    Total Points           =          42655
    Total Blocks           =            400
    Max Points             =            256
    Max Functions          =             36
    Weights Tolerance      =       1.00E-15

  -Total Gradient:
     Atom            X                  Y                   Z
    ------   -----------------  -----------------  -----------------
       1        0.000000000000     0.000000000000    -0.000031328487
       2       -0.000000000000    -0.000000000000     0.000059191022

*** tstop() called on Joses-MacBook-Pro-2.local at Thu Jul 17 15:20:31 2025
Module time:
	user time   =       2.94 seconds =       0.05 minutes
	system time =       0.87 seconds =       0.01 minutes
	total time  =          0 seconds =       0.00 minutes
Total time:
	user time   =     410.69 seconds =       6.84 minutes
	system time =      58.90 seconds =       0.98 minutes
	total time  =         47 seconds =       0.78 minutes

    			-----------------------------------------

    			 OPTKING 3.0: for geometry optimizations

    			     By R.A. King, Bethel University

    			        with contributions from

    			    A.V. Copan, J. Cayton, A. Heide

    			-----------------------------------------

	                            ===> Fragment 1 <==

	 Z (Atomic Numbers)          Masses                          Geom
	      13.000000            26.981539          0.00000000  0.00000000  2.29449983
	      16.000000            31.972071          0.00000000  0.00000000 -1.93635049

	 - Coordinate -           - BOHR/RAD -       - ANG/DEG -
	 R(1,2)           =         4.230850           2.238870

	        --- Internal Coordinate Step in ANG or DEG, aJ/ANG or AJ/DEG ---
	-------------------------------------------------------------------------------
	           Coordinate      Previous         Force          Change          New
	           ----------      --------        ------          ------        ------
	               R(1,2)       2.23887        0.00037        0.00022       2.23909
	-------------------------------------------------------------------------------

	                                 ==> Convergence Check <==

	Measures of convergence in internal coordinates in au.

	Criteria marked as inactive (o), active & met (*), and active & unmet ( ).

	----------------------------------------------------------------------------------------------
	   Step    Total Energy     Delta E     Max Force     RMS Force      Max Disp      RMS Disp
	----------------------------------------------------------------------------------------------
	  Convergence Criteria     1.00e-06 *    3.00e-04 *             o    1.20e-03 *             o
	----------------------------------------------------------------------------------------------
	    14    -640.31964299   -1.47e-07 *    4.53e-05 *    4.53e-05 o    4.13e-04 *    4.13e-04 o  ~
	----------------------------------------------------------------------------------------------

Next Geometry in Ang
	Fragment 1 (Ang)

	   Al   0.0000000000   0.0000000000   1.2143063258
	    S   0.0000000000   0.0000000000  -1.0247818552

    Final optimized geometry and variables:
    Molecular point group: c2v
    Full point group: C_inf_v

    Geometry (in Angstrom), charge = 1, multiplicity = 3:

    AL           0.000000000000     0.000000000000     1.214197019520
    S            0.000000000000     0.000000000000    -1.024672548941

    Psi4 stopped on: Thursday, 17 July 2025 03:20PM
    Psi4 wall time for execution: 0:00:47.82

*** Psi4 exiting successfully. Buy a developer a beer!
