                               Psi4 1.9.1 release

  ==> Input File <==

--------------------------------------------------------------------------
molecule {
1 3
Mg   0.00000        0.60000        0.00000
Cl   0.00000       -0.60000        0.00000
}

set {
basis              cc-pvdz
reference          uks
maxiter            500
geom_maxiter       500
DAMPING_PERCENTAGE 1
guess              SAP
}

optimize('b3lyp')
--------------------------------------------------------------------------

    Molecular point group: c2v
  Charge       = 1
  Multiplicity = 3
  Basis Set: CC-PVDZ
    Blend: CC-PVDZ
  Basis Set: (CC-PVDZ AUX)
    Blend: CC-PVDZ-JKFIT + DEF2-UNIVERSAL-JKFIT
  @DF-UKS Final Energy:  -658.77903931574633
    Total Energy =                       -658.7790393157464450
 Dipole X            :          0.0000000            0.0000000            0.0000000
 Dipole Y            :          0.0000000            0.0000000            0.0000000
 Dipole Z            :         -0.6859125            0.4569863           -0.2289261
 Magnitude           :                                                    0.2289261
    Molecular point group: c2v
  Basis Set: CC-PVDZ
    Blend: CC-PVDZ
  Basis Set: (CC-PVDZ AUX)
    Blend: CC-PVDZ-JKFIT + DEF2-UNIVERSAL-JKFIT
  Basis Set: CC-PVDZ
    Blend: CC-PVDZ
  Basis Set: (CC-PVDZ AUX)
    Blend: CC-PVDZ-JKFIT + DEF2-UNIVERSAL-JKFIT
  @DF-UKS Final Energy:  -658.80115822679488
    Total Energy =                       -658.8011582267948825
  Basis Set: CC-PVDZ
    Blend: CC-PVDZ
  Basis Set: (CC-PVDZ AUX)
    Blend: CC-PVDZ-JKFIT + DEF2-UNIVERSAL-JKFIT
  Basis Set: CC-PVDZ
    Blend: CC-PVDZ
  @DF-UKS Final Energy:  -658.84341137775164
    Total Energy =                       -658.8434113777516359
  @DF-UKS Final Energy:  -658.99206251689805
    Total Energy =                       -658.9920625168979313
  @DF-UKS Final Energy:  -659.51451916877909
    Total Energy =                       -659.5145191687789747
  @DF-UKS Final Energy:  -659.70102770459755
    Total Energy =                       -659.7010277045974362
  @DF-UKS Final Energy:  -659.81390222851428
    Total Energy =                       -659.8139022285141664
  @DF-UKS Final Energy:  -659.87758427121594
    Total Energy =                       -659.8775842712159374
  @DF-UKS Final Energy:  -659.91337473149872
    Total Energy =                       -659.9133747314988341
  @DF-UKS Final Energy:  -659.93373965369278
    Total Energy =                       -659.9337396536927827
  @DF-UKS Final Energy:  -659.94567894468810
    Total Energy =                       -659.9456789446880975
  @DF-UKS Final Energy:  -659.95278457824452
    Total Energy =                       -659.9527845782442910
  @DF-UKS Final Energy:  -659.95697315167070
    Total Energy =                       -659.9569731516706952
  @DF-UKS Final Energy:  -659.95938586868010
    Total Energy =                       -659.9593858686801013
  @DF-UKS Final Energy:  -659.96078236013761
    Total Energy =                       -659.9607823601376140
  @DF-UKS Final Energy:  -659.96163170980230
    Total Energy =                       -659.9616317098023046
  @DF-UKS Final Energy:  -659.96219694250090
    Total Energy =                       -659.9621969425008956
  @DF-UKS Final Energy:  -659.96219879846205
    Total Energy =                       -659.9621987984620546
  @DF-UKS Final Energy:  -659.96220064877252
    Total Energy =                       -659.9622006487725230
  @DF-UKS Final Energy:  -659.96220249358487
    Total Energy =                       -659.9622024935848685
  @DF-UKS Final Energy:  -659.96304656417522
    Total Energy =                       -659.9630465641753290
  @DF-UKS Final Energy:  -659.96304702482075
    Total Energy =                       -659.9630470248206393
  @DF-UKS Final Energy:  -659.96304748505065
    Total Energy =                       -659.9630474850506516
  @DF-UKS Final Energy:  -659.96304794493756
    Total Energy =                       -659.9630479449375571
  @DF-UKS Final Energy:  -659.96304840435096
    Total Energy =                       -659.9630484043509568
  @DF-UKS Final Energy:  -659.96304886335474
    Total Energy =                       -659.9630488633547429
  @DF-UKS Final Energy:  -659.96304932198666
    Total Energy =                       -659.9630493219866594
  @DF-UKS Final Energy:  -659.96304978019293
    Total Energy =                       -659.9630497801930460
  @DF-UKS Final Energy:  -659.96305023796276
    Total Energy =                       -659.9630502379627615
  @DF-UKS Final Energy:  -659.96305069535811
    Total Energy =                       -659.9630506953581062
  @DF-UKS Final Energy:  -659.96305115237044
    Total Energy =                       -659.9630511523704399
  @DF-UKS Final Energy:  -659.96305160890790
    Total Energy =                       -659.9630516089079038
  @DF-UKS Final Energy:  -659.96305206507463
    Total Energy =                       -659.9630520650745211
  @DF-UKS Final Energy:  -659.96305252084949
    Total Energy =                       -659.9630525208494873
  @DF-UKS Final Energy:  -659.96305297619608
    Total Energy =                       -659.9630529761960815
  @DF-UKS Final Energy:  -659.96305343116001
    Total Energy =                       -659.9630534311600059
  @DF-UKS Final Energy:  -659.96305388569988
    Total Energy =                       -659.9630538856998783
  @DF-UKS Final Energy:  -659.96305433980103
    Total Energy =                       -659.9630543398011469
  Basis Set: (CC-PVDZ AUX)
    Blend: CC-PVDZ-JKFIT + DEF2-UNIVERSAL-JKFIT
  Basis Set: CC-PVDZ
    Blend: CC-PVDZ
  Basis Set: (CC-PVDZ AUX)
    Blend: CC-PVDZ-JKFIT + DEF2-UNIVERSAL-JKFIT
  @DF-UKS Final Energy:  -659.96305479352532
    Total Energy =                       -659.9630547935253162
  Basis Set: CC-PVDZ
    Blend: CC-PVDZ
  Basis Set: (CC-PVDZ AUX)
    Blend: CC-PVDZ-JKFIT + DEF2-UNIVERSAL-JKFIT
  Charge       = 1
  Multiplicity = 3
  Basis Set: CC-PVDZ
    Blend: CC-PVDZ
  Basis Set: (CC-PVDZ AUX)
    Blend: CC-PVDZ-JKFIT + DEF2-UNIVERSAL-JKFIT

    Orbital Energies [Eh]
    ---------------------

    Alpha Occupied:

       1A1  -101.692636     2A1   -47.171305     3A1    -9.606773
       4A1    -7.380663     1B2    -7.356906     1B1    -7.356906
       5A1    -3.441571     6A1    -2.184437     2B2    -2.184421
       2B1    -2.184421     7A1    -0.944246     8A1    -0.507822
       9A1    -0.465062     3B2    -0.450040     3B1    -0.450040

    Alpha Virtual:

      10A1    -0.257717     4B2    -0.257292     4B1    -0.257292
      11A1    -0.081375    12A1    -0.032511     5B2    -0.031964
       5B1    -0.031964    13A1     0.051639     6B1     0.052026
       6B2     0.052026     1A2     0.052315    14A1     0.052316
      15A1     0.411940     7B2     0.431010     7B1     0.431010
      16A1     0.489128    17A1     0.553634     8B2     0.565758
       8B1     0.565758     2A2     0.610905    18A1     0.610953

    Beta Occupied:

       1A1  -101.685955     2A1   -47.167951     3A1    -9.600173
       4A1    -7.358868     1B2    -7.352948     1B1    -7.352948
       5A1    -3.435376     6A1    -2.180330     2B2    -2.180314
       2B1    -2.180314     7A1    -0.891014     3B1    -0.434163
       3B2    -0.434163

    Beta Virtual:

       8A1    -0.372979     9A1    -0.346798     4B2    -0.217682
       4B1    -0.217682    10A1    -0.216035    11A1    -0.065444
      12A1    -0.016085     5B2    -0.015395     5B1    -0.015395
       1A2     0.092812    13A1     0.092813     6B1     0.093048
       6B2     0.093048    14A1     0.093070     7B2     0.438301
       7B1     0.438301    15A1     0.457203    16A1     0.510430
       2A2     0.619185    17A1     0.619229     8B2     0.623222
       8B1     0.623222    18A1     0.632567

    Final Occupation by Irrep:
             A1    A2    B1    B2
    DOCC [     7,    0,    3,    3 ]
    SOCC [     2,    0,    0,    0 ]
    NA   [     9,    0,    3,    3 ]
    NB   [     7,    0,    3,    3 ]

  @DF-UKS Final Energy:  -659.96332196024593

   => Energetics <=

    Nuclear Repulsion Energy =             20.6712576444817593
    One-Electron Energy =                -950.1335533807632601
    Two-Electron Energy =                 305.3225080062643997
    DFT Exchange-Correlation Energy =     -35.8235342302289368
    Empirical Dispersion Energy =           0.0000000000000000
    VV10 Nonlocal Energy =                  0.0000000000000000
    Total Energy =                       -659.9633219602460485

  UHF NO Occupations:
  HONO-2 :    7 A1 1.9991451
  HONO-1 :    8 A1 1.0000000
  HONO-0 :    9 A1 1.0000000
  LUNO+0 :   10 A1 0.0008549
  LUNO+1 :    4 B1 0.0000264
  LUNO+2 :    4 B2 0.0000264
  LUNO+3 :   11 A1 0.0000015

Computation Completed

Properties will be evaluated at   0.000000,   0.000000,   0.000000 [a0]

Properties computed using the SCF density matrix

 Multipole Moments:

 ------------------------------------------------------------------------------------
     Multipole            Electronic (a.u.)      Nuclear  (a.u.)        Total (a.u.)
 ------------------------------------------------------------------------------------

 L = 1.  Multiply by 2.5417464519 to convert [e a0] to [Debye]
 Dipole X            :          0.0000000            0.0000000            0.0000000
 Dipole Y            :          0.0000000            0.0000000            0.0000000
 Dipole Z            :          3.7971037            1.9887782            5.7858818
 Magnitude           :                                                    5.7858818

 ------------------------------------------------------------------------------------

*** tstop() called on Joses-MacBook-Pro-2.local at Thu Jul 17 15:11:30 2025
Module time:
	user time   =       7.02 seconds =       0.12 minutes
	system time =       1.66 seconds =       0.03 minutes
	total time  =          1 seconds =       0.02 minutes
Total time:
	user time   =     505.49 seconds =       8.42 minutes
	system time =     211.32 seconds =       3.52 minutes
	total time  =         68 seconds =       1.13 minutes

*** tstart() called on Joses-MacBook-Pro-2.local
*** at Thu Jul 17 15:11:30 2025

         ------------------------------------------------------------
                                   SCF GRAD
                          Rob Parrish, Justin Turney,
                       Andy Simmonett, and Alex Sokolov
         ------------------------------------------------------------

  ==> Geometry <==

    Molecular point group: c2v
    Full point group: C_inf_v

    Geometry (in Angstrom), charge = 1, multiplicity = 3:

       Center              X                  Y                   Z               Mass
    ------------   -----------------  -----------------  -----------------  -----------------
         MG           0.000000000000     0.000000000000     3.097656696617    23.985041697000
         CL           0.000000000000     0.000000000000    -2.124674369703    34.968852682000

  Nuclear repulsion =   20.671257644481759

  ==> Basis Set <==

  Basis Set: CC-PVDZ
    Blend: CC-PVDZ
    Number of shells: 16
    Number of basis functions: 36
    Number of Cartesian functions: 38
    Spherical Harmonics?: true
    Max angular momentum: 2

  ==> DFJKGrad: Density-Fitted SCF Gradients <==

    Gradient:                    1
    J tasked:                  Yes
    K tasked:                  Yes
    wK tasked:                  No
    OpenMP threads:              1
    Integrals threads:           1
    Memory [MiB]:              375
    Schwarz Cutoff:          1E-12
    Fitting Condition:       1E-10

   => Auxiliary Basis Set <=

  Basis Set: (CC-PVDZ AUX)
    Blend: CC-PVDZ-JKFIT + DEF2-UNIVERSAL-JKFIT
    Number of shells: 70
    Number of basis functions: 224
    Number of Cartesian functions: 267
    Spherical Harmonics?: true
    Max angular momentum: 4

  ==> DFT Potential <==

   => LibXC <=

    Version 6.2.2
    S. Lehtola, C. Steigemann, M. J.T. Oliveira, and M. A.L. Marques.,  SoftwareX 7, 1â€“5 (2018) (10.1016/j.softx.2017.11.002)

   => Composite Functional: B3LYP <=

    B3LYP Hyb-GGA Exchange-Correlation Functional

    P. J. Stephens, F. J. Devlin, C. F. Chabalowski, and M. J. Frisch.,  J. Phys. Chem. 98, 11623 (1994) (10.1021/j100096a001)

    Deriv               =              1
    GGA                 =           TRUE
    Meta                =          FALSE

    Exchange Hybrid     =           TRUE
    MP2 Hybrid          =          FALSE

   => Exchange Functionals <=

    0.0800   Slater exchange
    0.7200         Becke 88

   => Exact (HF) Exchange <=

    0.2000               HF

   => Correlation Functionals <=

    0.1900   Vosko, Wilk & Nusair (VWN5_RPA)
    0.8100   Lee, Yang & Parr

   => LibXC Density Thresholds  <==

    XC_HYB_GGA_XC_B3LYP:  1.00E-15

   => Molecular Quadrature <=

    Radial Scheme          =       TREUTLER
    Pruning Scheme         =           NONE
    Nuclear Scheme         =       TREUTLER

    Blocking Scheme        =         OCTREE
    BS radius alpha        =              1
    Pruning alpha          =              1
    Radial Points          =             75
    Spherical Points       =            302
    Total Points           =          43159
    Total Blocks           =            450
    Max Points             =            256
    Max Functions          =             36
    Weights Tolerance      =       1.00E-15

  -Total Gradient:
     Atom            X                  Y                   Z
    ------   -----------------  -----------------  -----------------
       1       -0.000000000000     0.000000000000    -0.000276921050
       2       -0.000000000000     0.000000000000     0.000269531508

*** tstop() called on Joses-MacBook-Pro-2.local at Thu Jul 17 15:11:30 2025
Module time:
	user time   =       2.77 seconds =       0.05 minutes
	system time =       0.71 seconds =       0.01 minutes
	total time  =          0 seconds =       0.00 minutes
Total time:
	user time   =     508.26 seconds =       8.47 minutes
	system time =     212.03 seconds =       3.53 minutes
	total time  =         68 seconds =       1.13 minutes

    			-----------------------------------------

    			 OPTKING 3.0: for geometry optimizations

    			     By R.A. King, Bethel University

    			        with contributions from

    			    A.V. Copan, J. Cayton, A. Heide

    			-----------------------------------------

	                            ===> Fragment 1 <==

	 Z (Atomic Numbers)          Masses                          Geom
	      12.000000            23.985042          0.00000000  0.00000000  5.85372279
	      17.000000            34.968853          0.00000000  0.00000000 -4.01505266

	 - Coordinate -           - BOHR/RAD -       - ANG/DEG -
	 R(1,2)           =         9.868775           5.222331

	        --- Internal Coordinate Step in ANG or DEG, aJ/ANG or AJ/DEG ---
	-------------------------------------------------------------------------------
	           Coordinate      Previous         Force          Change          New
	           ----------      --------        ------          ------        ------
	               R(1,2)       5.22233        0.00225        0.00050       5.22283
	-------------------------------------------------------------------------------

	                                 ==> Convergence Check <==

	Measures of convergence in internal coordinates in au.

	Criteria marked as inactive (o), active & met (*), and active & unmet ( ).

	----------------------------------------------------------------------------------------------
	   Step    Total Energy     Delta E     Max Force     RMS Force      Max Disp      RMS Disp
	----------------------------------------------------------------------------------------------
	  Convergence Criteria     1.00e-06 *    3.00e-04 *             o    1.20e-03 *             o
	----------------------------------------------------------------------------------------------
	    59    -659.96332196   -2.67e-04      2.73e-04 *    2.73e-04 o    9.42e-04 *    9.42e-04 o  ~
	----------------------------------------------------------------------------------------------

Next Geometry in Ang
	Fragment 1 (Ang)

	   Mg   0.0000000000   0.0000000000   3.0979059177
	   Cl   0.0000000000   0.0000000000  -2.1249235908

    Final optimized geometry and variables:
    Molecular point group: c2v
    Full point group: C_inf_v

    Geometry (in Angstrom), charge = 1, multiplicity = 3:

    MG           0.000000000000     0.000000000000     3.097656696617
    CL           0.000000000000     0.000000000000    -2.124674369703

    Psi4 stopped on: Thursday, 17 July 2025 03:11PM
    Psi4 wall time for execution: 0:01:08.16

*** Psi4 exiting successfully. Buy a developer a beer!
