                               Psi4 1.9.1 release

  ==> Input File <==

--------------------------------------------------------------------------
molecule {
1 3
Be   0.00000        0.60000        0.00000
Al   0.00000       -0.60000        0.00000
}

set {
basis              cc-pvdz
reference          uks
maxiter            500
geom_maxiter       500
DAMPING_PERCENTAGE 1
guess              SAP
}

optimize('b3lyp')
--------------------------------------------------------------------------

    Molecular point group: c2v
  Charge       = 1
  Multiplicity = 3
  Basis Set: CC-PVDZ
    Blend: CC-PVDZ
  Basis Set: (CC-PVDZ AUX)
    Blend: CC-PVDZ-JKFIT + DEF2-UNIVERSAL-JKFIT
  @DF-UKS Final Energy:  -256.29701416796541
    Total Energy =                       -256.2970141679654148
 Dipole X            :          0.0000000            0.0000000            0.0000000
 Dipole Y            :          0.0000000            0.0000000            0.0000000
 Dipole Z            :          0.5701148           -0.5816474           -0.0115326
 Magnitude           :                                                    0.0115326
    Molecular point group: c2v
  Basis Set: CC-PVDZ
    Blend: CC-PVDZ
  Basis Set: (CC-PVDZ AUX)
    Blend: CC-PVDZ-JKFIT + DEF2-UNIVERSAL-JKFIT
  Basis Set: CC-PVDZ
    Blend: CC-PVDZ
  Basis Set: (CC-PVDZ AUX)
    Blend: CC-PVDZ-JKFIT + DEF2-UNIVERSAL-JKFIT
  @DF-UKS Final Energy:  -256.42682197551943
    Total Energy =                       -256.4268219755194309
  Basis Set: CC-PVDZ
    Blend: CC-PVDZ
  Basis Set: (CC-PVDZ AUX)
    Blend: CC-PVDZ-JKFIT + DEF2-UNIVERSAL-JKFIT
  Basis Set: CC-PVDZ
    Blend: CC-PVDZ
  @DF-UKS Final Energy:  -256.55898841029199
    Total Energy =                       -256.5589884102919882
  @DF-UKS Final Energy:  -256.66128203922642
    Total Energy =                       -256.6612820392264211
  @DF-UKS Final Energy:  -256.70073216456075
    Total Energy =                       -256.7007321645607476
  @DF-UKS Final Energy:  -256.76957272734262
    Total Energy =                       -256.7695727273426201
  @DF-UKS Final Energy:  -256.79079084510283
    Total Energy =                       -256.7907908451028334
  @DF-UKS Final Energy:  -256.79123333803796
    Total Energy =                       -256.7912333380379550
  @DF-UKS Final Energy:  -256.79271814126270
    Total Energy =                       -256.7927181412626965
  @DF-UKS Final Energy:  -256.79297739655800
    Total Energy =                       -256.7929773965580011
  @DF-UKS Final Energy:  -256.79300769267002
    Total Energy =                       -256.7930076926700167
  @DF-UKS Final Energy:  -256.79301423065112
    Total Energy =                       -256.7930142306511243
  Basis Set: (CC-PVDZ AUX)
    Blend: CC-PVDZ-JKFIT + DEF2-UNIVERSAL-JKFIT
  Basis Set: CC-PVDZ
    Blend: CC-PVDZ
  Basis Set: (CC-PVDZ AUX)
    Blend: CC-PVDZ-JKFIT + DEF2-UNIVERSAL-JKFIT
  @DF-UKS Final Energy:  -256.79301548691456
    Total Energy =                       -256.7930154869145554
  Basis Set: CC-PVDZ
    Blend: CC-PVDZ
  Basis Set: (CC-PVDZ AUX)
    Blend: CC-PVDZ-JKFIT + DEF2-UNIVERSAL-JKFIT
  Charge       = 1
  Multiplicity = 3
  Basis Set: CC-PVDZ
    Blend: CC-PVDZ
  Basis Set: (CC-PVDZ AUX)
    Blend: CC-PVDZ-JKFIT + DEF2-UNIVERSAL-JKFIT

    Orbital Energies [Eh]
    ---------------------

    Alpha Occupied:

       1A1   -56.330212     2A1    -4.406597     3A1    -4.356105
       1B2    -2.960302     1B1    -2.958327     4A1    -2.958278
       5A1    -0.596888     6A1    -0.454790     2B1    -0.375742

    Alpha Virtual:

       7A1    -0.318596     2B2    -0.315918     3B1    -0.244076
       3B2    -0.225866     8A1    -0.115101     9A1    -0.050754
       4B1    -0.009675     4B2    -0.001432    10A1    -0.001378
      11A1     0.035484     1A2     0.038806     5B1     0.039220
      12A1     0.041328     5B2     0.047513     6B1     0.069980
       6B2     0.075656    13A1     0.162653     2A2     0.259188
      14A1     0.263738    15A1     0.311663     7B1     0.400923
       7B2     0.410297    16A1     0.562835

    Beta Occupied:

       1A1   -56.327171     2A1    -4.402214     3A1    -4.343828
       1B2    -2.957795     4A1    -2.953835     1B1    -2.951814
       5A1    -0.558288

    Beta Virtual:

       6A1    -0.356405     2B2    -0.298098     2B1    -0.279356
       7A1    -0.274299     3B2    -0.196768     3B1    -0.180789
       8A1    -0.091719     9A1    -0.038627     4B2     0.003447
       4B1     0.014284    10A1     0.015053     5B2     0.054537
      11A1     0.058884     5B1     0.066071     1A2     0.069246
      12A1     0.069965     6B2     0.099444     6B1     0.113258
      13A1     0.176182    14A1     0.312429     2A2     0.312695
      15A1     0.342055     7B2     0.439483     7B1     0.455871
      16A1     0.592333

    Final Occupation by Irrep:
             A1    A2    B1    B2
    DOCC [     5,    0,    1,    1 ]
    SOCC [     1,    0,    1,    0 ]
    NA   [     6,    0,    2,    1 ]
    NB   [     5,    0,    1,    1 ]

  @DF-UKS Final Energy:  -256.79301569350287

   => Energetics <=

    Nuclear Repulsion Energy =             12.0617212047712741
    One-Electron Energy =                -375.6068488158553578
    Two-Electron Energy =                 123.8374462791051656
    DFT Exchange-Correlation Energy =     -17.0853343615239517
    Empirical Dispersion Energy =           0.0000000000000000
    VV10 Nonlocal Energy =                  0.0000000000000000
    Total Energy =                       -256.7930156935028663

  UHF NO Occupations:
  HONO-2 :    5 A1 1.9950575
  HONO-1 :    2 B1 1.0000000
  HONO-0 :    6 A1 1.0000000
  LUNO+0 :    7 A1 0.0049425
  LUNO+1 :    8 A1 0.0000003
  LUNO+2 :    2 B2 0.0000003
  LUNO+3 :    3 B1 0.0000003

Computation Completed

Properties will be evaluated at   0.000000,   0.000000,   0.000000 [a0]

Properties computed using the SCF density matrix

 Multipole Moments:

 ------------------------------------------------------------------------------------
     Multipole            Electronic (a.u.)      Nuclear  (a.u.)        Total (a.u.)
 ------------------------------------------------------------------------------------

 L = 1.  Multiply by 2.5417464519 to convert [e a0] to [Debye]
 Dipole X            :          0.0000000            0.0000000            0.0000000
 Dipole Y            :          0.0000000            0.0000000            0.0000000
 Dipole Z            :          1.9855925           -1.1057927            0.8797998
 Magnitude           :                                                    0.8797998

 ------------------------------------------------------------------------------------

*** tstop() called on Joses-MacBook-Pro-2.local at Thu Jul 17 13:22:29 2025
Module time:
	user time   =       3.08 seconds =       0.05 minutes
	system time =       4.00 seconds =       0.07 minutes
	total time  =          1 seconds =       0.02 minutes
Total time:
	user time   =      56.80 seconds =       0.95 minutes
	system time =      90.23 seconds =       1.50 minutes
	total time  =         14 seconds =       0.23 minutes

*** tstart() called on Joses-MacBook-Pro-2.local
*** at Thu Jul 17 13:22:29 2025

         ------------------------------------------------------------
                                   SCF GRAD
                          Rob Parrish, Justin Turney,
                       Andy Simmonett, and Alex Sokolov
         ------------------------------------------------------------

  ==> Geometry <==

    Molecular point group: c2v
    Full point group: C_inf_v

    Geometry (in Angstrom), charge = 1, multiplicity = 3:

       Center              X                  Y                   Z               Mass
    ------------   -----------------  -----------------  -----------------  -----------------
         BE           0.000000000000     0.000000000000     1.710153712471     9.012183065000
         AL           0.000000000000     0.000000000000    -0.571213472832    26.981538530000

  Nuclear repulsion =   12.061721204771274

  ==> Basis Set <==

  Basis Set: CC-PVDZ
    Blend: CC-PVDZ
    Number of shells: 14
    Number of basis functions: 32
    Number of Cartesian functions: 34
    Spherical Harmonics?: true
    Max angular momentum: 2

  ==> DFJKGrad: Density-Fitted SCF Gradients <==

    Gradient:                    1
    J tasked:                  Yes
    K tasked:                  Yes
    wK tasked:                  No
    OpenMP threads:              1
    Integrals threads:           1
    Memory [MiB]:              375
    Schwarz Cutoff:          1E-12
    Fitting Condition:       1E-10

   => Auxiliary Basis Set <=

  Basis Set: (CC-PVDZ AUX)
    Blend: CC-PVDZ-JKFIT + DEF2-UNIVERSAL-JKFIT
    Number of shells: 53
    Number of basis functions: 163
    Number of Cartesian functions: 190
    Spherical Harmonics?: true
    Max angular momentum: 3

  ==> DFT Potential <==

   => LibXC <=

    Version 6.2.2
    S. Lehtola, C. Steigemann, M. J.T. Oliveira, and M. A.L. Marques.,  SoftwareX 7, 1â€“5 (2018) (10.1016/j.softx.2017.11.002)

   => Composite Functional: B3LYP <=

    B3LYP Hyb-GGA Exchange-Correlation Functional

    P. J. Stephens, F. J. Devlin, C. F. Chabalowski, and M. J. Frisch.,  J. Phys. Chem. 98, 11623 (1994) (10.1021/j100096a001)

    Deriv               =              1
    GGA                 =           TRUE
    Meta                =          FALSE

    Exchange Hybrid     =           TRUE
    MP2 Hybrid          =          FALSE

   => Exchange Functionals <=

    0.0800   Slater exchange
    0.7200         Becke 88

   => Exact (HF) Exchange <=

    0.2000               HF

   => Correlation Functionals <=

    0.1900   Vosko, Wilk & Nusair (VWN5_RPA)
    0.8100   Lee, Yang & Parr

   => LibXC Density Thresholds  <==

    XC_HYB_GGA_XC_B3LYP:  1.00E-15

   => Molecular Quadrature <=

    Radial Scheme          =       TREUTLER
    Pruning Scheme         =           NONE
    Nuclear Scheme         =       TREUTLER

    Blocking Scheme        =         OCTREE
    BS radius alpha        =              1
    Pruning alpha          =              1
    Radial Points          =             75
    Spherical Points       =            302
    Total Points           =          42450
    Total Blocks           =            398
    Max Points             =            256
    Max Functions          =             32
    Weights Tolerance      =       1.00E-15

  -Total Gradient:
     Atom            X                  Y                   Z
    ------   -----------------  -----------------  -----------------
       1        0.000000000000     0.000000000000    -0.000018871522
       2        0.000000000000     0.000000000000     0.000013759210

*** tstop() called on Joses-MacBook-Pro-2.local at Thu Jul 17 13:22:29 2025
Module time:
	user time   =       0.86 seconds =       0.01 minutes
	system time =       1.48 seconds =       0.02 minutes
	total time  =          0 seconds =       0.00 minutes
Total time:
	user time   =      57.68 seconds =       0.96 minutes
	system time =      91.71 seconds =       1.53 minutes
	total time  =         14 seconds =       0.23 minutes

    			-----------------------------------------

    			 OPTKING 3.0: for geometry optimizations

    			     By R.A. King, Bethel University

    			        with contributions from

    			    A.V. Copan, J. Cayton, A. Heide

    			-----------------------------------------

	                            ===> Fragment 1 <==

	 Z (Atomic Numbers)          Masses                          Geom
	       4.000000             9.012183          0.00000000  0.00000000  3.23172215
	      13.000000            26.981539          0.00000000  0.00000000 -1.07943702

	 - Coordinate -           - BOHR/RAD -       - ANG/DEG -
	 R(1,2)           =         4.311159           2.281367

	        --- Internal Coordinate Step in ANG or DEG, aJ/ANG or AJ/DEG ---
	-------------------------------------------------------------------------------
	           Coordinate      Previous         Force          Change          New
	           ----------      --------        ------          ------        ------
	               R(1,2)       2.28137        0.00013        0.00015       2.28152
	-------------------------------------------------------------------------------

	                                 ==> Convergence Check <==

	Measures of convergence in internal coordinates in au.

	Criteria marked as inactive (o), active & met (*), and active & unmet ( ).

	----------------------------------------------------------------------------------------------
	   Step    Total Energy     Delta E     Max Force     RMS Force      Max Disp      RMS Disp
	----------------------------------------------------------------------------------------------
	  Convergence Criteria     1.00e-06 *    3.00e-04 *             o    1.20e-03 *             o
	----------------------------------------------------------------------------------------------
	    14    -256.79301569   -2.07e-07 *    1.63e-05 *    1.63e-05 o    2.91e-04 *    2.91e-04 o  ~
	----------------------------------------------------------------------------------------------

Next Geometry in Ang
	Fragment 1 (Ang)

	   Be   0.0000000000   0.0000000000   1.7102306716
	   Al   0.0000000000   0.0000000000  -0.5712904319

    Final optimized geometry and variables:
    Molecular point group: c2v
    Full point group: C_inf_v

    Geometry (in Angstrom), charge = 1, multiplicity = 3:

    BE           0.000000000000     0.000000000000     1.710153712471
    AL           0.000000000000     0.000000000000    -0.571213472832

    Psi4 stopped on: Thursday, 17 July 2025 01:22PM
    Psi4 wall time for execution: 0:00:15.32

*** Psi4 exiting successfully. Buy a developer a beer!
