                               Psi4 1.9.1 release

  ==> Input File <==

--------------------------------------------------------------------------
molecule {
1 3
H   0.00000        0.60000        0.00000
Ar   0.00000       -0.60000        0.00000
}

set {
basis              cc-pvdz
reference          uks
maxiter            500
geom_maxiter       500
DAMPING_PERCENTAGE 1
guess              SAP
}

optimize('b3lyp')
--------------------------------------------------------------------------

    Molecular point group: c2v
  Charge       = 1
  Multiplicity = 3
  Basis Set: CC-PVDZ
    Blend: CC-PVDZ
  Basis Set: (CC-PVDZ AUX)
    Blend: CC-PVDZ-JKFIT
  @DF-UKS Final Energy:  -527.25280067807012
    Total Energy =                       -527.2528006780701162
 Dipole X            :          0.0000000            0.0000000            0.0000000
 Dipole Y            :          0.0000000            0.0000000            0.0000000
 Dipole Z            :         -1.6681443            1.2078060           -0.4603383
 Magnitude           :                                                    0.4603383
    Molecular point group: c2v
  Basis Set: CC-PVDZ
    Blend: CC-PVDZ
  Basis Set: (CC-PVDZ AUX)
    Blend: CC-PVDZ-JKFIT
  Basis Set: CC-PVDZ
    Blend: CC-PVDZ
  Basis Set: (CC-PVDZ AUX)
    Blend: CC-PVDZ-JKFIT
  @DF-UKS Final Energy:  -527.36398115032966
    Total Energy =                       -527.3639811503296642
  Basis Set: CC-PVDZ
    Blend: CC-PVDZ
  Basis Set: (CC-PVDZ AUX)
    Blend: CC-PVDZ-JKFIT
  Basis Set: CC-PVDZ
    Blend: CC-PVDZ
  @DF-UKS Final Energy:  -527.40507447391576
    Total Energy =                       -527.4050744739158745
  @DF-UKS Final Energy:  -527.43320553265187
    Total Energy =                       -527.4332055326518685
  @DF-UKS Final Energy:  -527.44818377239073
    Total Energy =                       -527.4481837723907347
  @DF-UKS Final Energy:  -527.45615090529247
    Total Energy =                       -527.4561509052923611
  @DF-UKS Final Energy:  -527.46008521615818
    Total Energy =                       -527.4600852161581770
  @DF-UKS Final Energy:  -527.46192889795998
    Total Energy =                       -527.4619288979599787
  @DF-UKS Final Energy:  -527.46277704048362
    Total Energy =                       -527.4627770404836156
  @DF-UKS Final Energy:  -527.46315719095480
    Total Energy =                       -527.4631571909548029
  @DF-UKS Final Energy:  -527.46331741704978
    Total Energy =                       -527.4633174170497796
  @DF-UKS Final Energy:  -527.46337897248281
    Total Energy =                       -527.4633789724828148
  @DF-UKS Final Energy:  -527.46339525844792
    Total Energy =                       -527.4633952584479175
  @DF-UKS Final Energy:  -527.46340212513348
    Total Energy =                       -527.4634021251334843
  Basis Set: (CC-PVDZ AUX)
    Blend: CC-PVDZ-JKFIT
  Basis Set: CC-PVDZ
    Blend: CC-PVDZ
  Basis Set: (CC-PVDZ AUX)
    Blend: CC-PVDZ-JKFIT
  @DF-UKS Final Energy:  -527.46340379452386
    Total Energy =                       -527.4634037945238560
  Basis Set: CC-PVDZ
    Blend: CC-PVDZ
  Basis Set: (CC-PVDZ AUX)
    Blend: CC-PVDZ-JKFIT
  Charge       = 1
  Multiplicity = 3
  Basis Set: CC-PVDZ
    Blend: CC-PVDZ
  Basis Set: (CC-PVDZ AUX)
    Blend: CC-PVDZ-JKFIT

    Orbital Energies [Eh]
    ---------------------

    Alpha Occupied:

       1A1  -115.631501     2A1   -11.657708     1B1    -9.230595
       3A1    -9.200332     1B2    -9.200315     4A1    -1.453255
       2B1    -0.931268     5A1    -0.865090     2B2    -0.865029
       6A1    -0.470212

    Alpha Virtual:

       7A1     0.184290     3B1     0.187905     3B2     0.220778
       8A1     0.283582     9A1     0.326322     1A2     0.339389
       4B1     0.339391    10A1     0.359522     4B2     0.390509
      11A1     0.396221    12A1     1.058793     5B1     1.060330
       5B2     1.060429

    Beta Occupied:

       1A1  -115.622572     2A1   -11.649187     1B1    -9.202304
       1B2    -9.195187     3A1    -9.195151     4A1    -1.390320
       5A1    -0.845343     2B2    -0.845299

    Beta Virtual:

       2B1    -0.739146     6A1    -0.192309     7A1     0.224265
       3B2     0.227403     3B1     0.230773     8A1     0.337670
       9A1     0.398880     4B2     0.400765     1A2     0.406486
       4B1     0.406546    10A1     0.416107    11A1     0.515499
       5B2     1.283481     5B1     1.283489    12A1     1.288602

    Final Occupation by Irrep:
             A1    A2    B1    B2
    DOCC [     5,    0,    1,    2 ]
    SOCC [     1,    0,    1,    0 ]
    NA   [     6,    0,    2,    2 ]
    NB   [     5,    0,    1,    2 ]

  @DF-UKS Final Energy:  -527.46340427464031

   => Energetics <=

    Nuclear Repulsion Energy =              2.7446637952663959
    One-Electron Energy =                -725.3352566038054192
    Two-Electron Energy =                 219.9479810940641755
    DFT Exchange-Correlation Energy =     -24.8207925601654402
    Empirical Dispersion Energy =           0.0000000000000000
    VV10 Nonlocal Energy =                  0.0000000000000000
    Total Energy =                       -527.4634042746401974

  UHF NO Occupations:
  HONO-2 :    5 A1 1.9991810
  HONO-1 :    2 B1 1.0000000
  HONO-0 :    6 A1 1.0000000
  LUNO+0 :    7 A1 0.0008190
  LUNO+1 :    8 A1 0.0000294
  LUNO+2 :    3 B2 0.0000239
  LUNO+3 :    9 A1 0.0000000

Computation Completed

Properties will be evaluated at   0.000000,   0.000000,   0.000000 [a0]

Properties computed using the SCF density matrix

 Multipole Moments:

 ------------------------------------------------------------------------------------
     Multipole            Electronic (a.u.)      Nuclear  (a.u.)        Total (a.u.)
 ------------------------------------------------------------------------------------

 L = 1.  Multiply by 2.5417464519 to convert [e a0] to [Debye]
 Dipole X            :          0.0000000            0.0000000            0.0000000
 Dipole Y            :          0.0000000            0.0000000            0.0000000
 Dipole Z            :         -3.6332036            3.4930148           -0.1401888
 Magnitude           :                                                    0.1401888

 ------------------------------------------------------------------------------------

*** tstop() called on Joses-MacBook-Pro-2.local at Thu Jul 17 12:24:50 2025
Module time:
	user time   =       2.20 seconds =       0.04 minutes
	system time =       2.23 seconds =       0.04 minutes
	total time  =          0 seconds =       0.00 minutes
Total time:
	user time   =      39.29 seconds =       0.65 minutes
	system time =      85.36 seconds =       1.42 minutes
	total time  =         30 seconds =       0.50 minutes

*** tstart() called on Joses-MacBook-Pro-2.local
*** at Thu Jul 17 12:24:50 2025

         ------------------------------------------------------------
                                   SCF GRAD
                          Rob Parrish, Justin Turney,
                       Andy Simmonett, and Alex Sokolov
         ------------------------------------------------------------

  ==> Geometry <==

    Molecular point group: c2v
    Full point group: C_inf_v

    Geometry (in Angstrom), charge = 1, multiplicity = 3:

       Center              X                  Y                   Z               Mass
    ------------   -----------------  -----------------  -----------------  -----------------
         H            0.000000000000     0.000000000000     3.385070304188     1.007825032230
         AR           0.000000000000     0.000000000000    -0.085369247821    39.962383123700

  Nuclear repulsion =    2.744663795266396

  ==> Basis Set <==

  Basis Set: CC-PVDZ
    Blend: CC-PVDZ
    Number of shells: 11
    Number of basis functions: 23
    Number of Cartesian functions: 24
    Spherical Harmonics?: true
    Max angular momentum: 2

  ==> DFJKGrad: Density-Fitted SCF Gradients <==

    Gradient:                    1
    J tasked:                  Yes
    K tasked:                  Yes
    wK tasked:                  No
    OpenMP threads:              1
    Integrals threads:           1
    Memory [MiB]:              375
    Schwarz Cutoff:          1E-12
    Fitting Condition:       1E-10

   => Auxiliary Basis Set <=

  Basis Set: (CC-PVDZ AUX)
    Blend: CC-PVDZ-JKFIT
    Number of shells: 45
    Number of basis functions: 135
    Number of Cartesian functions: 155
    Spherical Harmonics?: true
    Max angular momentum: 3

  ==> DFT Potential <==

   => LibXC <=

    Version 6.2.2
    S. Lehtola, C. Steigemann, M. J.T. Oliveira, and M. A.L. Marques.,  SoftwareX 7, 1â€“5 (2018) (10.1016/j.softx.2017.11.002)

   => Composite Functional: B3LYP <=

    B3LYP Hyb-GGA Exchange-Correlation Functional

    P. J. Stephens, F. J. Devlin, C. F. Chabalowski, and M. J. Frisch.,  J. Phys. Chem. 98, 11623 (1994) (10.1021/j100096a001)

    Deriv               =              1
    GGA                 =           TRUE
    Meta                =          FALSE

    Exchange Hybrid     =           TRUE
    MP2 Hybrid          =          FALSE

   => Exchange Functionals <=

    0.0800   Slater exchange
    0.7200         Becke 88

   => Exact (HF) Exchange <=

    0.2000               HF

   => Correlation Functionals <=

    0.1900   Vosko, Wilk & Nusair (VWN5_RPA)
    0.8100   Lee, Yang & Parr

   => LibXC Density Thresholds  <==

    XC_HYB_GGA_XC_B3LYP:  1.00E-15

   => Molecular Quadrature <=

    Radial Scheme          =       TREUTLER
    Pruning Scheme         =           NONE
    Nuclear Scheme         =       TREUTLER

    Blocking Scheme        =         OCTREE
    BS radius alpha        =              1
    Pruning alpha          =              1
    Radial Points          =             75
    Spherical Points       =            302
    Total Points           =          42579
    Total Blocks           =            385
    Max Points             =            256
    Max Functions          =             23
    Weights Tolerance      =       1.00E-15

  -Total Gradient:
     Atom            X                  Y                   Z
    ------   -----------------  -----------------  -----------------
       1        0.000000000000     0.000000000000    -0.000011062624
       2        0.000000000000    -0.000000000000     0.000011254238

*** tstop() called on Joses-MacBook-Pro-2.local at Thu Jul 17 12:24:50 2025
Module time:
	user time   =       0.70 seconds =       0.01 minutes
	system time =       0.96 seconds =       0.02 minutes
	total time  =          0 seconds =       0.00 minutes
Total time:
	user time   =      39.99 seconds =       0.67 minutes
	system time =      86.33 seconds =       1.44 minutes
	total time  =         30 seconds =       0.50 minutes

    			-----------------------------------------

    			 OPTKING 3.0: for geometry optimizations

    			     By R.A. King, Bethel University

    			        with contributions from

    			    A.V. Copan, J. Cayton, A. Heide

    			-----------------------------------------

	                            ===> Fragment 1 <==

	 Z (Atomic Numbers)          Masses                          Geom
	       1.000000             1.007825          0.00000000  0.00000000  6.39685579
	      18.000000            39.962383          0.00000000  0.00000000 -0.16132450

	 - Coordinate -           - BOHR/RAD -       - ANG/DEG -
	 R(1,2)           =         6.558180           3.470440

	        --- Internal Coordinate Step in ANG or DEG, aJ/ANG or AJ/DEG ---
	-------------------------------------------------------------------------------
	           Coordinate      Previous         Force          Change          New
	           ----------      --------        ------          ------        ------
	               R(1,2)       3.47044        0.00009        0.01087       3.48131
	-------------------------------------------------------------------------------

	                                 ==> Convergence Check <==

	Measures of convergence in internal coordinates in au.

	Criteria marked as inactive (o), active & met (*), and active & unmet ( ).

	----------------------------------------------------------------------------------------------
	   Step    Total Energy     Delta E     Max Force     RMS Force      Max Disp      RMS Disp
	----------------------------------------------------------------------------------------------
	  Convergence Criteria     1.00e-06 *    3.00e-04 *             o    1.20e-03 *             o
	----------------------------------------------------------------------------------------------
	    16    -527.46340427   -4.80e-07 *    1.12e-05 *    1.12e-05 o    2.05e-02      2.05e-02 o  ~
	----------------------------------------------------------------------------------------------

Next Geometry in Ang
	Fragment 1 (Ang)

	    H   0.0000000000   0.0000000000   3.3905065265
	   Ar   0.0000000000   0.0000000000  -0.0908054701

    Final optimized geometry and variables:
    Molecular point group: c2v
    Full point group: C_inf_v

    Geometry (in Angstrom), charge = 1, multiplicity = 3:

    H            0.000000000000     0.000000000000     3.385070304188
    AR           0.000000000000     0.000000000000    -0.085369247821

    Psi4 stopped on: Thursday, 17 July 2025 12:24PM
    Psi4 wall time for execution: 0:00:31.19

*** Psi4 exiting successfully. Buy a developer a beer!
