                               Psi4 1.9.1 release

  ==> Input File <==

--------------------------------------------------------------------------
molecule {
-1 2
Be           0.000000           0.000000           0.000000
}

set {
basis              cc-pvtz
reference          uks
maxiter            500
DAMPING_PERCENTAGE 1
E_CONVERGENCE      1.0E-8
D_CONVERGENCE      1.0E-8
DIIS_MAX_VECS      400
MBIS_MAXITER       8000
guess              SAP
}

energy('b3lyp')
--------------------------------------------------------------------------

    Molecular point group: d2h
    Geometry (in Angstrom), charge = -1, multiplicity = 2:

       Center              X                  Y                   Z               Mass
    ------------   -----------------  -----------------  -----------------  -----------------
         BE           0.000000000000     0.000000000000     0.000000000000     9.012183065000

  Charge       = -1
  Multiplicity = 2
  Basis Set: CC-PVTZ
    Blend: CC-PVTZ
  Basis Set: (CC-PVTZ AUX)
    Blend: DEF2-UNIVERSAL-JKFIT

    Orbital Energies [Eh]
    ---------------------

    Alpha Occupied:

       1Ag    -3.832718     2Ag    -0.018076     1B1u    0.094456

    Alpha Virtual:

       1B2u    0.145651     1B3u    0.145651     3Ag     0.277207
       2B1u    0.308826     2B2u    0.325283     2B3u    0.325283
       1B3g    0.526325     1B2g    0.526325     4Ag     0.528831
       5Ag     0.536226     1B1g    0.536226     3B1u    0.989635
       3B3u    0.999619     3B2u    0.999619     2B2g    1.385666
       2B3g    1.385666     6Ag     1.387588     7Ag     1.397802
       2B1g    1.397802     1Au     1.408826     4B1u    1.408826
       5B1u    1.409247     4B3u    1.409955     4B2u    1.409955
       5B3u    1.416256     5B2u    1.416256     8Ag     1.439942

    Beta Occupied:

       1Ag    -3.830087     2Ag     0.002039

    Beta Virtual:

       1B2u    0.148557     1B3u    0.148557     1B1u    0.165849
       3Ag     0.287520     2B3u    0.326276     2B2u    0.326276
       2B1u    0.343650     4Ag     0.534705     1B1g    0.534705
       1B3g    0.551301     1B2g    0.551301     5Ag     0.557537
       3B3u    0.998773     3B2u    0.998773     3B1u    1.015710
       6Ag     1.393308     2B1g    1.393308     4B3u    1.409246
       4B2u    1.409246     2B3g    1.410514     2B2g    1.410514
       7Ag     1.415445     4B1u    1.424552     1Au     1.424552
       5B3u    1.433505     5B2u    1.433505     5B1u    1.436755
       8Ag     1.446859

    Final Occupation by Irrep:
             Ag   B1g   B2g   B3g    Au   B1u   B2u   B3u
    DOCC [     2,    0,    0,    0,    0,    0,    0,    0 ]
    SOCC [     0,    0,    0,    0,    0,    1,    0,    0 ]
    NA   [     2,    0,    0,    0,    0,    1,    0,    0 ]
    NB   [     2,    0,    0,    0,    0,    0,    0,    0 ]

  @DF-UKS Final Energy:   -14.65069465698126

   => Energetics <=

    Nuclear Repulsion Energy =              0.0000000000000000
    One-Electron Energy =                 -20.0063756430157191
    Two-Electron Energy =                   7.7167418442738702
    DFT Exchange-Correlation Energy =      -2.3610608582394121
    Empirical Dispersion Energy =           0.0000000000000000
    VV10 Nonlocal Energy =                  0.0000000000000000
    Total Energy =                        -14.6506946569812619

  UHF NO Occupations:
  HONO-2 :    1 Ag 1.9999997
  HONO-1 :    2 Ag 1.9985272
  HONO-0 :    1B1u 1.0000000
  LUNO+0 :    3 Ag 0.0014728
  LUNO+1 :    4 Ag 0.0000003
  LUNO+2 :    5 Ag 0.0000000
  LUNO+3 :    2B1u 0.0000000

Computation Completed

Properties will be evaluated at   0.000000,   0.000000,   0.000000 [a0]

Properties computed using the SCF density matrix

 Multipole Moments:

 ------------------------------------------------------------------------------------
     Multipole            Electronic (a.u.)      Nuclear  (a.u.)        Total (a.u.)
 ------------------------------------------------------------------------------------

 L = 1.  Multiply by 2.5417464519 to convert [e a0] to [Debye]
 Dipole X            :          0.0000000            0.0000000            0.0000000
 Dipole Y            :          0.0000000            0.0000000            0.0000000
 Dipole Z            :          0.0000000            0.0000000            0.0000000
 Magnitude           :                                                    0.0000000

 ------------------------------------------------------------------------------------

*** tstop() called on Joses-MacBook-Pro-2.local at Sat Jan 25 21:29:35 2025
Module time:
	user time   =       0.66 seconds =       0.01 minutes
	system time =       1.97 seconds =       0.03 minutes
	total time  =          0 seconds =       0.00 minutes
Total time:
	user time   =       0.66 seconds =       0.01 minutes
	system time =       1.97 seconds =       0.03 minutes
	total time  =          0 seconds =       0.00 minutes

    Psi4 stopped on: Saturday, 25 January 2025 09:29PM
    Psi4 wall time for execution: 0:00:00.41

*** Psi4 exiting successfully. Buy a developer a beer!
