                               Psi4 1.9.1 release

  ==> Input File <==

--------------------------------------------------------------------------
molecule {
-1 2
Ne           0.000000           0.000000           0.000000
}

set {
basis              cc-pvtz
reference          uks
maxiter            500
DAMPING_PERCENTAGE 1
E_CONVERGENCE      1.0E-8
D_CONVERGENCE      1.0E-8
DIIS_MAX_VECS      400
MBIS_MAXITER       8000
guess              SAP
}

energy('b3lyp')
--------------------------------------------------------------------------

    Molecular point group: d2h
    Geometry (in Angstrom), charge = -1, multiplicity = 2:

       Center              X                  Y                   Z               Mass
    ------------   -----------------  -----------------  -----------------  -----------------
         NE           0.000000000000     0.000000000000     0.000000000000    19.992440176200

  Charge       = -1
  Multiplicity = 2
  Basis Set: CC-PVTZ
    Blend: CC-PVTZ
  Basis Set: (CC-PVTZ AUX)
    Blend: CC-PVTZ-JKFIT

    Orbital Energies [Eh]
    ---------------------

    Alpha Occupied:

       1Ag   -30.396641     2Ag    -0.945605     1B2u   -0.079955
       1B3u   -0.067852     1B1u   -0.067852     2B2u    1.156992

    Alpha Virtual:

       2B1u    1.263214     2B3u    1.263214     3Ag     1.557412
       4Ag     2.945828     1B2g    2.945828     1B3g    2.966694
       1B1g    2.966694     5Ag     2.975555     3B2u    6.020447
       3B1u    6.027438     3B3u    6.027438     4B1u    9.538753
       4B3u    9.538753     4B2u    9.553061     1Au     9.553061
       5B1u    9.562579     5B3u    9.562579     5B2u    9.565808
       2B3g   11.034415     2B1g   11.034415     6Ag    11.035283
       7Ag    11.041171     2B2g   11.041171     8Ag    11.460312

    Beta Occupied:

       1Ag   -30.379319     2Ag    -0.919725     1B3u   -0.055608
       1B1u   -0.055608     1B2u   -0.006477

    Beta Virtual:

       2B1u    1.286036     2B3u    1.286036     2B2u    1.330903
       3Ag     1.605542     1B2g    2.946665     4Ag     2.946665
       1B3g    2.978194     1B1g    2.978194     5Ag     2.989098
       3B1u    6.038064     3B3u    6.038064     3B2u    6.084187
       4B1u    9.538785     4B3u    9.538785     4B2u    9.564311
       1Au     9.564311     5B1u    9.579719     5B3u    9.579719
       5B2u    9.584868     2B2g   11.049297     6Ag    11.049297
       2B3g   11.088294     2B1g   11.088294     7Ag    11.100844
       8Ag    11.490039

    Final Occupation by Irrep:
             Ag   B1g   B2g   B3g    Au   B1u   B2u   B3u
    DOCC [     2,    0,    0,    0,    0,    1,    1,    1 ]
    SOCC [     0,    0,    0,    0,    0,    0,    1,    0 ]
    NA   [     2,    0,    0,    0,    0,    1,    2,    1 ]
    NB   [     2,    0,    0,    0,    0,    1,    1,    1 ]

  @DF-UKS Final Energy:  -127.95803383252422

   => Energetics <=

    Nuclear Repulsion Energy =              0.0000000000000000
    One-Electron Energy =                -186.6375519418852491
    Two-Electron Energy =                  69.1035612879479260
    DFT Exchange-Correlation Energy =     -10.4240431785869010
    Empirical Dispersion Energy =           0.0000000000000000
    VV10 Nonlocal Energy =                  0.0000000000000000
    Total Energy =                       -127.9580338325242224

  UHF NO Occupations:
  HONO-2 :    2 Ag 1.9999803
  HONO-1 :    1B2u 1.9999540
  HONO-0 :    2B2u 1.0000000
  LUNO+0 :    3B2u 0.0000460
  LUNO+1 :    3 Ag 0.0000197
  LUNO+2 :    2B1u 0.0000025
  LUNO+3 :    2B3u 0.0000025

Computation Completed

Properties will be evaluated at   0.000000,   0.000000,   0.000000 [a0]

Properties computed using the SCF density matrix

 Multipole Moments:

 ------------------------------------------------------------------------------------
     Multipole            Electronic (a.u.)      Nuclear  (a.u.)        Total (a.u.)
 ------------------------------------------------------------------------------------

 L = 1.  Multiply by 2.5417464519 to convert [e a0] to [Debye]
 Dipole X            :          0.0000000            0.0000000            0.0000000
 Dipole Y            :          0.0000000            0.0000000            0.0000000
 Dipole Z            :          0.0000000            0.0000000            0.0000000
 Magnitude           :                                                    0.0000000

 ------------------------------------------------------------------------------------

*** tstop() called on Joses-MacBook-Pro-2.local at Sat Jan 25 21:29:58 2025
Module time:
	user time   =       2.78 seconds =       0.05 minutes
	system time =       2.37 seconds =       0.04 minutes
	total time  =          1 seconds =       0.02 minutes
Total time:
	user time   =       2.78 seconds =       0.05 minutes
	system time =       2.37 seconds =       0.04 minutes
	total time  =          1 seconds =       0.02 minutes

    Psi4 stopped on: Saturday, 25 January 2025 09:29PM
    Psi4 wall time for execution: 0:00:00.54

*** Psi4 exiting successfully. Buy a developer a beer!
