                               Psi4 1.9.1 release

  ==> Input File <==

--------------------------------------------------------------------------
molecule {
-1 2
C           0.000000           0.000000           0.000000
}

set {
basis              cc-pvtz
reference          uks
maxiter            500
DAMPING_PERCENTAGE 1
E_CONVERGENCE      1.0E-8
D_CONVERGENCE      1.0E-8
DIIS_MAX_VECS      400
MBIS_MAXITER       8000
guess              SAP
}

energy('b3lyp')
--------------------------------------------------------------------------

    Molecular point group: d2h
    Geometry (in Angstrom), charge = -1, multiplicity = 2:

       Center              X                  Y                   Z               Mass
    ------------   -----------------  -----------------  -----------------  -----------------
         C            0.000000000000     0.000000000000     0.000000000000    12.000000000000

  Charge       = -1
  Multiplicity = 2
  Basis Set: CC-PVTZ
    Blend: CC-PVTZ
  Basis Set: (CC-PVTZ AUX)
    Blend: CC-PVTZ-JKFIT

    Orbital Energies [Eh]
    ---------------------

    Alpha Occupied:

       1Ag    -9.900922     2Ag    -0.200514     1B3u    0.090463
       1B1u    0.134243

    Alpha Virtual:

       1B2u    0.187487     2B3u    0.576190     2B2u    0.599338
       2B1u    0.605455     3Ag     0.652861     1B1g    0.971143
       4Ag     0.975599     1B2g    0.994397     1B3g    0.998312
       5Ag     1.008547     3B3u    2.267340     3B2u    2.289637
       3B1u    2.306824     4B3u    2.989314     4B2u    2.990579
       1Au     3.012894     4B1u    3.016410     5B3u    3.032445
       5B2u    3.034624     5B1u    3.039413     2B1g    3.262735
       6Ag     3.268640     2B2g    3.288557     2B3g    3.299663
       7Ag     3.312098     8Ag     4.064291

    Beta Occupied:

       1Ag    -9.888725     2Ag    -0.151209     1B1u    0.146539

    Beta Virtual:

       1B2u    0.199986     1B3u    0.239758     2B2u    0.607989
       2B1u    0.613337     2B3u    0.639915     3Ag     0.677025
       1B3g    1.000930     4Ag     1.002621     1B1g    1.013949
       1B2g    1.029542     5Ag     1.035105     3B2u    2.299109
       3B1u    2.317508     3B3u    2.338987     4B1u    3.028055
       4B2u    3.029270     4B3u    3.038715     1Au     3.044923
       5B2u    3.051018     5B1u    3.075195     5B3u    3.077507
       2B3g    3.304038     6Ag     3.310861     2B1g    3.330489
       2B2g    3.343902     7Ag     3.354771     8Ag     4.090517

    Final Occupation by Irrep:
             Ag   B1g   B2g   B3g    Au   B1u   B2u   B3u
    DOCC [     2,    0,    0,    0,    0,    1,    0,    0 ]
    SOCC [     0,    0,    0,    0,    0,    0,    0,    1 ]
    NA   [     2,    0,    0,    0,    0,    1,    0,    1 ]
    NB   [     2,    0,    0,    0,    0,    1,    0,    0 ]

  @DF-UKS Final Energy:   -37.82443286314070

   => Energetics <=

    Nuclear Repulsion Energy =              0.0000000000000000
    One-Electron Energy =                 -52.6895779962632673
    Two-Electron Energy =                  19.2793713757935379
    DFT Exchange-Correlation Energy =      -4.4142262426709733
    Empirical Dispersion Energy =           0.0000000000000000
    VV10 Nonlocal Energy =                  0.0000000000000000
    Total Energy =                        -37.8244328631407001

  UHF NO Occupations:
  HONO-2 :    1B1u 1.9998102
  HONO-1 :    2 Ag 1.9990196
  HONO-0 :    1B3u 1.0000000
  LUNO+0 :    3 Ag 0.0009804
  LUNO+1 :    2B1u 0.0001898
  LUNO+2 :    4 Ag 0.0000005
  LUNO+3 :    2B3u 0.0000000

Computation Completed

Properties will be evaluated at   0.000000,   0.000000,   0.000000 [a0]

Properties computed using the SCF density matrix

 Multipole Moments:

 ------------------------------------------------------------------------------------
     Multipole            Electronic (a.u.)      Nuclear  (a.u.)        Total (a.u.)
 ------------------------------------------------------------------------------------

 L = 1.  Multiply by 2.5417464519 to convert [e a0] to [Debye]
 Dipole X            :          0.0000000            0.0000000            0.0000000
 Dipole Y            :          0.0000000            0.0000000            0.0000000
 Dipole Z            :          0.0000000            0.0000000            0.0000000
 Magnitude           :                                                    0.0000000

 ------------------------------------------------------------------------------------

*** tstop() called on Joses-MacBook-Pro-2.local at Sat Jan 25 21:29:42 2025
Module time:
	user time   =       2.94 seconds =       0.05 minutes
	system time =       1.68 seconds =       0.03 minutes
	total time  =          0 seconds =       0.00 minutes
Total time:
	user time   =       2.94 seconds =       0.05 minutes
	system time =       1.68 seconds =       0.03 minutes
	total time  =          0 seconds =       0.00 minutes

    Psi4 stopped on: Saturday, 25 January 2025 09:29PM
    Psi4 wall time for execution: 0:00:00.49

*** Psi4 exiting successfully. Buy a developer a beer!
