                               Psi4 1.9.1 release

  ==> Input File <==

--------------------------------------------------------------------------
molecule {
-1 2
Ar           0.000000           0.000000           0.000000
}

set {
basis              cc-pvtz
reference          uks
maxiter            500
DAMPING_PERCENTAGE 1
E_CONVERGENCE      1.0E-8
D_CONVERGENCE      1.0E-8
DIIS_MAX_VECS      400
MBIS_MAXITER       8000
guess              SAP
}

energy('b3lyp')
--------------------------------------------------------------------------

    Molecular point group: d2h
    Geometry (in Angstrom), charge = -1, multiplicity = 2:

       Center              X                  Y                   Z               Mass
    ------------   -----------------  -----------------  -----------------  -----------------
         AR           0.000000000000     0.000000000000     0.000000000000    39.962383123700

  Charge       = -1
  Multiplicity = 2
  Basis Set: CC-PVTZ
    Blend: CC-PVTZ
  Basis Set: (CC-PVTZ AUX)
    Blend: CC-PVTZ-JKFIT

    Orbital Energies [Eh]
    ---------------------

    Alpha Occupied:

       1Ag  -114.761570     2Ag   -10.792647     1B2u   -8.344840
       1B3u   -8.344840     1B1u   -8.342203     3Ag    -0.646673
       2B2u   -0.114458     2B3u   -0.114458     2B1u   -0.111972
       3B1u    0.580667

    Alpha Virtual:

       3B2u    0.644546     3B3u    0.644546     4Ag     0.781650
       5Ag     0.813895     1B1g    0.813895     1B3g    0.824614
       1B2g    0.824614     6Ag     0.830413     7Ag     2.479345
       2B1g    2.479345     2B2g    2.481018     2B3g    2.481018
       8Ag     2.482966     4B3u    2.826418     4B2u    2.826418
       4B1u    2.831611     5B2u    2.870944     5B3u    2.870944
       5B1u    2.879350     1Au     2.879350     6B2u    2.885860
       6B3u    2.885860     6B1u    2.888368     9Ag     5.256307

    Beta Occupied:

       1Ag  -114.757983     2Ag   -10.789025     1B2u   -8.342721
       1B3u   -8.342721     1B1u   -8.330369     3Ag    -0.632298
       2B3u   -0.109552     2B2u   -0.109552     2B1u   -0.080214

    Beta Virtual:

       3B2u    0.656662     3B3u    0.656662     3B1u    0.683234
       4Ag     0.804972     1B1g    0.814828     5Ag     0.814828
       1B2g    0.835712     1B3g    0.835712     6Ag     0.844139
       2B1g    2.482111     7Ag     2.482111     2B2g    2.502397
       2B3g    2.502397     8Ag     2.509478     4B2u    2.830476
       4B3u    2.830476     4B1u    2.855177     5B2u    2.870764
       5B3u    2.870764     5B1u    2.887034     1Au     2.887034
       6B2u    2.897050     6B3u    2.897050     6B1u    2.900543
       9Ag     5.267385

    Final Occupation by Irrep:
             Ag   B1g   B2g   B3g    Au   B1u   B2u   B3u
    DOCC [     3,    0,    0,    0,    0,    2,    2,    2 ]
    SOCC [     0,    0,    0,    0,    0,    1,    0,    0 ]
    NA   [     3,    0,    0,    0,    0,    3,    2,    2 ]
    NB   [     3,    0,    0,    0,    0,    2,    2,    2 ]

  @DF-UKS Final Energy:  -527.07733317238535

   => Energetics <=

    Nuclear Repulsion Energy =              0.0000000000000000
    One-Electron Energy =                -733.8520787566055787
    Two-Electron Energy =                 231.8651509758588816
    DFT Exchange-Correlation Energy =     -25.0904053916385905
    Empirical Dispersion Energy =           0.0000000000000000
    VV10 Nonlocal Energy =                  0.0000000000000000
    Total Energy =                       -527.0773331723852380

  UHF NO Occupations:
  HONO-2 :    2B1u 1.9999605
  HONO-1 :    3 Ag 1.9999356
  HONO-0 :    3B1u 1.0000000
  LUNO+0 :    4 Ag 0.0000644
  LUNO+1 :    4B1u 0.0000395
  LUNO+2 :    3B3u 0.0000063
  LUNO+3 :    3B2u 0.0000063

Computation Completed

Properties will be evaluated at   0.000000,   0.000000,   0.000000 [a0]

Properties computed using the SCF density matrix

 Multipole Moments:

 ------------------------------------------------------------------------------------
     Multipole            Electronic (a.u.)      Nuclear  (a.u.)        Total (a.u.)
 ------------------------------------------------------------------------------------

 L = 1.  Multiply by 2.5417464519 to convert [e a0] to [Debye]
 Dipole X            :          0.0000000            0.0000000            0.0000000
 Dipole Y            :          0.0000000            0.0000000            0.0000000
 Dipole Z            :          0.0000000            0.0000000            0.0000000
 Magnitude           :                                                    0.0000000

 ------------------------------------------------------------------------------------

*** tstop() called on Joses-MacBook-Pro-2.local at Sat Jan 25 21:30:31 2025
Module time:
	user time   =       3.59 seconds =       0.06 minutes
	system time =       1.54 seconds =       0.03 minutes
	total time  =          1 seconds =       0.02 minutes
Total time:
	user time   =       3.59 seconds =       0.06 minutes
	system time =       1.54 seconds =       0.03 minutes
	total time  =          1 seconds =       0.02 minutes

    Psi4 stopped on: Saturday, 25 January 2025 09:30PM
    Psi4 wall time for execution: 0:00:00.56

*** Psi4 exiting successfully. Buy a developer a beer!
