                               Psi4 1.9.1 release

  ==> Input File <==

--------------------------------------------------------------------------
molecule {
-1 2
S           0.000000           0.000000           0.000000
}

set {
basis              cc-pvtz
reference          uks
maxiter            500
DAMPING_PERCENTAGE 1
E_CONVERGENCE      1.0E-8
D_CONVERGENCE      1.0E-8
DIIS_MAX_VECS      400
MBIS_MAXITER       8000
guess              SAP
}

energy('b3lyp')
--------------------------------------------------------------------------

    Molecular point group: d2h
    Geometry (in Angstrom), charge = -1, multiplicity = 2:

       Center              X                  Y                   Z               Mass
    ------------   -----------------  -----------------  -----------------  -----------------
         S            0.000000000000     0.000000000000     0.000000000000    31.972071174400

  Charge       = -1
  Multiplicity = 2
  Basis Set: CC-PVTZ
    Blend: CC-PVTZ
  Basis Set: (CC-PVTZ AUX)
    Blend: CC-PVTZ-JKFIT

    Orbital Energies [Eh]
    ---------------------

    Alpha Occupied:

       1Ag   -88.578136     2Ag    -7.629628     1B3u   -5.602278
       1B2u   -5.585594     1B1u   -5.585594     3Ag    -0.368097
       2B3u   -0.012769     2B1u    0.030709     2B2u    0.030709

    Alpha Virtual:

       3B3u    0.522633     3B2u    0.547506     3B1u    0.547506
       4Ag     0.592759     5Ag     0.628442     1B2g    0.637015
       1B1g    0.637015     6Ag     0.667172     1B3g    0.667172
       7Ag     1.795473     2B2g    1.804786     2B1g    1.804786
       8Ag     1.834634     2B3g    1.834634     4B3u    1.925643
       4B1u    1.931150     4B2u    1.931150     5B3u    1.947133
       1Au     1.947133     5B2u    1.974454     5B1u    1.974454
       6B3u    2.185690     6B1u    2.221403     6B2u    2.221403
       9Ag     3.578358

    Beta Occupied:

       1Ag   -88.573353     2Ag    -7.624814     1B3u   -5.586067
       1B2u   -5.582784     1B1u   -5.582784     3Ag    -0.324644
       2B1u    0.042015     2B2u    0.042015

    Beta Virtual:

       2B3u    0.119459     3B2u    0.552627     3B1u    0.552627
       3B3u    0.561236     4Ag     0.609784     1B3g    0.670783
       5Ag     0.670783     1B2g    0.676542     1B1g    0.676542
       6Ag     0.683747     2B3g    1.837570     7Ag     1.837570
       2B2g    1.838223     2B1g    1.838223     8Ag     1.842077
       4B3u    1.974561     1Au     1.974561     4B2u    1.975185
       4B1u    1.975185     5B1u    1.977622     5B2u    1.977622
       5B3u    1.981079     6B1u    2.227844     6B2u    2.227844
       6B3u    2.229237     9Ag     3.592636

    Final Occupation by Irrep:
             Ag   B1g   B2g   B3g    Au   B1u   B2u   B3u
    DOCC [     3,    0,    0,    0,    0,    2,    2,    1 ]
    SOCC [     0,    0,    0,    0,    0,    0,    0,    1 ]
    NA   [     3,    0,    0,    0,    0,    2,    2,    2 ]
    NB   [     3,    0,    0,    0,    0,    2,    2,    1 ]

  @DF-UKS Final Energy:  -398.20628042329440

   => Energetics <=

    Nuclear Repulsion Energy =              0.0000000000000000
    One-Electron Energy =                -555.0974752996171446
    Two-Electron Energy =                 177.7292724071236307
    DFT Exchange-Correlation Energy =     -20.8380775308008950
    Empirical Dispersion Energy =           0.0000000000000000
    VV10 Nonlocal Energy =                  0.0000000000000000
    Total Energy =                       -398.2062804232944018

  UHF NO Occupations:
  HONO-2 :    2B1u 1.9998469
  HONO-1 :    3 Ag 1.9987313
  HONO-0 :    2B3u 1.0000000
  LUNO+0 :    4 Ag 0.0012687
  LUNO+1 :    3B2u 0.0001531
  LUNO+2 :    3B1u 0.0001531
  LUNO+3 :    3B3u 0.0000002

Computation Completed

Properties will be evaluated at   0.000000,   0.000000,   0.000000 [a0]

Properties computed using the SCF density matrix

 Multipole Moments:

 ------------------------------------------------------------------------------------
     Multipole            Electronic (a.u.)      Nuclear  (a.u.)        Total (a.u.)
 ------------------------------------------------------------------------------------

 L = 1.  Multiply by 2.5417464519 to convert [e a0] to [Debye]
 Dipole X            :          0.0000000            0.0000000            0.0000000
 Dipole Y            :          0.0000000            0.0000000            0.0000000
 Dipole Z            :          0.0000000            0.0000000            0.0000000
 Magnitude           :                                                    0.0000000

 ------------------------------------------------------------------------------------

*** tstop() called on Joses-MacBook-Pro-2.local at Sat Jan 25 21:30:23 2025
Module time:
	user time   =       3.58 seconds =       0.06 minutes
	system time =       1.57 seconds =       0.03 minutes
	total time  =          1 seconds =       0.02 minutes
Total time:
	user time   =       3.58 seconds =       0.06 minutes
	system time =       1.57 seconds =       0.03 minutes
	total time  =          1 seconds =       0.02 minutes

    Psi4 stopped on: Saturday, 25 January 2025 09:30PM
    Psi4 wall time for execution: 0:00:00.56

*** Psi4 exiting successfully. Buy a developer a beer!
