                               Psi4 1.9.1 release

  ==> Input File <==

--------------------------------------------------------------------------
molecule {
-1 2
O           0.000000           0.000000           0.000000
}

set {
basis              cc-pvtz
reference          uks
maxiter            500
DAMPING_PERCENTAGE 1
E_CONVERGENCE      1.0E-8
D_CONVERGENCE      1.0E-8
DIIS_MAX_VECS      400
MBIS_MAXITER       8000
guess              SAP
}

energy('b3lyp')
--------------------------------------------------------------------------

    Molecular point group: d2h
    Geometry (in Angstrom), charge = -1, multiplicity = 2:

       Center              X                  Y                   Z               Mass
    ------------   -----------------  -----------------  -----------------  -----------------
         O            0.000000000000     0.000000000000     0.000000000000    15.994914619570

  Charge       = -1
  Multiplicity = 2
  Basis Set: CC-PVTZ
    Blend: CC-PVTZ
  Basis Set: (CC-PVTZ AUX)
    Blend: CC-PVTZ-JKFIT

    Orbital Energies [Eh]
    ---------------------

    Alpha Occupied:

       1Ag   -18.703060     2Ag    -0.479111     1B2u    0.043015
       1B1u    0.110199     1B3u    0.110199

    Alpha Virtual:

       2B2u    0.902399     2B3u    0.941864     2B1u    0.941864
       3Ag     1.099628     4Ag     1.838916     1B1g    1.851832
       1B3g    1.851832     5Ag     1.892991     1B2g    1.892991
       3B2u    3.956298     3B3u    4.016994     3B1u    4.016994
       4B2u    5.508984     4B3u    5.517236     4B1u    5.517236
       5B2u    5.541322     1Au     5.541322     5B1u    5.582521
       5B3u    5.582521     6Ag     6.560593     2B1g    6.579842
       2B3g    6.579842     7Ag     6.636630     2B2g    6.636630
       8Ag     7.394555

    Beta Occupied:

       1Ag   -18.680168     2Ag    -0.405544     1B1u    0.132990
       1B3u    0.132990

    Beta Virtual:

       1B2u    0.268693     2B3u    0.954112     2B1u    0.954112
       2B2u    0.984262     3Ag     1.133261     1B2g    1.898699
       4Ag     1.898699     1B1g    1.904284     1B3g    1.904284
       5Ag     1.913852     3B3u    4.037186     3B1u    4.037186
       3B2u    4.068311     4B2u    5.584006     1Au     5.584006
       4B3u    5.586136     4B1u    5.586136     5B3u    5.588758
       5B1u    5.588758     5B2u    5.595284     2B2g    6.649809
       6Ag     6.649809     2B1g    6.667894     2B3g    6.667894
       7Ag     6.690510     8Ag     7.439037

    Final Occupation by Irrep:
             Ag   B1g   B2g   B3g    Au   B1u   B2u   B3u
    DOCC [     2,    0,    0,    0,    0,    1,    0,    1 ]
    SOCC [     0,    0,    0,    0,    0,    0,    1,    0 ]
    NA   [     2,    0,    0,    0,    0,    1,    1,    1 ]
    NB   [     2,    0,    0,    0,    0,    1,    0,    1 ]

  @DF-UKS Final Energy:   -75.11459556046823

   => Energetics <=

    Nuclear Repulsion Energy =              0.0000000000000000
    One-Electron Energy =                -107.3771788753057166
    Two-Electron Energy =                  39.3749651721371094
    DFT Exchange-Correlation Energy =      -7.1123818572996296
    Empirical Dispersion Energy =           0.0000000000000000
    VV10 Nonlocal Energy =                  0.0000000000000000
    Total Energy =                        -75.1145955604682314

  UHF NO Occupations:
  HONO-2 :    1B3u 1.9998375
  HONO-1 :    2 Ag 1.9994643
  HONO-0 :    1B2u 1.0000000
  LUNO+0 :    3 Ag 0.0005357
  LUNO+1 :    2B1u 0.0001625
  LUNO+2 :    2B3u 0.0001625
  LUNO+3 :    4 Ag 0.0000005

Computation Completed

Properties will be evaluated at   0.000000,   0.000000,   0.000000 [a0]

Properties computed using the SCF density matrix

 Multipole Moments:

 ------------------------------------------------------------------------------------
     Multipole            Electronic (a.u.)      Nuclear  (a.u.)        Total (a.u.)
 ------------------------------------------------------------------------------------

 L = 1.  Multiply by 2.5417464519 to convert [e a0] to [Debye]
 Dipole X            :          0.0000000            0.0000000            0.0000000
 Dipole Y            :          0.0000000            0.0000000            0.0000000
 Dipole Z            :          0.0000000            0.0000000            0.0000000
 Magnitude           :                                                    0.0000000

 ------------------------------------------------------------------------------------

*** tstop() called on Joses-MacBook-Pro-2.local at Sat Jan 25 21:29:50 2025
Module time:
	user time   =       2.65 seconds =       0.04 minutes
	system time =       2.10 seconds =       0.04 minutes
	total time  =          0 seconds =       0.00 minutes
Total time:
	user time   =       2.65 seconds =       0.04 minutes
	system time =       2.10 seconds =       0.04 minutes
	total time  =          0 seconds =       0.00 minutes

    Psi4 stopped on: Saturday, 25 January 2025 09:29PM
    Psi4 wall time for execution: 0:00:00.49

*** Psi4 exiting successfully. Buy a developer a beer!
