                               Psi4 1.9.1 release

  ==> Input File <==

--------------------------------------------------------------------------
molecule {
-1 4
Ar           0.000000           0.000000           0.000000
}

set {
basis              cc-pvtz
reference          uks
maxiter            500
DAMPING_PERCENTAGE 1
E_CONVERGENCE      1.0E-8
D_CONVERGENCE      1.0E-8
DIIS_MAX_VECS      400
MBIS_MAXITER       8000
guess              SAP
}

energy('b3lyp')
--------------------------------------------------------------------------

    Molecular point group: d2h
    Geometry (in Angstrom), charge = -1, multiplicity = 4:

       Center              X                  Y                   Z               Mass
    ------------   -----------------  -----------------  -----------------  -----------------
         AR           0.000000000000     0.000000000000     0.000000000000    39.962383123700

  Charge       = -1
  Multiplicity = 4
  Basis Set: CC-PVTZ
    Blend: CC-PVTZ
  Basis Set: (CC-PVTZ AUX)
    Blend: CC-PVTZ-JKFIT

    Orbital Energies [Eh]
    ---------------------

    Alpha Occupied:

       1Ag  -114.914924     2Ag   -10.942272     1B3u   -8.513527
       1B2u   -8.489041     1B1u   -8.486586     3Ag    -0.789280
       2B3u   -0.277807     2B2u   -0.222015     2B1u   -0.217578
       3B3u    0.493791     3B1u    0.521067

    Alpha Virtual:

       3B2u    0.582433     4Ag     0.687056     5Ag     0.693042
       1B1g    0.693593     1B2g    0.705966     1B3g    0.734145
       6Ag     0.736628     7Ag     2.328389     2B1g    2.337953
       2B2g    2.341577     2B3g    2.377233     8Ag     2.378263
       4B3u    2.679523     4B2u    2.719932     5B3u    2.724431
       4B1u    2.726347     5B2u    2.726709     5B1u    2.739050
       1Au     2.750850     6B3u    2.753836     6B2u    2.784010
       6B1u    2.784313     9Ag     5.125408

    Beta Occupied:

       1Ag  -114.900331     2Ag   -10.928085     1B2u   -8.480636
       1B3u   -8.475200     1B1u   -8.469382     3Ag    -0.706973
       2B2u   -0.196984     2B1u   -0.169188

    Beta Virtual:

       2B3u   -0.066439     3B2u    0.611819     3B1u    0.638958
       3B3u    0.644625     4Ag     0.744012     1B3g    0.750140
       1B1g    0.755122     5Ag     0.758039     1B2g    0.774759
       6Ag     0.780666     7Ag     2.397250     2B1g    2.400231
       2B3g    2.403551     2B2g    2.419062     8Ag     2.422520
       4B2u    2.736205     4B1u    2.759714     4B3u    2.759965
       5B2u    2.789271     5B3u    2.792072     5B1u    2.792252
       1Au     2.798836     6B2u    2.801638     6B1u    2.816763
       6B3u    2.818701     9Ag     5.166941

    Final Occupation by Irrep:
             Ag   B1g   B2g   B3g    Au   B1u   B2u   B3u
    DOCC [     3,    0,    0,    0,    0,    2,    2,    1 ]
    SOCC [     0,    0,    0,    0,    0,    1,    0,    2 ]
    NA   [     3,    0,    0,    0,    0,    3,    2,    3 ]
    NB   [     3,    0,    0,    0,    0,    2,    2,    1 ]

  @DF-UKS Final Energy:  -526.42236477806068

   => Energetics <=

    Nuclear Repulsion Energy =              0.0000000000000000
    One-Electron Energy =                -730.9200143312323235
    Two-Electron Energy =                 229.5100991877149568
    DFT Exchange-Correlation Energy =     -25.0124496345433158
    Empirical Dispersion Energy =           0.0000000000000000
    VV10 Nonlocal Energy =                  0.0000000000000000
    Total Energy =                       -526.4223647780606825

  UHF NO Occupations:
  HONO-2 :    3B1u 1.0000000
  HONO-1 :    2B3u 1.0000000
  HONO-0 :    3B3u 1.0000000
  LUNO+0 :    4 Ag 0.0012884
  LUNO+1 :    4B1u 0.0001206
  LUNO+2 :    3B2u 0.0001073
  LUNO+3 :    4B3u 0.0000002

Computation Completed

Properties will be evaluated at   0.000000,   0.000000,   0.000000 [a0]

Properties computed using the SCF density matrix

 Multipole Moments:

 ------------------------------------------------------------------------------------
     Multipole            Electronic (a.u.)      Nuclear  (a.u.)        Total (a.u.)
 ------------------------------------------------------------------------------------

 L = 1.  Multiply by 2.5417464519 to convert [e a0] to [Debye]
 Dipole X            :          0.0000000            0.0000000            0.0000000
 Dipole Y            :          0.0000000            0.0000000            0.0000000
 Dipole Z            :          0.0000000            0.0000000            0.0000000
 Magnitude           :                                                    0.0000000

 ------------------------------------------------------------------------------------

*** tstop() called on Joses-MacBook-Pro-2.local at Sat Jan 25 21:30:32 2025
Module time:
	user time   =       4.06 seconds =       0.07 minutes
	system time =       0.99 seconds =       0.02 minutes
	total time  =          1 seconds =       0.02 minutes
Total time:
	user time   =       4.06 seconds =       0.07 minutes
	system time =       0.99 seconds =       0.02 minutes
	total time  =          1 seconds =       0.02 minutes

    Psi4 stopped on: Saturday, 25 January 2025 09:30PM
    Psi4 wall time for execution: 0:00:00.55

*** Psi4 exiting successfully. Buy a developer a beer!
