                               Psi4 1.9.1 release

  ==> Input File <==

--------------------------------------------------------------------------
molecule {
-1 4
S           0.000000           0.000000           0.000000
}

set {
basis              cc-pvtz
reference          uks
maxiter            500
DAMPING_PERCENTAGE 1
E_CONVERGENCE      1.0E-8
D_CONVERGENCE      1.0E-8
DIIS_MAX_VECS      400
MBIS_MAXITER       8000
guess              SAP
}

energy('b3lyp')
--------------------------------------------------------------------------

    Molecular point group: d2h
    Geometry (in Angstrom), charge = -1, multiplicity = 4:

       Center              X                  Y                   Z               Mass
    ------------   -----------------  -----------------  -----------------  -----------------
         S            0.000000000000     0.000000000000     0.000000000000    31.972071174400

  Charge       = -1
  Multiplicity = 4
  Basis Set: CC-PVTZ
    Blend: CC-PVTZ
  Basis Set: (CC-PVTZ AUX)
    Blend: CC-PVTZ-JKFIT

    Orbital Energies [Eh]
    ---------------------

    Alpha Occupied:

       1Ag   -88.637688     2Ag    -7.691133     1B2u   -5.661089
       1B3u   -5.661089     1B1u   -5.641292     3Ag    -0.448065
       2B3u   -0.066980     2B2u   -0.066980     2B1u   -0.021451
       3B1u    0.452436

    Alpha Virtual:

       3B2u    0.484820     3B3u    0.484820     4Ag     0.538847
       5Ag     0.562154     1B1g    0.562154     1B2g    0.601909
       1B3g    0.601909     6Ag     0.618864     7Ag     1.723087
       2B1g    1.723087     2B2g    1.752747     2B3g    1.752747
       8Ag     1.764675     4B2u    1.842518     4B3u    1.842518
       4B1u    1.877780     1Au     1.877780     5B3u    1.899106
       5B2u    1.899106     5B1u    1.906651     6B2u    2.132591
       6B3u    2.132591     6B1u    2.173170     9Ag     3.513853

    Beta Occupied:

       1Ag   -88.624487     2Ag    -7.677702     1B2u   -5.639274
       1B3u   -5.639274     1B1u   -5.624517     3Ag    -0.345007
       2B1u    0.030300

    Beta Virtual:

       2B3u    0.084876     2B2u    0.084876     3B2u    0.535093
       3B3u    0.535093     3B1u    0.547332     4Ag     0.589321
       1B1g    0.646590     5Ag     0.646590     1B2g    0.653024
       1B3g    0.653024     6Ag     0.663023     2B1g    1.795392
       7Ag     1.795392     2B2g    1.810114     2B3g    1.810114
       8Ag     1.820186     4B2u    1.933933     4B3u    1.933933
       1Au     1.940623     4B1u    1.940623     5B3u    1.951637
       5B2u    1.951637     5B1u    1.954019     6B2u    2.185445
       6B3u    2.185445     6B1u    2.205476     9Ag     3.552005

    Final Occupation by Irrep:
             Ag   B1g   B2g   B3g    Au   B1u   B2u   B3u
    DOCC [     3,    0,    0,    0,    0,    2,    1,    1 ]
    SOCC [     0,    0,    0,    0,    0,    1,    1,    1 ]
    NA   [     3,    0,    0,    0,    0,    3,    2,    2 ]
    NB   [     3,    0,    0,    0,    0,    2,    1,    1 ]

  @DF-UKS Final Energy:  -397.77015817482533

   => Energetics <=

    Nuclear Repulsion Energy =              0.0000000000000000
    One-Electron Energy =                -553.7668728943630185
    Two-Electron Energy =                 176.8185193552893963
    DFT Exchange-Correlation Energy =     -20.8218046357516826
    Empirical Dispersion Energy =           0.0000000000000000
    VV10 Nonlocal Energy =                  0.0000000000000000
    Total Energy =                       -397.7701581748253261

  UHF NO Occupations:
  HONO-2 :    2B2u 1.0000000
  HONO-1 :    2B3u 1.0000000
  HONO-0 :    3B1u 1.0000000
  LUNO+0 :    4 Ag 0.0008563
  LUNO+1 :    4B1u 0.0001164
  LUNO+2 :    3B3u 0.0000002
  LUNO+3 :    3B2u 0.0000002

Computation Completed

Properties will be evaluated at   0.000000,   0.000000,   0.000000 [a0]

Properties computed using the SCF density matrix

 Multipole Moments:

 ------------------------------------------------------------------------------------
     Multipole            Electronic (a.u.)      Nuclear  (a.u.)        Total (a.u.)
 ------------------------------------------------------------------------------------

 L = 1.  Multiply by 2.5417464519 to convert [e a0] to [Debye]
 Dipole X            :          0.0000000            0.0000000            0.0000000
 Dipole Y            :          0.0000000            0.0000000            0.0000000
 Dipole Z            :          0.0000000            0.0000000            0.0000000
 Magnitude           :                                                    0.0000000

 ------------------------------------------------------------------------------------

*** tstop() called on Joses-MacBook-Pro-2.local at Sat Jan 25 21:30:24 2025
Module time:
	user time   =       4.00 seconds =       0.07 minutes
	system time =       1.40 seconds =       0.02 minutes
	total time  =          1 seconds =       0.02 minutes
Total time:
	user time   =       4.00 seconds =       0.07 minutes
	system time =       1.40 seconds =       0.02 minutes
	total time  =          1 seconds =       0.02 minutes

    Psi4 stopped on: Saturday, 25 January 2025 09:30PM
    Psi4 wall time for execution: 0:00:00.59

*** Psi4 exiting successfully. Buy a developer a beer!
