                               Psi4 1.9.1 release

  ==> Input File <==

--------------------------------------------------------------------------
molecule {
-1 4
Be           0.000000           0.000000           0.000000
}

set {
basis              cc-pvtz
reference          uks
maxiter            500
DAMPING_PERCENTAGE 1
E_CONVERGENCE      1.0E-8
D_CONVERGENCE      1.0E-8
DIIS_MAX_VECS      400
MBIS_MAXITER       8000
guess              SAP
}

energy('b3lyp')
--------------------------------------------------------------------------

    Molecular point group: d2h
    Geometry (in Angstrom), charge = -1, multiplicity = 4:

       Center              X                  Y                   Z               Mass
    ------------   -----------------  -----------------  -----------------  -----------------
         BE           0.000000000000     0.000000000000     0.000000000000     9.012183065000

  Charge       = -1
  Multiplicity = 4
  Basis Set: CC-PVTZ
    Blend: CC-PVTZ
  Basis Set: (CC-PVTZ AUX)
    Blend: DEF2-UNIVERSAL-JKFIT

    Orbital Energies [Eh]
    ---------------------

    Alpha Occupied:

       1Ag    -3.867839     2Ag    -0.056254     1B3u    0.073758
       1B1u    0.073758

    Alpha Virtual:

       1B2u    0.128494     3Ag     0.258183     2B1u    0.290093
       2B3u    0.290093     2B2u    0.306355     1B2g    0.501912
       4Ag     0.501912     1B3g    0.506378     1B1g    0.506378
       5Ag     0.515506     3B3u    0.967441     3B1u    0.967441
       3B2u    0.980732     2B2g    1.351331     6Ag     1.351331
       2B3g    1.357325     2B1g    1.357325     7Ag     1.367301
       4B2u    1.378897     1Au     1.378897     4B3u    1.379131
       4B1u    1.379131     5B3u    1.383305     5B1u    1.383305
       5B2u    1.388408     8Ag     1.416018

    Beta Occupied:

       1Ag    -3.848123

    Beta Virtual:

       2Ag     0.092070     1B2u    0.170764     1B1u    0.198299
       1B3u    0.198299     3Ag     0.319018     2B2u    0.347707
       2B1u    0.372419     2B3u    0.372419     4Ag     0.563789
       1B3g    0.572821     1B1g    0.572821     1B2g    0.605269
       5Ag     0.605656     3B2u    0.988511     3B1u    1.021149
       3B3u    1.021149     6Ag     1.413948     2B3g    1.428499
       2B1g    1.428499     2B2g    1.453012     7Ag     1.453081
       4B2u    1.457633     4B1u    1.457808     4B3u    1.457808
       8Ag     1.458402     1Au     1.473272     5B2u    1.474082
       5B1u    1.493938     5B3u    1.493938

    Final Occupation by Irrep:
             Ag   B1g   B2g   B3g    Au   B1u   B2u   B3u
    DOCC [     1,    0,    0,    0,    0,    0,    0,    0 ]
    SOCC [     1,    0,    0,    0,    0,    1,    0,    1 ]
    NA   [     2,    0,    0,    0,    0,    1,    0,    1 ]
    NB   [     1,    0,    0,    0,    0,    0,    0,    0 ]

  @DF-UKS Final Energy:   -14.57926172683752

   => Energetics <=

    Nuclear Repulsion Energy =              0.0000000000000000
    One-Electron Energy =                 -19.8240442339644929
    Two-Electron Energy =                   7.6127909710852464
    DFT Exchange-Correlation Energy =      -2.3680084639582684
    Empirical Dispersion Energy =           0.0000000000000000
    VV10 Nonlocal Energy =                  0.0000000000000000
    Total Energy =                        -14.5792617268375153

  UHF NO Occupations:
  HONO-2 :    2 Ag 1.0000000
  HONO-1 :    1B3u 1.0000000
  HONO-0 :    1B1u 1.0000000
  LUNO+0 :    3 Ag 0.0000010
  LUNO+1 :    2B3u 0.0000000
  LUNO+2 :    2B1u 0.0000000
  LUNO+3 :    4 Ag 0.0000000

Computation Completed

Properties will be evaluated at   0.000000,   0.000000,   0.000000 [a0]

Properties computed using the SCF density matrix

 Multipole Moments:

 ------------------------------------------------------------------------------------
     Multipole            Electronic (a.u.)      Nuclear  (a.u.)        Total (a.u.)
 ------------------------------------------------------------------------------------

 L = 1.  Multiply by 2.5417464519 to convert [e a0] to [Debye]
 Dipole X            :          0.0000000            0.0000000            0.0000000
 Dipole Y            :          0.0000000            0.0000000            0.0000000
 Dipole Z            :          0.0000000            0.0000000            0.0000000
 Magnitude           :                                                    0.0000000

 ------------------------------------------------------------------------------------

*** tstop() called on Joses-MacBook-Pro-2.local at Sat Jan 25 21:29:36 2025
Module time:
	user time   =       1.40 seconds =       0.02 minutes
	system time =       1.13 seconds =       0.02 minutes
	total time  =          0 seconds =       0.00 minutes
Total time:
	user time   =       1.40 seconds =       0.02 minutes
	system time =       1.13 seconds =       0.02 minutes
	total time  =          0 seconds =       0.00 minutes

    Psi4 stopped on: Saturday, 25 January 2025 09:29PM
    Psi4 wall time for execution: 0:00:00.37

*** Psi4 exiting successfully. Buy a developer a beer!
