                               Psi4 1.9.1 release

  ==> Input File <==

--------------------------------------------------------------------------
molecule {
-1 4
Ne           0.000000           0.000000           0.000000
}

set {
basis              cc-pvtz
reference          uks
maxiter            500
DAMPING_PERCENTAGE 1
E_CONVERGENCE      1.0E-8
D_CONVERGENCE      1.0E-8
DIIS_MAX_VECS      400
MBIS_MAXITER       8000
guess              SAP
}

energy('b3lyp')
--------------------------------------------------------------------------

    Molecular point group: d2h
    Geometry (in Angstrom), charge = -1, multiplicity = 4:

       Center              X                  Y                   Z               Mass
    ------------   -----------------  -----------------  -----------------  -----------------
         NE           0.000000000000     0.000000000000     0.000000000000    19.992440176200

  Charge       = -1
  Multiplicity = 4
  Basis Set: CC-PVTZ
    Blend: CC-PVTZ
  Basis Set: (CC-PVTZ AUX)
    Blend: CC-PVTZ-JKFIT

    Orbital Energies [Eh]
    ---------------------

    Alpha Occupied:

       1Ag   -30.660635     2Ag    -1.175849     1B2u   -0.364965
       1B1u   -0.266101     1B3u   -0.258345     2B2u    1.014420
       2B1u    1.058532

    Alpha Virtual:

       2B3u    1.158611     3Ag     1.407653     4Ag     2.774609
       1B1g    2.778776     1B3g    2.801723     1B2g    2.833577
       5Ag     2.837550     3B2u    5.746803     3B1u    5.831395
       3B3u    5.834230     4B2u    9.296111     4B3u    9.299626
       4B1u    9.318839     1Au     9.338675     5B2u    9.342674
       5B3u    9.389754     5B1u    9.389879     6Ag    10.717359
       2B3g   10.745516     2B1g   10.747108     2B2g   10.829451
       7Ag    10.831209     8Ag    11.238869

    Beta Occupied:

       1Ag   -30.593912     2Ag    -1.033143     1B3u   -0.202877
       1B1u   -0.157168

    Beta Virtual:

       1B2u    0.038888     2B3u    1.213945     2B1u    1.257586
       2B2u    1.285143     3Ag     1.538695     4Ag     2.845547
       1B2g    2.853247     1B1g    2.855550     1B3g    2.885771
       5Ag     2.892842     3B3u    5.880490     3B1u    5.923225
       3B2u    5.964779     4B3u    9.399928     4B2u    9.403507
       4B1u    9.404912     1Au     9.413437     5B3u    9.418769
       5B1u    9.441761     5B2u    9.446669     6Ag    10.894605
       2B2g   10.900325     2B1g   10.919998     2B3g   10.954355
       7Ag    10.978935     8Ag    11.353637

    Final Occupation by Irrep:
             Ag   B1g   B2g   B3g    Au   B1u   B2u   B3u
    DOCC [     2,    0,    0,    0,    0,    1,    0,    1 ]
    SOCC [     0,    0,    0,    0,    0,    1,    2,    0 ]
    NA   [     2,    0,    0,    0,    0,    2,    2,    1 ]
    NB   [     2,    0,    0,    0,    0,    1,    0,    1 ]

  @DF-UKS Final Energy:  -126.81496575415937

   => Energetics <=

    Nuclear Repulsion Energy =              0.0000000000000000
    One-Electron Energy =                -183.5867116882020014
    Two-Electron Energy =                  67.1132861803575480
    DFT Exchange-Correlation Energy =     -10.3415402463149135
    Empirical Dispersion Energy =           0.0000000000000000
    VV10 Nonlocal Energy =                  0.0000000000000000
    Total Energy =                       -126.8149657541593740

  UHF NO Occupations:
  HONO-2 :    1B2u 1.0000000
  HONO-1 :    2B1u 1.0000000
  HONO-0 :    2B2u 1.0000000
  LUNO+0 :    3 Ag 0.0004615
  LUNO+1 :    3B1u 0.0000803
  LUNO+2 :    2B3u 0.0000768
  LUNO+3 :    4 Ag 0.0000009

Computation Completed

Properties will be evaluated at   0.000000,   0.000000,   0.000000 [a0]

Properties computed using the SCF density matrix

 Multipole Moments:

 ------------------------------------------------------------------------------------
     Multipole            Electronic (a.u.)      Nuclear  (a.u.)        Total (a.u.)
 ------------------------------------------------------------------------------------

 L = 1.  Multiply by 2.5417464519 to convert [e a0] to [Debye]
 Dipole X            :          0.0000000            0.0000000            0.0000000
 Dipole Y            :          0.0000000            0.0000000            0.0000000
 Dipole Z            :          0.0000000            0.0000000            0.0000000
 Magnitude           :                                                    0.0000000

 ------------------------------------------------------------------------------------

*** tstop() called on Joses-MacBook-Pro-2.local at Sat Jan 25 21:29:59 2025
Module time:
	user time   =       2.07 seconds =       0.03 minutes
	system time =       2.51 seconds =       0.04 minutes
	total time  =          1 seconds =       0.02 minutes
Total time:
	user time   =       2.07 seconds =       0.03 minutes
	system time =       2.51 seconds =       0.04 minutes
	total time  =          1 seconds =       0.02 minutes

    Psi4 stopped on: Saturday, 25 January 2025 09:29PM
    Psi4 wall time for execution: 0:00:00.48

*** Psi4 exiting successfully. Buy a developer a beer!
