                               Psi4 1.9.1 release

  ==> Input File <==

--------------------------------------------------------------------------
molecule {
-1 4
Mg           0.000000           0.000000           0.000000
}

set {
basis              cc-pvtz
reference          uks
maxiter            500
DAMPING_PERCENTAGE 1
E_CONVERGENCE      1.0E-8
D_CONVERGENCE      1.0E-8
DIIS_MAX_VECS      400
MBIS_MAXITER       8000
guess              SAP
}

energy('b3lyp')
--------------------------------------------------------------------------

    Molecular point group: d2h
    Geometry (in Angstrom), charge = -1, multiplicity = 4:

       Center              X                  Y                   Z               Mass
    ------------   -----------------  -----------------  -----------------  -----------------
         MG           0.000000000000     0.000000000000     0.000000000000    23.985041697000

  Charge       = -1
  Multiplicity = 4
  Basis Set: CC-PVTZ
    Blend: CC-PVTZ
  Basis Set: (CC-PVTZ AUX)
    Blend: DEF2-UNIVERSAL-JKFIT

    Orbital Energies [Eh]
    ---------------------

    Alpha Occupied:

       1Ag   -46.712986     2Ag    -2.980795     1B1u   -1.726195
       1B2u   -1.724012     1B3u   -1.724012     3Ag    -0.076665
       2B3u    0.050148     2B2u    0.050148

    Alpha Virtual:

       2B1u    0.090398     4Ag     0.178496     3B3u    0.208468
       3B2u    0.208468     3B1u    0.217773     1B1g    0.334180
       5Ag     0.334180     1B3g    0.337721     1B2g    0.337721
       6Ag     0.344536     4B2u    0.675211     4B3u    0.675211
       4B1u    0.676762     5B1u    0.904816     1Au     0.904816
       5B3u    0.905259     5B2u    0.905259     6B3u    0.907245
       6B2u    0.907245     6B1u    0.909616     2B3g    0.936540
       2B2g    0.936540     2B1g    0.938005     7Ag     0.938005
       8Ag     0.938578     9Ag     0.972329

    Beta Occupied:

       1Ag   -46.708392     2Ag    -2.973259     1B1u   -1.721725
       1B2u   -1.716583     1B3u   -1.716583

    Beta Virtual:

       3Ag     0.035334     2B1u    0.128895     2B2u    0.141762
       2B3u    0.141762     4Ag     0.220912     3B1u    0.246423
       3B2u    0.260907     3B3u    0.260907     5Ag     0.391598
       1B3g    0.396416     1B2g    0.396416     6Ag     0.412333
       1B1g    0.412333     4B1u    0.695574     4B2u    0.712185
       4B3u    0.712185     5B1u    0.950648     5B3u    0.953494
       5B2u    0.953494     7Ag     0.956550     6B1u    0.961103
       1Au     0.961103     2B3g    0.961825     2B2g    0.961825
       6B3u    0.973752     6B2u    0.973752     8Ag     0.974984
       2B1g    0.974984     9Ag     1.000484

    Final Occupation by Irrep:
             Ag   B1g   B2g   B3g    Au   B1u   B2u   B3u
    DOCC [     2,    0,    0,    0,    0,    1,    1,    1 ]
    SOCC [     1,    0,    0,    0,    0,    0,    1,    1 ]
    NA   [     3,    0,    0,    0,    0,    1,    2,    2 ]
    NB   [     2,    0,    0,    0,    0,    1,    1,    1 ]

  @DF-UKS Final Energy:  -199.99981242666126

   => Energetics <=

    Nuclear Repulsion Energy =              0.0000000000000000
    One-Electron Energy =                -280.7959464412357420
    Two-Electron Energy =                  94.1348834158061578
    DFT Exchange-Correlation Energy =     -13.3387494012316559
    Empirical Dispersion Energy =           0.0000000000000000
    VV10 Nonlocal Energy =                  0.0000000000000000
    Total Energy =                       -199.9998124266612649

  UHF NO Occupations:
  HONO-2 :    2B3u 1.0000000
  HONO-1 :    2B2u 1.0000000
  HONO-0 :    3 Ag 1.0000000
  LUNO+0 :    2B1u 0.0000007
  LUNO+1 :    3B2u 0.0000005
  LUNO+2 :    3B3u 0.0000005
  LUNO+3 :    4 Ag 0.0000004

Computation Completed

Properties will be evaluated at   0.000000,   0.000000,   0.000000 [a0]

Properties computed using the SCF density matrix

 Multipole Moments:

 ------------------------------------------------------------------------------------
     Multipole            Electronic (a.u.)      Nuclear  (a.u.)        Total (a.u.)
 ------------------------------------------------------------------------------------

 L = 1.  Multiply by 2.5417464519 to convert [e a0] to [Debye]
 Dipole X            :          0.0000000            0.0000000            0.0000000
 Dipole Y            :          0.0000000            0.0000000            0.0000000
 Dipole Z            :          0.0000000            0.0000000            0.0000000
 Magnitude           :                                                    0.0000000

 ------------------------------------------------------------------------------------

*** tstop() called on Joses-MacBook-Pro-2.local at Sat Jan 25 21:30:08 2025
Module time:
	user time   =       4.16 seconds =       0.07 minutes
	system time =       1.44 seconds =       0.02 minutes
	total time  =          1 seconds =       0.02 minutes
Total time:
	user time   =       4.16 seconds =       0.07 minutes
	system time =       1.44 seconds =       0.02 minutes
	total time  =          1 seconds =       0.02 minutes

    Psi4 stopped on: Saturday, 25 January 2025 09:30PM
    Psi4 wall time for execution: 0:00:00.68

*** Psi4 exiting successfully. Buy a developer a beer!
