                               Psi4 1.9.1 release

  ==> Input File <==

--------------------------------------------------------------------------
molecule {
-1 5
P           0.000000           0.000000           0.000000
}

set {
basis              cc-pvtz
reference          uks
maxiter            500
DAMPING_PERCENTAGE 1
E_CONVERGENCE      1.0E-8
D_CONVERGENCE      1.0E-8
DIIS_MAX_VECS      400
MBIS_MAXITER       8000
guess              SAP
}

energy('b3lyp')
--------------------------------------------------------------------------

    Molecular point group: d2h
    Geometry (in Angstrom), charge = -1, multiplicity = 5:

       Center              X                  Y                   Z               Mass
    ------------   -----------------  -----------------  -----------------  -----------------
         P            0.000000000000     0.000000000000     0.000000000000    30.973761998420

  Charge       = -1
  Multiplicity = 5
  Basis Set: CC-PVTZ
    Blend: CC-PVTZ
  Basis Set: (CC-PVTZ AUX)
    Blend: CC-PVTZ-JKFIT

    Orbital Energies [Eh]
    ---------------------

    Alpha Occupied:

       1Ag   -76.825848     2Ag    -6.290812     1B3u   -4.452154
       1B2u   -4.452154     1B1u   -4.452154     3Ag    -0.328442
       2B1u   -0.000397     2B3u   -0.000397     2B2u   -0.000397
       4Ag     0.403282

    Alpha Virtual:

       3B1u    0.473897     3B2u    0.473897     3B3u    0.473897
       5Ag     0.510302     6Ag     0.510302     1B1g    0.510302
       1B2g    0.510302     1B3g    0.510302     7Ag     1.476277
       8Ag     1.476277     2B2g    1.476277     2B1g    1.476277
       2B3g    1.476277     4B3u    1.573817     4B1u    1.573817
       5B1u    1.573817     1Au     1.573817     4B2u    1.573817
       5B2u    1.573817     5B3u    1.573817     6B2u    2.119517
       6B3u    2.119517     6B1u    2.119517     9Ag     2.846330

    Beta Occupied:

       1Ag   -76.809969     2Ag    -6.273023     1B3u   -4.430654
       1B2u   -4.430654     1B1u   -4.430654     3Ag    -0.207095

    Beta Virtual:

       2B1u    0.142604     2B3u    0.142604     2B2u    0.142604
       4Ag     0.518652     3B1u    0.541814     3B2u    0.541814
       3B3u    0.541814     5Ag     0.591573     6Ag     0.591573
       1B1g    0.591573     1B2g    0.591573     1B3g    0.591573
       7Ag     1.554716     8Ag     1.554716     2B2g    1.554716
       2B1g    1.554716     2B3g    1.554716     4B1u    1.648599
       4B3u    1.648599     5B1u    1.648599     1Au     1.648599
       4B2u    1.648599     5B2u    1.648599     5B3u    1.648599
       6B3u    2.172432     6B2u    2.172432     6B1u    2.172432
       9Ag     2.892410

    Final Occupation by Irrep:
             Ag   B1g   B2g   B3g    Au   B1u   B2u   B3u
    DOCC [     3,    0,    0,    0,    0,    1,    1,    1 ]
    SOCC [     1,    0,    0,    0,    0,    1,    1,    1 ]
    NA   [     4,    0,    0,    0,    0,    2,    2,    2 ]
    NB   [     3,    0,    0,    0,    0,    1,    1,    1 ]

  @DF-UKS Final Energy:  -340.96767183407019

   => Energetics <=

    Nuclear Repulsion Energy =              0.0000000000000000
    One-Electron Energy =                -475.5398480207914531
    Two-Electron Energy =                 153.4191852919412327
    DFT Exchange-Correlation Energy =     -18.8470091052199678
    Empirical Dispersion Energy =           0.0000000000000000
    VV10 Nonlocal Energy =                  0.0000000000000000
    Total Energy =                       -340.9676718340701882

  UHF NO Occupations:
  HONO-2 :    2B1u 1.0000000
  HONO-1 :    2B3u 1.0000000
  HONO-0 :    2B2u 1.0000000
  LUNO+0 :    5 Ag 0.0000033
  LUNO+1 :    3B2u 0.0000003
  LUNO+2 :    3B3u 0.0000003
  LUNO+3 :    3B1u 0.0000003

Computation Completed

Properties will be evaluated at   0.000000,   0.000000,   0.000000 [a0]

Properties computed using the SCF density matrix

 Multipole Moments:

 ------------------------------------------------------------------------------------
     Multipole            Electronic (a.u.)      Nuclear  (a.u.)        Total (a.u.)
 ------------------------------------------------------------------------------------

 L = 1.  Multiply by 2.5417464519 to convert [e a0] to [Debye]
 Dipole X            :          0.0000000            0.0000000            0.0000000
 Dipole Y            :          0.0000000            0.0000000            0.0000000
 Dipole Z            :          0.0000000            0.0000000            0.0000000
 Magnitude           :                                                    0.0000000

 ------------------------------------------------------------------------------------

*** tstop() called on Joses-MacBook-Pro-2.local at Sat Jan 25 21:30:21 2025
Module time:
	user time   =       3.46 seconds =       0.06 minutes
	system time =       1.31 seconds =       0.02 minutes
	total time  =          1 seconds =       0.02 minutes
Total time:
	user time   =       3.46 seconds =       0.06 minutes
	system time =       1.31 seconds =       0.02 minutes
	total time  =          1 seconds =       0.02 minutes

    Psi4 stopped on: Saturday, 25 January 2025 09:30PM
    Psi4 wall time for execution: 0:00:00.52

*** Psi4 exiting successfully. Buy a developer a beer!
