                               Psi4 1.9.1 release

  ==> Input File <==

--------------------------------------------------------------------------
molecule {
-1 5
F           0.000000           0.000000           0.000000
}

set {
basis              cc-pvtz
reference          uks
maxiter            500
DAMPING_PERCENTAGE 1
E_CONVERGENCE      1.0E-8
D_CONVERGENCE      1.0E-8
DIIS_MAX_VECS      400
MBIS_MAXITER       8000
guess              SAP
}

energy('b3lyp')
--------------------------------------------------------------------------

    Molecular point group: d2h
    Geometry (in Angstrom), charge = -1, multiplicity = 5:

       Center              X                  Y                   Z               Mass
    ------------   -----------------  -----------------  -----------------  -----------------
         F            0.000000000000     0.000000000000     0.000000000000    18.998403162730

  Charge       = -1
  Multiplicity = 5
  Basis Set: CC-PVTZ
    Blend: CC-PVTZ
  Basis Set: (CC-PVTZ AUX)
    Blend: CC-PVTZ-JKFIT

    Orbital Energies [Eh]
    ---------------------

    Alpha Occupied:

       1Ag   -24.506849     2Ag    -0.979842     1B2u   -0.289524
       1B3u   -0.289524     1B1u   -0.196579     2B2u    0.829334
       2B3u    0.829334

    Alpha Virtual:

       2B1u    0.958474     3Ag     1.129532     1B1g    2.173374
       4Ag     2.173374     1B3g    2.200490     1B2g    2.200490
       5Ag     2.212091     3B3u    4.640206     3B2u    4.640206
       3B1u    4.716557     4B2u    7.019812     4B3u    7.019812
       1Au     7.053238     4B1u    7.053238     5B2u    7.074275
       5B3u    7.074275     5B1u    7.082045     2B1g    8.302694
       6Ag     8.302694     2B2g    8.375905     2B3g    8.375905
       7Ag     8.401224     8Ag     9.031453

    Beta Occupied:

       1Ag   -24.418935     2Ag    -0.766057     1B1u   -0.121052

    Beta Virtual:

       1B3u    0.095171     1B2u    0.095171     2B1u    1.016132
       2B2u    1.084674     2B3u    1.084674     3Ag     1.280458
       4Ag     2.268336     1B3g    2.272448     1B2g    2.272448
       5Ag     2.309203     1B1g    2.309203     3B1u    4.778712
       3B3u    4.854858     3B2u    4.854858     4B1u    7.155901
       4B2u    7.162079     4B3u    7.162079     1Au     7.167653
       5B1u    7.167653     5B2u    7.200591     5B3u    7.200591
       2B2g    8.539562     2B3g    8.539562     6Ag     8.539641
       7Ag     8.613130     2B1g    8.613130     8Ag     9.186015

    Final Occupation by Irrep:
             Ag   B1g   B2g   B3g    Au   B1u   B2u   B3u
    DOCC [     2,    0,    0,    0,    0,    1,    0,    0 ]
    SOCC [     0,    0,    0,    0,    0,    0,    2,    2 ]
    NA   [     2,    0,    0,    0,    0,    1,    2,    2 ]
    NB   [     2,    0,    0,    0,    0,    1,    0,    0 ]

  @DF-UKS Final Energy:   -98.10028089056149

   => Energetics <=

    Nuclear Repulsion Energy =              0.0000000000000000
    One-Electron Energy =                -140.1174381710868033
    Two-Electron Energy =                  50.6286244169112578
    DFT Exchange-Correlation Energy =      -8.6114671363859419
    Empirical Dispersion Energy =           0.0000000000000000
    VV10 Nonlocal Energy =                  0.0000000000000000
    Total Energy =                        -98.1002808905614785

  UHF NO Occupations:
  HONO-2 :    1B2u 1.0000000
  HONO-1 :    2B3u 1.0000000
  HONO-0 :    2B2u 1.0000000
  LUNO+0 :    3 Ag 0.0010764
  LUNO+1 :    2B1u 0.0003318
  LUNO+2 :    4 Ag 0.0000019
  LUNO+3 :    5 Ag 0.0000000

Computation Completed

Properties will be evaluated at   0.000000,   0.000000,   0.000000 [a0]

Properties computed using the SCF density matrix

 Multipole Moments:

 ------------------------------------------------------------------------------------
     Multipole            Electronic (a.u.)      Nuclear  (a.u.)        Total (a.u.)
 ------------------------------------------------------------------------------------

 L = 1.  Multiply by 2.5417464519 to convert [e a0] to [Debye]
 Dipole X            :          0.0000000            0.0000000            0.0000000
 Dipole Y            :          0.0000000            0.0000000            0.0000000
 Dipole Z            :          0.0000000            0.0000000            0.0000000
 Magnitude           :                                                    0.0000000

 ------------------------------------------------------------------------------------

*** tstop() called on Joses-MacBook-Pro-2.local at Sat Jan 25 21:29:56 2025
Module time:
	user time   =       2.27 seconds =       0.04 minutes
	system time =       1.98 seconds =       0.03 minutes
	total time  =          1 seconds =       0.02 minutes
Total time:
	user time   =       2.27 seconds =       0.04 minutes
	system time =       1.98 seconds =       0.03 minutes
	total time  =          1 seconds =       0.02 minutes

    Psi4 stopped on: Saturday, 25 January 2025 09:29PM
    Psi4 wall time for execution: 0:00:00.44

*** Psi4 exiting successfully. Buy a developer a beer!
