                               Psi4 1.9.1 release

  ==> Input File <==

--------------------------------------------------------------------------
molecule {
-1 6
Ne           0.000000           0.000000           0.000000
}

set {
basis              cc-pvtz
reference          uks
maxiter            500
DAMPING_PERCENTAGE 1
E_CONVERGENCE      1.0E-8
D_CONVERGENCE      1.0E-8
DIIS_MAX_VECS      400
MBIS_MAXITER       8000
guess              SAP
}

energy('b3lyp')
--------------------------------------------------------------------------

    Molecular point group: d2h
    Geometry (in Angstrom), charge = -1, multiplicity = 6:

       Center              X                  Y                   Z               Mass
    ------------   -----------------  -----------------  -----------------  -----------------
         NE           0.000000000000     0.000000000000     0.000000000000    19.992440176200

  Charge       = -1
  Multiplicity = 6
  Basis Set: CC-PVTZ
    Blend: CC-PVTZ
  Basis Set: (CC-PVTZ AUX)
    Blend: CC-PVTZ-JKFIT

    Orbital Energies [Eh]
    ---------------------

    Alpha Occupied:

       1Ag   -31.049194     2Ag    -1.473178     1B3u   -0.630177
       1B2u   -0.630177     1B1u   -0.523802     2B2u    0.900980
       2B3u    0.900980     2B1u    0.941695

    Alpha Virtual:

       3Ag     1.231263     4Ag     2.576329     1B1g    2.576329
       1B2g    2.630935     1B3g    2.630935     5Ag     2.649931
       3B2u    5.488138     3B3u    5.488138     3B1u    5.575401
       4B3u    9.010253     4B2u    9.010253     1Au     9.069142
       4B1u    9.069142     5B2u    9.104835     5B3u    9.104835
       5B1u    9.117359     6Ag    10.375878     2B1g   10.375878
       2B2g   10.462892     2B3g   10.462892     7Ag    10.489761
       8Ag    10.944184

    Beta Occupied:

       1Ag   -30.931217     2Ag    -1.211943     1B1u   -0.381156

    Beta Virtual:

       1B3u   -0.166168     1B2u   -0.166168     2B1u    1.162353
       2B2u    1.189626     2B3u    1.189626     3Ag     1.440202
       1B2g    2.720149     1B3g    2.720149     4Ag     2.726930
       5Ag     2.730144     1B1g    2.730144     3B1u    5.691361
       3B2u    5.737416     3B3u    5.737416     1Au     9.205990
       4B1u    9.205990     5B1u    9.213111     4B2u    9.215303
       4B3u    9.215303     5B3u    9.221250     5B2u    9.221250
       2B2g   10.680467     2B3g   10.680467     6Ag    10.694993
       7Ag    10.731445     2B1g   10.731445     8Ag    11.140623

    Final Occupation by Irrep:
             Ag   B1g   B2g   B3g    Au   B1u   B2u   B3u
    DOCC [     2,    0,    0,    0,    0,    1,    0,    0 ]
    SOCC [     0,    0,    0,    0,    0,    1,    2,    2 ]
    NA   [     2,    0,    0,    0,    0,    2,    2,    2 ]
    NB   [     2,    0,    0,    0,    0,    1,    0,    0 ]

  @DF-UKS Final Energy:  -125.60505054361803

   => Energetics <=

    Nuclear Repulsion Energy =              0.0000000000000000
    One-Electron Energy =                -179.8114426166894475
    Two-Electron Energy =                  64.4275584334908018
    DFT Exchange-Correlation Energy =     -10.2211663604193905
    Empirical Dispersion Energy =           0.0000000000000000
    VV10 Nonlocal Energy =                  0.0000000000000000
    Total Energy =                       -125.6050505436180345

  UHF NO Occupations:
  HONO-2 :    2B1u 1.0000000
  HONO-1 :    2B3u 1.0000000
  HONO-0 :    2B2u 1.0000000
  LUNO+0 :    3 Ag 0.0007423
  LUNO+1 :    3B1u 0.0001082
  LUNO+2 :    4 Ag 0.0000017
  LUNO+3 :    3B2u 0.0000000

Computation Completed

Properties will be evaluated at   0.000000,   0.000000,   0.000000 [a0]

Properties computed using the SCF density matrix

 Multipole Moments:

 ------------------------------------------------------------------------------------
     Multipole            Electronic (a.u.)      Nuclear  (a.u.)        Total (a.u.)
 ------------------------------------------------------------------------------------

 L = 1.  Multiply by 2.5417464519 to convert [e a0] to [Debye]
 Dipole X            :          0.0000000            0.0000000            0.0000000
 Dipole Y            :          0.0000000            0.0000000            0.0000000
 Dipole Z            :          0.0000000            0.0000000            0.0000000
 Magnitude           :                                                    0.0000000

 ------------------------------------------------------------------------------------

*** tstop() called on Joses-MacBook-Pro-2.local at Sat Jan 25 21:30:00 2025
Module time:
	user time   =       1.64 seconds =       0.03 minutes
	system time =       2.57 seconds =       0.04 minutes
	total time  =          0 seconds =       0.00 minutes
Total time:
	user time   =       1.64 seconds =       0.03 minutes
	system time =       2.57 seconds =       0.04 minutes
	total time  =          0 seconds =       0.00 minutes

    Psi4 stopped on: Saturday, 25 January 2025 09:30PM
    Psi4 wall time for execution: 0:00:00.44

*** Psi4 exiting successfully. Buy a developer a beer!
