                               Psi4 1.9.1 release

  ==> Input File <==

--------------------------------------------------------------------------
molecule {
-1 6
O           0.000000           0.000000           0.000000
}

set {
basis              cc-pvtz
reference          uks
maxiter            500
DAMPING_PERCENTAGE 1
E_CONVERGENCE      1.0E-8
D_CONVERGENCE      1.0E-8
DIIS_MAX_VECS      400
MBIS_MAXITER       8000
guess              SAP
}

energy('b3lyp')
--------------------------------------------------------------------------

    Molecular point group: d2h
    Geometry (in Angstrom), charge = -1, multiplicity = 6:

       Center              X                  Y                   Z               Mass
    ------------   -----------------  -----------------  -----------------  -----------------
         O            0.000000000000     0.000000000000     0.000000000000    15.994914619570

  Charge       = -1
  Multiplicity = 6
  Basis Set: CC-PVTZ
    Blend: CC-PVTZ
  Basis Set: (CC-PVTZ AUX)
    Blend: CC-PVTZ-JKFIT

    Orbital Energies [Eh]
    ---------------------

    Alpha Occupied:

       1Ag   -19.000133     2Ag    -0.778067     1B2u   -0.201505
       1B1u   -0.201505     1B3u   -0.196980     2B1u    0.681126
       2B2u    0.681126

    Alpha Virtual:

       2B3u    0.762965     3Ag     0.896221     4Ag     1.659892
       1B2g    1.664035     1B1g    1.664035     1B3g    1.681804
       5Ag     1.681804     3B2u    3.714665     3B1u    3.714665
       3B3u    3.716661     4B3u    5.265112     4B1u    5.267854
       4B2u    5.267854     1Au     5.276498     5B3u    5.276498
       5B2u    5.291855     5B1u    5.291855     2B3g    6.261476
       6Ag     6.261476     2B2g    6.262263     2B1g    6.262263
       7Ag     6.264485     8Ag     7.113491

    Beta Occupied:

       1Ag   -18.903186     2Ag    -0.518714

    Beta Virtual:

       1B3u    0.113060     1B1u    0.147236     1B2u    0.147236
       2B3u    0.881062     2B1u    0.918308     2B2u    0.918308
       3Ag     1.056989     4Ag     1.772134     1B2g    1.778121
       1B1g    1.778121     1B3g    1.799960     5Ag     1.799960
       3B3u    3.880639     3B2u    3.912087     3B1u    3.912087
       4B3u    5.408604     4B2u    5.411897     4B1u    5.411897
       5B3u    5.421955     1Au     5.421955     5B2u    5.439032
       5B1u    5.439032     6Ag     6.495596     2B2g    6.504081
       2B1g    6.504081     2B3g    6.530507     7Ag     6.530507
       8Ag     7.285290

    Final Occupation by Irrep:
             Ag   B1g   B2g   B3g    Au   B1u   B2u   B3u
    DOCC [     2,    0,    0,    0,    0,    0,    0,    0 ]
    SOCC [     0,    0,    0,    0,    0,    2,    2,    1 ]
    NA   [     2,    0,    0,    0,    0,    2,    2,    1 ]
    NB   [     2,    0,    0,    0,    0,    0,    0,    0 ]

  @DF-UKS Final Energy:   -73.79244805394981

   => Energetics <=

    Nuclear Repulsion Energy =              0.0000000000000000
    One-Electron Energy =                -104.0771508933862179
    Two-Electron Energy =                  37.3566754413869901
    DFT Exchange-Correlation Energy =      -7.0719726019505913
    Empirical Dispersion Energy =           0.0000000000000000
    VV10 Nonlocal Energy =                  0.0000000000000000
    Total Energy =                        -73.7924480539498120

  UHF NO Occupations:
  HONO-2 :    2B1u 1.0000000
  HONO-1 :    2B2u 1.0000000
  HONO-0 :    1B3u 1.0000000
  LUNO+0 :    3 Ag 0.0015758
  LUNO+1 :    4 Ag 0.0000028
  LUNO+2 :    3B1u 0.0000000
  LUNO+3 :    3B2u 0.0000000

Computation Completed

Properties will be evaluated at   0.000000,   0.000000,   0.000000 [a0]

Properties computed using the SCF density matrix

 Multipole Moments:

 ------------------------------------------------------------------------------------
     Multipole            Electronic (a.u.)      Nuclear  (a.u.)        Total (a.u.)
 ------------------------------------------------------------------------------------

 L = 1.  Multiply by 2.5417464519 to convert [e a0] to [Debye]
 Dipole X            :          0.0000000            0.0000000            0.0000000
 Dipole Y            :          0.0000000            0.0000000            0.0000000
 Dipole Z            :          0.0000000            0.0000000            0.0000000
 Magnitude           :                                                    0.0000000

 ------------------------------------------------------------------------------------

*** tstop() called on Joses-MacBook-Pro-2.local at Sat Jan 25 21:29:52 2025
Module time:
	user time   =       2.13 seconds =       0.04 minutes
	system time =       2.08 seconds =       0.03 minutes
	total time  =          0 seconds =       0.00 minutes
Total time:
	user time   =       2.13 seconds =       0.04 minutes
	system time =       2.08 seconds =       0.03 minutes
	total time  =          0 seconds =       0.00 minutes

    Psi4 stopped on: Saturday, 25 January 2025 09:29PM
    Psi4 wall time for execution: 0:00:00.44

*** Psi4 exiting successfully. Buy a developer a beer!
