                               Psi4 1.9.1 release

  ==> Input File <==

--------------------------------------------------------------------------
molecule {
-1 6
S           0.000000           0.000000           0.000000
}

set {
basis              cc-pvtz
reference          uks
maxiter            500
DAMPING_PERCENTAGE 1
E_CONVERGENCE      1.0E-8
D_CONVERGENCE      1.0E-8
DIIS_MAX_VECS      400
MBIS_MAXITER       8000
guess              SAP
}

energy('b3lyp')
--------------------------------------------------------------------------

    Molecular point group: d2h
    Geometry (in Angstrom), charge = -1, multiplicity = 6:

       Center              X                  Y                   Z               Mass
    ------------   -----------------  -----------------  -----------------  -----------------
         S            0.000000000000     0.000000000000     0.000000000000    31.972071174400

  Charge       = -1
  Multiplicity = 6
  Basis Set: CC-PVTZ
    Blend: CC-PVTZ
  Basis Set: (CC-PVTZ AUX)
    Blend: CC-PVTZ-JKFIT

    Orbital Energies [Eh]
    ---------------------

    Alpha Occupied:

       1Ag   -88.742323     2Ag    -7.795309     1B3u   -5.762146
       1B2u   -5.759885     1B1u   -5.759885     3Ag    -0.550999
       2B3u   -0.144272     2B1u   -0.139632     2B2u   -0.139632
       3B2u    0.380392     3B1u    0.380392

    Alpha Virtual:

       3B3u    0.434858     4Ag     0.471437     5Ag     0.507313
       1B2g    0.509075     1B1g    0.509075     1B3g    0.520547
       6Ag     0.520547     2B1g    1.646145     2B2g    1.646145
       7Ag     1.646822     2B3g    1.648275     8Ag     1.648275
       4B3u    1.781821     4B1u    1.783660     4B2u    1.783660
       1Au     1.789458     5B3u    1.789458     5B2u    1.799638
       5B1u    1.799638     6B3u    2.052266     6B1u    2.058162
       6B2u    2.058162     9Ag     3.420182

    Beta Occupied:

       1Ag   -88.720562     2Ag    -7.773369     1B3u   -5.734301
       1B2u   -5.724460     1B1u   -5.724460     3Ag    -0.396281

    Beta Virtual:

       2B3u    0.026975     2B1u    0.049924     2B2u    0.049924
       3B3u    0.497890     3B2u    0.521399     3B1u    0.521399
       4Ag     0.553552     5Ag     0.596835     1B2g    0.600452
       1B1g    0.600452     1B3g    0.616528     6Ag     0.616528
       7Ag     1.731970     2B2g    1.736994     2B1g    1.736994
       2B3g    1.754028     8Ag     1.754028     4B3u    1.874757
       4B1u    1.877040     4B2u    1.877040     1Au     1.884088
       5B3u    1.884088     5B2u    1.896121     5B1u    1.896121
       6B3u    2.113465     6B1u    2.131743     6B2u    2.131743
       9Ag     3.482095

    Final Occupation by Irrep:
             Ag   B1g   B2g   B3g    Au   B1u   B2u   B3u
    DOCC [     3,    0,    0,    0,    0,    1,    1,    1 ]
    SOCC [     0,    0,    0,    0,    0,    2,    2,    1 ]
    NA   [     3,    0,    0,    0,    0,    3,    3,    2 ]
    NB   [     3,    0,    0,    0,    0,    1,    1,    1 ]

  @DF-UKS Final Energy:  -397.37902307519539

   => Energetics <=

    Nuclear Repulsion Energy =              0.0000000000000000
    One-Electron Energy =                -551.8739103571804208
    Two-Electron Energy =                 175.2787654050480057
    DFT Exchange-Correlation Energy =     -20.7838781230630083
    Empirical Dispersion Energy =           0.0000000000000000
    VV10 Nonlocal Energy =                  0.0000000000000000
    Total Energy =                       -397.3790230751953914

  UHF NO Occupations:
  HONO-2 :    3B2u 1.0000000
  HONO-1 :    2B3u 1.0000000
  HONO-0 :    3B1u 1.0000000
  LUNO+0 :    4 Ag 0.0006261
  LUNO+1 :    4B1u 0.0000003
  LUNO+2 :    4B2u 0.0000003
  LUNO+3 :    3B3u 0.0000003

Computation Completed

Properties will be evaluated at   0.000000,   0.000000,   0.000000 [a0]

Properties computed using the SCF density matrix

 Multipole Moments:

 ------------------------------------------------------------------------------------
     Multipole            Electronic (a.u.)      Nuclear  (a.u.)        Total (a.u.)
 ------------------------------------------------------------------------------------

 L = 1.  Multiply by 2.5417464519 to convert [e a0] to [Debye]
 Dipole X            :          0.0000000            0.0000000            0.0000000
 Dipole Y            :          0.0000000            0.0000000            0.0000000
 Dipole Z            :          0.0000000            0.0000000            0.0000000
 Magnitude           :                                                    0.0000000

 ------------------------------------------------------------------------------------

*** tstop() called on Joses-MacBook-Pro-2.local at Sat Jan 25 21:30:25 2025
Module time:
	user time   =       3.19 seconds =       0.05 minutes
	system time =       1.03 seconds =       0.02 minutes
	total time  =          0 seconds =       0.00 minutes
Total time:
	user time   =       3.19 seconds =       0.05 minutes
	system time =       1.03 seconds =       0.02 minutes
	total time  =          0 seconds =       0.00 minutes

    Psi4 stopped on: Saturday, 25 January 2025 09:30PM
    Psi4 wall time for execution: 0:00:00.47

*** Psi4 exiting successfully. Buy a developer a beer!
