                               Psi4 1.9.1 release

  ==> Input File <==

--------------------------------------------------------------------------
molecule {
-1 6
Ar           0.000000           0.000000           0.000000
}

set {
basis              cc-pvtz
reference          uks
maxiter            500
DAMPING_PERCENTAGE 1
E_CONVERGENCE      1.0E-8
D_CONVERGENCE      1.0E-8
DIIS_MAX_VECS      400
MBIS_MAXITER       8000
guess              SAP
}

energy('b3lyp')
--------------------------------------------------------------------------

    Molecular point group: d2h
    Geometry (in Angstrom), charge = -1, multiplicity = 6:

       Center              X                  Y                   Z               Mass
    ------------   -----------------  -----------------  -----------------  -----------------
         AR           0.000000000000     0.000000000000     0.000000000000    39.962383123700

  Charge       = -1
  Multiplicity = 6
  Basis Set: CC-PVTZ
    Blend: CC-PVTZ
  Basis Set: (CC-PVTZ AUX)
    Blend: CC-PVTZ-JKFIT

    Orbital Energies [Eh]
    ---------------------

    Alpha Occupied:

       1Ag  -115.125961     2Ag   -11.144308     1B2u   -8.711553
       1B3u   -8.711553     1B1u   -8.682488     3Ag    -0.963117
       2B3u   -0.416254     2B2u   -0.416254     2B1u   -0.353052
       3B3u    0.428055     3B2u    0.428055     3B1u    0.453770

    Alpha Virtual:

       1B1g    0.549950     4Ag     0.549950     5Ag     0.587363
       1B3g    0.591627     1B2g    0.591627     6Ag     0.607015
       7Ag     2.169871     2B1g    2.169871     2B2g    2.209826
       2B3g    2.209826     8Ag     2.223897     4B2u    2.546756
       4B3u    2.546756     5B2u    2.560603     5B3u    2.560603
       4B1u    2.594839     1Au     2.597654     5B1u    2.597654
       6B2u    2.620664     6B3u    2.620664     6B1u    2.629540
       9Ag     4.960855

    Beta Occupied:

       1Ag  -115.099576     2Ag   -11.119049     1B2u   -8.665788
       1B3u   -8.665788     1B1u   -8.659630     3Ag    -0.812440
       2B1u   -0.288451

    Beta Virtual:

       2B3u   -0.179568     2B2u   -0.179568     3B1u    0.586464
       3B2u    0.593315     3B3u    0.593315     1B3g    0.664557
       1B2g    0.664557     4Ag     0.666069     5Ag     0.675059
       1B1g    0.675059     6Ag     0.693838     2B2g    2.289796
       2B3g    2.289796     7Ag     2.290087     2B1g    2.290087
       8Ag     2.294740     4B2u    2.636215     4B3u    2.636215
       4B1u    2.636245     1Au     2.684826     5B1u    2.684826
       6B1u    2.688278     5B2u    2.688693     5B3u    2.688693
       6B2u    2.691905     6B3u    2.691905     9Ag     5.033393

    Final Occupation by Irrep:
             Ag   B1g   B2g   B3g    Au   B1u   B2u   B3u
    DOCC [     3,    0,    0,    0,    0,    2,    1,    1 ]
    SOCC [     0,    0,    0,    0,    0,    1,    2,    2 ]
    NA   [     3,    0,    0,    0,    0,    3,    3,    3 ]
    NB   [     3,    0,    0,    0,    0,    2,    1,    1 ]

  @DF-UKS Final Energy:  -525.73151001287442

   => Energetics <=

    Nuclear Repulsion Energy =              0.0000000000000000
    One-Electron Energy =                -727.2522004294994531
    Two-Electron Energy =                 226.4331556372357852
    DFT Exchange-Correlation Energy =     -24.9124652206107982
    Empirical Dispersion Energy =           0.0000000000000000
    VV10 Nonlocal Energy =                  0.0000000000000000
    Total Energy =                       -525.7315100128744234

  UHF NO Occupations:
  HONO-2 :    3B2u 1.0000000
  HONO-1 :    2B3u 1.0000000
  HONO-0 :    3B3u 1.0000000
  LUNO+0 :    4 Ag 0.0012653
  LUNO+1 :    4B1u 0.0001670
  LUNO+2 :    5 Ag 0.0000002
  LUNO+3 :    4B2u 0.0000002

Computation Completed

Properties will be evaluated at   0.000000,   0.000000,   0.000000 [a0]

Properties computed using the SCF density matrix

 Multipole Moments:

 ------------------------------------------------------------------------------------
     Multipole            Electronic (a.u.)      Nuclear  (a.u.)        Total (a.u.)
 ------------------------------------------------------------------------------------

 L = 1.  Multiply by 2.5417464519 to convert [e a0] to [Debye]
 Dipole X            :          0.0000000            0.0000000            0.0000000
 Dipole Y            :          0.0000000            0.0000000            0.0000000
 Dipole Z            :          0.0000000            0.0000000            0.0000000
 Magnitude           :                                                    0.0000000

 ------------------------------------------------------------------------------------

*** tstop() called on Joses-MacBook-Pro-2.local at Sat Jan 25 21:30:33 2025
Module time:
	user time   =       3.33 seconds =       0.06 minutes
	system time =       1.08 seconds =       0.02 minutes
	total time  =          0 seconds =       0.00 minutes
Total time:
	user time   =       3.33 seconds =       0.06 minutes
	system time =       1.08 seconds =       0.02 minutes
	total time  =          0 seconds =       0.00 minutes

    Psi4 stopped on: Saturday, 25 January 2025 09:30PM
    Psi4 wall time for execution: 0:00:00.49

*** Psi4 exiting successfully. Buy a developer a beer!
