                               Psi4 1.9.1 release

  ==> Input File <==

--------------------------------------------------------------------------
molecule {
-1 1
N           0.000000           0.000000           0.000000
}

set {
basis              cc-pvtz
reference          uks
maxiter            500
DAMPING_PERCENTAGE 1
E_CONVERGENCE      1.0E-8
D_CONVERGENCE      1.0E-8
DIIS_MAX_VECS      400
MBIS_MAXITER       8000
guess              SAP
}

energy('b3lyp')
--------------------------------------------------------------------------

    Molecular point group: d2h
    Geometry (in Angstrom), charge = -1, multiplicity = 1:

       Center              X                  Y                   Z               Mass
    ------------   -----------------  -----------------  -----------------  -----------------
         N            0.000000000000     0.000000000000     0.000000000000    14.003074004430

  Charge       = -1
  Multiplicity = 1
  Basis Set: CC-PVTZ
    Blend: CC-PVTZ
  Basis Set: (CC-PVTZ AUX)
    Blend: CC-PVTZ-JKFIT

    Orbital Energies [Eh]
    ---------------------

    Alpha Occupied:

       1Ag   -13.954516     2Ag    -0.296841     1B2u    0.137232
       1B1u    0.137232

    Alpha Virtual:

       1B3u    0.201138     2B3u    0.791597     2B2u    0.802094
       2B1u    0.802094     3Ag     0.872681     4Ag     1.401003
       1B2g    1.401825     1B1g    1.401825     1B3g    1.432418
       5Ag     1.432418     3B3u    3.203739     3B2u    3.228147
       3B1u    3.228147     4B3u    4.268128     4B1u    4.268355
       4B2u    4.268355     5B3u    4.283841     1Au     4.283841
       5B1u    4.322799     5B2u    4.322799     2B2g    4.823388
       2B1g    4.823388     6Ag     4.829367     2B3g    4.857811
       7Ag     4.857811     8Ag     5.600613

    Beta Occupied:

       1Ag   -13.954516     2Ag    -0.296841     1B2u    0.137232
       1B1u    0.137232

    Beta Virtual:

       1B3u    0.201138     2B3u    0.791597     2B2u    0.802094
       2B1u    0.802094     3Ag     0.872681     4Ag     1.401003
       1B2g    1.401825     1B1g    1.401825     1B3g    1.432418
       5Ag     1.432418     3B3u    3.203739     3B2u    3.228147
       3B1u    3.228147     4B3u    4.268128     4B1u    4.268355
       4B2u    4.268355     5B3u    4.283841     1Au     4.283841
       5B1u    4.322799     5B2u    4.322799     2B2g    4.823388
       2B1g    4.823388     6Ag     4.829367     2B3g    4.857811
       7Ag     4.857811     8Ag     5.600613

    Final Occupation by Irrep:
             Ag   B1g   B2g   B3g    Au   B1u   B2u   B3u
    DOCC [     2,    0,    0,    0,    0,    1,    1,    0 ]
    SOCC [     0,    0,    0,    0,    0,    0,    0,    0 ]
    NA   [     2,    0,    0,    0,    0,    1,    1,    0 ]
    NB   [     2,    0,    0,    0,    0,    1,    1,    0 ]

  @DF-UKS Final Energy:   -54.50016349362533

   => Energetics <=

    Nuclear Repulsion Energy =              0.0000000000000000
    One-Electron Energy =                 -76.9541503283662109
    Two-Electron Energy =                  28.1301458729384031
    DFT Exchange-Correlation Energy =      -5.6761590381975191
    Empirical Dispersion Energy =           0.0000000000000000
    VV10 Nonlocal Energy =                  0.0000000000000000
    Total Energy =                        -54.5001634936253296

  UHF NO Occupations:
  HONO-2 :    1 Ag 2.0000000
  HONO-1 :    2 Ag 2.0000000
  HONO-0 :    1B1u 2.0000000
  LUNO+0 :    3 Ag 0.0000000
  LUNO+1 :    2B2u 0.0000000
  LUNO+2 :    2B1u 0.0000000
  LUNO+3 :    4 Ag 0.0000000

Computation Completed

Properties will be evaluated at   0.000000,   0.000000,   0.000000 [a0]

Properties computed using the SCF density matrix

 Multipole Moments:

 ------------------------------------------------------------------------------------
     Multipole            Electronic (a.u.)      Nuclear  (a.u.)        Total (a.u.)
 ------------------------------------------------------------------------------------

 L = 1.  Multiply by 2.5417464519 to convert [e a0] to [Debye]
 Dipole X            :          0.0000000            0.0000000            0.0000000
 Dipole Y            :          0.0000000            0.0000000            0.0000000
 Dipole Z            :          0.0000000            0.0000000            0.0000000
 Magnitude           :                                                    0.0000000

 ------------------------------------------------------------------------------------

*** tstop() called on Joses-MacBook-Pro-2.local at Sat Jan 25 21:29:46 2025
Module time:
	user time   =       2.29 seconds =       0.04 minutes
	system time =       2.31 seconds =       0.04 minutes
	total time  =          1 seconds =       0.02 minutes
Total time:
	user time   =       2.29 seconds =       0.04 minutes
	system time =       2.31 seconds =       0.04 minutes
	total time  =          1 seconds =       0.02 minutes

    Psi4 stopped on: Saturday, 25 January 2025 09:29PM
    Psi4 wall time for execution: 0:00:00.49

*** Psi4 exiting successfully. Buy a developer a beer!
