                               Psi4 1.9.1 release

  ==> Input File <==

--------------------------------------------------------------------------
molecule {
-1 3
N           0.000000           0.000000           0.000000
}

set {
basis              cc-pvtz
reference          uks
maxiter            500
DAMPING_PERCENTAGE 1
E_CONVERGENCE      1.0E-8
D_CONVERGENCE      1.0E-8
DIIS_MAX_VECS      400
MBIS_MAXITER       8000
guess              SAP
}

energy('b3lyp')
--------------------------------------------------------------------------

    Molecular point group: d2h
    Geometry (in Angstrom), charge = -1, multiplicity = 3:

       Center              X                  Y                   Z               Mass
    ------------   -----------------  -----------------  -----------------  -----------------
         N            0.000000000000     0.000000000000     0.000000000000    14.003074004430

  Charge       = -1
  Multiplicity = 3
  Basis Set: CC-PVTZ
    Blend: CC-PVTZ
  Basis Set: (CC-PVTZ AUX)
    Blend: CC-PVTZ-JKFIT

    Orbital Energies [Eh]
    ---------------------

    Alpha Occupied:

       1Ag   -13.945428     2Ag    -0.344300     1B1u    0.076355
       1B3u    0.076355     1B2u    0.131180

    Alpha Virtual:

       2B3u    0.764974     2B1u    0.764974     2B2u    0.799862
       3Ag     0.852610     4Ag     1.366561     1B2g    1.366561
       1B3g    1.400888     1B1g    1.400888     5Ag     1.413102
       3B3u    3.178876     3B1u    3.178876     3B2u    3.228322
       4B3u    4.227090     4B1u    4.227090     1Au     4.261711
       4B2u    4.261711     5B1u    4.282752     5B3u    4.282752
       5B2u    4.290166     6Ag     4.771072     2B2g    4.771072
       2B1g    4.817513     2B3g    4.817513     7Ag     4.832756
       8Ag     5.581336

    Beta Occupied:

       1Ag   -13.911209     2Ag    -0.223317     1B2u    0.165328

    Beta Virtual:

       1B3u    0.279472     1B1u    0.279472     2B2u    0.820562
       2B3u    0.850379     2B1u    0.850379     3Ag     0.910084
       1B3g    1.448487     1B1g    1.448487     4Ag     1.451815
       5Ag     1.461219     1B2g    1.461219     3B2u    3.258462
       3B3u    3.283733     3B1u    3.283733     1Au     4.335734
       4B2u    4.335734     5B2u    4.337883     4B1u    4.339359
       4B3u    4.339359     5B3u    4.346886     5B1u    4.346886
       2B1g    4.895890     2B3g    4.895890     6Ag     4.901105
       7Ag     4.925831     2B2g    4.925831     8Ag     5.650943

    Final Occupation by Irrep:
             Ag   B1g   B2g   B3g    Au   B1u   B2u   B3u
    DOCC [     2,    0,    0,    0,    0,    0,    1,    0 ]
    SOCC [     0,    0,    0,    0,    0,    1,    0,    1 ]
    NA   [     2,    0,    0,    0,    0,    1,    1,    1 ]
    NB   [     2,    0,    0,    0,    0,    0,    1,    0 ]

  @DF-UKS Final Energy:   -54.57227360237347

   => Energetics <=

    Nuclear Repulsion Energy =              0.0000000000000000
    One-Electron Energy =                 -77.0631921453039865
    Two-Electron Energy =                  28.1931794226677006
    DFT Exchange-Correlation Energy =      -5.7022608797371905
    Empirical Dispersion Energy =           0.0000000000000000
    VV10 Nonlocal Energy =                  0.0000000000000000
    Total Energy =                        -54.5722736023734782

  UHF NO Occupations:
  HONO-2 :    2 Ag 1.9988873
  HONO-1 :    1B3u 1.0000000
  HONO-0 :    1B1u 1.0000000
  LUNO+0 :    3 Ag 0.0011127
  LUNO+1 :    2B2u 0.0005514
  LUNO+2 :    4 Ag 0.0000011
  LUNO+3 :    3B2u 0.0000000

Computation Completed

Properties will be evaluated at   0.000000,   0.000000,   0.000000 [a0]

Properties computed using the SCF density matrix

 Multipole Moments:

 ------------------------------------------------------------------------------------
     Multipole            Electronic (a.u.)      Nuclear  (a.u.)        Total (a.u.)
 ------------------------------------------------------------------------------------

 L = 1.  Multiply by 2.5417464519 to convert [e a0] to [Debye]
 Dipole X            :          0.0000000            0.0000000            0.0000000
 Dipole Y            :          0.0000000            0.0000000            0.0000000
 Dipole Z            :          0.0000000            0.0000000            0.0000000
 Magnitude           :                                                    0.0000000

 ------------------------------------------------------------------------------------

*** tstop() called on Joses-MacBook-Pro-2.local at Sat Jan 25 21:29:47 2025
Module time:
	user time   =       3.26 seconds =       0.05 minutes
	system time =       1.37 seconds =       0.02 minutes
	total time  =          0 seconds =       0.00 minutes
Total time:
	user time   =       3.26 seconds =       0.05 minutes
	system time =       1.37 seconds =       0.02 minutes
	total time  =          0 seconds =       0.00 minutes

    Psi4 stopped on: Saturday, 25 January 2025 09:29PM
    Psi4 wall time for execution: 0:00:00.52

*** Psi4 exiting successfully. Buy a developer a beer!
