                               Psi4 1.9.1 release

  ==> Input File <==

--------------------------------------------------------------------------
molecule {
-1 3
B           0.000000           0.000000           0.000000
}

set {
basis              cc-pvtz
reference          uks
maxiter            500
DAMPING_PERCENTAGE 1
E_CONVERGENCE      1.0E-8
D_CONVERGENCE      1.0E-8
DIIS_MAX_VECS      400
MBIS_MAXITER       8000
guess              SAP
}

energy('b3lyp')
--------------------------------------------------------------------------

    Molecular point group: d2h
    Geometry (in Angstrom), charge = -1, multiplicity = 3:

       Center              X                  Y                   Z               Mass
    ------------   -----------------  -----------------  -----------------  -----------------
         B            0.000000000000     0.000000000000     0.000000000000    11.009305360000

  Charge       = -1
  Multiplicity = 3
  Basis Set: CC-PVTZ
    Blend: CC-PVTZ
  Basis Set: (CC-PVTZ AUX)
    Blend: CC-PVTZ-JKFIT

    Orbital Energies [Eh]
    ---------------------

    Alpha Occupied:

       1Ag    -6.522819     2Ag    -0.111128     1B1u    0.096660
       1B2u    0.096660

    Alpha Virtual:

       1B3u    0.168550     2B2u    0.411318     2B1u    0.411318
       2B3u    0.431598     3Ag     0.467443     1B3g    0.645709
       4Ag     0.645709     1B2g    0.650266     1B1g    0.650266
       5Ag     0.658078     3B2u    1.494991     3B1u    1.494991
       3B3u    1.511728     4B3u    1.976536     1Au     1.976536
       4B2u    1.977314     4B1u    1.977314     5B1u    1.980615
       5B2u    1.980615     5B3u    1.984924     2B3g    2.059867
       6Ag     2.059867     2B2g    2.068780     2B1g    2.068780
       7Ag     2.080981     8Ag     2.774874

    Beta Occupied:

       1Ag    -6.509661     2Ag    -0.044485

    Beta Virtual:

       1B3u    0.181264     1B2u    0.208072     1B1u    0.208072
       2B3u    0.440521     2B2u    0.465183     2B1u    0.465183
       3Ag     0.502596     4Ag     0.676600     1B2g    0.682478
       1B1g    0.682478     1B3g    0.702619     5Ag     0.702619
       3B3u    1.518361     3B2u    1.546033     3B1u    1.546033
       4B3u    2.006812     4B1u    2.011366     4B2u    2.011366
       1Au     2.023773     5B3u    2.023773     5B2u    2.044806
       5B1u    2.044806     6Ag     2.102741     2B1g    2.111755
       2B2g    2.111755     2B3g    2.138776     7Ag     2.138776
       8Ag     2.804498

    Final Occupation by Irrep:
             Ag   B1g   B2g   B3g    Au   B1u   B2u   B3u
    DOCC [     2,    0,    0,    0,    0,    0,    0,    0 ]
    SOCC [     0,    0,    0,    0,    0,    1,    1,    0 ]
    NA   [     2,    0,    0,    0,    0,    1,    1,    0 ]
    NB   [     2,    0,    0,    0,    0,    0,    0,    0 ]

  @DF-UKS Final Energy:   -24.66369303089179

   => Energetics <=

    Nuclear Repulsion Energy =              0.0000000000000000
    One-Electron Energy =                 -33.9378223405617092
    Two-Electron Energy =                  12.5864151935450170
    DFT Exchange-Correlation Energy =      -3.3122858838750995
    Empirical Dispersion Energy =           0.0000000000000000
    VV10 Nonlocal Energy =                  0.0000000000000000
    Total Energy =                        -24.6636930308917925

  UHF NO Occupations:
  HONO-2 :    2 Ag 1.9984521
  HONO-1 :    1B2u 1.0000000
  HONO-0 :    1B1u 1.0000000
  LUNO+0 :    3 Ag 0.0015479
  LUNO+1 :    4 Ag 0.0000008
  LUNO+2 :    5 Ag 0.0000000
  LUNO+3 :    6 Ag 0.0000000

Computation Completed

Properties will be evaluated at   0.000000,   0.000000,   0.000000 [a0]

Properties computed using the SCF density matrix

 Multipole Moments:

 ------------------------------------------------------------------------------------
     Multipole            Electronic (a.u.)      Nuclear  (a.u.)        Total (a.u.)
 ------------------------------------------------------------------------------------

 L = 1.  Multiply by 2.5417464519 to convert [e a0] to [Debye]
 Dipole X            :          0.0000000            0.0000000            0.0000000
 Dipole Y            :          0.0000000            0.0000000            0.0000000
 Dipole Z            :          0.0000000            0.0000000            0.0000000
 Magnitude           :                                                    0.0000000

 ------------------------------------------------------------------------------------

*** tstop() called on Joses-MacBook-Pro-2.local at Sat Jan 25 21:29:39 2025
Module time:
	user time   =       2.53 seconds =       0.04 minutes
	system time =       2.09 seconds =       0.03 minutes
	total time  =          0 seconds =       0.00 minutes
Total time:
	user time   =       2.53 seconds =       0.04 minutes
	system time =       2.09 seconds =       0.03 minutes
	total time  =          0 seconds =       0.00 minutes

    Psi4 stopped on: Saturday, 25 January 2025 09:29PM
    Psi4 wall time for execution: 0:00:00.48

*** Psi4 exiting successfully. Buy a developer a beer!
