                               Psi4 1.9.1 release

  ==> Input File <==

--------------------------------------------------------------------------
molecule {
-1 3
F           0.000000           0.000000           0.000000
}

set {
basis              cc-pvtz
reference          uks
maxiter            500
DAMPING_PERCENTAGE 1
E_CONVERGENCE      1.0E-8
D_CONVERGENCE      1.0E-8
DIIS_MAX_VECS      400
MBIS_MAXITER       8000
guess              SAP
}

energy('b3lyp')
--------------------------------------------------------------------------

    Molecular point group: d2h
    Geometry (in Angstrom), charge = -1, multiplicity = 3:

       Center              X                  Y                   Z               Mass
    ------------   -----------------  -----------------  -----------------  -----------------
         F            0.000000000000     0.000000000000     0.000000000000    18.998403162730

  Charge       = -1
  Multiplicity = 3
  Basis Set: CC-PVTZ
    Blend: CC-PVTZ
  Basis Set: (CC-PVTZ AUX)
    Blend: CC-PVTZ-JKFIT

    Orbital Energies [Eh]
    ---------------------

    Alpha Occupied:

       1Ag   -24.277404     2Ag    -0.777207     1B3u   -0.121908
       1B2u   -0.030258     1B1u   -0.030258     2B3u    0.914132

    Alpha Virtual:

       2B2u    1.051409     2B1u    1.051409     3Ag     1.260738
       4Ag     2.308002     1B1g    2.315028     1B2g    2.315028
       5Ag     2.344201     1B3g    2.344201     3B3u    4.807571
       3B1u    4.885700     3B2u    4.885700     4B3u    7.209398
       4B2u    7.216078     4B1u    7.216078     5B3u    7.235457
       1Au     7.235457     5B2u    7.270472     5B1u    7.270472
       6Ag     8.533706     2B1g    8.556649     2B2g    8.556649
       7Ag     8.631035     2B3g    8.631035     8Ag     9.227286

    Beta Occupied:

       1Ag   -24.233533     2Ag    -0.670039     1B2u    0.008205
       1B1u    0.008205

    Beta Virtual:

       1B3u    0.213942     2B2u    1.083053     2B1u    1.083053
       2B3u    1.152213     3Ag     1.339038     1B3g    2.351658
       4Ag     2.351658     1B1g    2.382864     1B2g    2.382864
       5Ag     2.400336     3B1u    4.918513     3B2u    4.918513
       3B3u    4.994542     4B2u    7.275124     4B1u    7.275124
       1Au     7.293776     4B3u    7.293776     5B2u    7.311318
       5B1u    7.311318     5B3u    7.323140     2B3g    8.653860
       6Ag     8.653860     2B1g    8.706734     2B2g    8.706734
       7Ag     8.743596     8Ag     9.306590

    Final Occupation by Irrep:
             Ag   B1g   B2g   B3g    Au   B1u   B2u   B3u
    DOCC [     2,    0,    0,    0,    0,    1,    1,    0 ]
    SOCC [     0,    0,    0,    0,    0,    0,    0,    2 ]
    NA   [     2,    0,    0,    0,    0,    1,    1,    2 ]
    NB   [     2,    0,    0,    0,    0,    1,    1,    0 ]

  @DF-UKS Final Energy:   -98.98507597094778

   => Energetics <=

    Nuclear Repulsion Energy =              0.0000000000000000
    One-Electron Energy =                -142.5425449092403483
    Two-Electron Energy =                  52.2237727537747034
    DFT Exchange-Correlation Energy =      -8.6663038154821166
    Empirical Dispersion Energy =           0.0000000000000000
    VV10 Nonlocal Energy =                  0.0000000000000000
    Total Energy =                        -98.9850759709477472

  UHF NO Occupations:
  HONO-2 :    2 Ag 1.9993866
  HONO-1 :    1B3u 1.0000000
  HONO-0 :    2B3u 1.0000000
  LUNO+0 :    3 Ag 0.0006134
  LUNO+1 :    2B1u 0.0001242
  LUNO+2 :    2B2u 0.0001242
  LUNO+3 :    4 Ag 0.0000009

Computation Completed

Properties will be evaluated at   0.000000,   0.000000,   0.000000 [a0]

Properties computed using the SCF density matrix

 Multipole Moments:

 ------------------------------------------------------------------------------------
     Multipole            Electronic (a.u.)      Nuclear  (a.u.)        Total (a.u.)
 ------------------------------------------------------------------------------------

 L = 1.  Multiply by 2.5417464519 to convert [e a0] to [Debye]
 Dipole X            :          0.0000000            0.0000000            0.0000000
 Dipole Y            :          0.0000000            0.0000000            0.0000000
 Dipole Z            :          0.0000000            0.0000000            0.0000000
 Magnitude           :                                                    0.0000000

 ------------------------------------------------------------------------------------

*** tstop() called on Joses-MacBook-Pro-2.local at Sat Jan 25 21:29:55 2025
Module time:
	user time   =       1.77 seconds =       0.03 minutes
	system time =       3.33 seconds =       0.06 minutes
	total time  =          1 seconds =       0.02 minutes
Total time:
	user time   =       1.77 seconds =       0.03 minutes
	system time =       3.33 seconds =       0.06 minutes
	total time  =          1 seconds =       0.02 minutes

    Psi4 stopped on: Saturday, 25 January 2025 09:29PM
    Psi4 wall time for execution: 0:00:00.52

*** Psi4 exiting successfully. Buy a developer a beer!
