                               Psi4 1.9.1 release

  ==> Input File <==

--------------------------------------------------------------------------
molecule {
-1 3
P           0.000000           0.000000           0.000000
}

set {
basis              cc-pvtz
reference          uks
maxiter            500
DAMPING_PERCENTAGE 1
E_CONVERGENCE      1.0E-8
D_CONVERGENCE      1.0E-8
DIIS_MAX_VECS      400
MBIS_MAXITER       8000
guess              SAP
}

energy('b3lyp')
--------------------------------------------------------------------------

    Molecular point group: d2h
    Geometry (in Angstrom), charge = -1, multiplicity = 3:

       Center              X                  Y                   Z               Mass
    ------------   -----------------  -----------------  -----------------  -----------------
         P            0.000000000000     0.000000000000     0.000000000000    30.973761998420

  Charge       = -1
  Multiplicity = 3
  Basis Set: CC-PVTZ
    Blend: CC-PVTZ
  Basis Set: (CC-PVTZ AUX)
    Blend: CC-PVTZ-JKFIT

    Orbital Energies [Eh]
    ---------------------

    Alpha Occupied:

       1Ag   -76.800701     2Ag    -6.262203     1B3u   -4.429044
       1B1u   -4.429044     1B2u   -4.415879     3Ag    -0.278104
       2B1u    0.026863     2B3u    0.026863     2B2u    0.063494

    Alpha Virtual:

       4Ag     0.490485     3B1u    0.502408     3B3u    0.502408
       3B2u    0.526638     5Ag     0.528706     1B2g    0.528706
       1B1g    0.554693     1B3g    0.554693     6Ag     0.564547
       7Ag     1.509409     2B2g    1.509409     2B3g    1.534936
       2B1g    1.534936     8Ag     1.543977     4B3u    1.587130
       4B1u    1.587130     1Au     1.610738     4B2u    1.610738
       5B1u    1.625076     5B3u    1.625076     5B2u    1.630134
       6B3u    2.148438     6B1u    2.148438     6B2u    2.178134
       9Ag     2.883896

    Beta Occupied:

       1Ag   -76.793508     2Ag    -6.254772     1B3u   -4.414322
       1B1u   -4.414322     1B2u   -4.411699     3Ag    -0.206364
       2B2u    0.081039

    Beta Virtual:

       2B1u    0.149376     2B3u    0.149376     4Ag     0.519822
       3B2u    0.535917     3B1u    0.545758     3B3u    0.545758
       1B1g    0.591000     1B3g    0.591000     5Ag     0.592978
       1B2g    0.601515     6Ag     0.601515     2B3g    1.564163
       2B1g    1.564163     7Ag     1.566131     2B2g    1.567781
       8Ag     1.567781     1Au     1.658985     4B2u    1.658985
       5B2u    1.659893     4B1u    1.660409     4B3u    1.660409
       5B1u    1.665243     5B3u    1.665243     6B2u    2.186884
       6B3u    2.187016     6B1u    2.187016     9Ag     2.907097

    Final Occupation by Irrep:
             Ag   B1g   B2g   B3g    Au   B1u   B2u   B3u
    DOCC [     3,    0,    0,    0,    0,    1,    2,    1 ]
    SOCC [     0,    0,    0,    0,    0,    1,    0,    1 ]
    NA   [     3,    0,    0,    0,    0,    2,    2,    2 ]
    NB   [     3,    0,    0,    0,    0,    1,    2,    1 ]

  @DF-UKS Final Energy:  -341.30366002051926

   => Energetics <=

    Nuclear Repulsion Energy =              0.0000000000000000
    One-Electron Energy =                -476.2786282963650137
    Two-Electron Energy =                 153.8187229516698267
    DFT Exchange-Correlation Energy =     -18.8437546758240941
    Empirical Dispersion Energy =           0.0000000000000000
    VV10 Nonlocal Energy =                  0.0000000000000000
    Total Energy =                       -341.3036600205192599

  UHF NO Occupations:
  HONO-2 :    3 Ag 1.9985440
  HONO-1 :    2B1u 1.0000000
  HONO-0 :    2B3u 1.0000000
  LUNO+0 :    4 Ag 0.0014560
  LUNO+1 :    3B2u 0.0003153
  LUNO+2 :    3B3u 0.0000003
  LUNO+3 :    3B1u 0.0000003

Computation Completed

Properties will be evaluated at   0.000000,   0.000000,   0.000000 [a0]

Properties computed using the SCF density matrix

 Multipole Moments:

 ------------------------------------------------------------------------------------
     Multipole            Electronic (a.u.)      Nuclear  (a.u.)        Total (a.u.)
 ------------------------------------------------------------------------------------

 L = 1.  Multiply by 2.5417464519 to convert [e a0] to [Debye]
 Dipole X            :          0.0000000            0.0000000            0.0000000
 Dipole Y            :          0.0000000            0.0000000            0.0000000
 Dipole Z            :          0.0000000            0.0000000            0.0000000
 Magnitude           :                                                    0.0000000

 ------------------------------------------------------------------------------------

*** tstop() called on Joses-MacBook-Pro-2.local at Sat Jan 25 21:30:20 2025
Module time:
	user time   =       4.03 seconds =       0.07 minutes
	system time =       1.35 seconds =       0.02 minutes
	total time  =          1 seconds =       0.02 minutes
Total time:
	user time   =       4.03 seconds =       0.07 minutes
	system time =       1.35 seconds =       0.02 minutes
	total time  =          1 seconds =       0.02 minutes

    Psi4 stopped on: Saturday, 25 January 2025 09:30PM
    Psi4 wall time for execution: 0:00:00.58

*** Psi4 exiting successfully. Buy a developer a beer!
