                               Psi4 1.9.1 release

  ==> Input File <==

--------------------------------------------------------------------------
molecule {
-1 3
Na           0.000000           0.000000           0.000000
}

set {
basis              cc-pvtz
reference          uks
maxiter            500
DAMPING_PERCENTAGE 1
E_CONVERGENCE      1.0E-8
D_CONVERGENCE      1.0E-8
DIIS_MAX_VECS      400
MBIS_MAXITER       8000
guess              SAP
}

energy('b3lyp')
--------------------------------------------------------------------------

    Molecular point group: d2h
    Geometry (in Angstrom), charge = -1, multiplicity = 3:

       Center              X                  Y                   Z               Mass
    ------------   -----------------  -----------------  -----------------  -----------------
         NA           0.000000000000     0.000000000000     0.000000000000    22.989769282000

  Charge       = -1
  Multiplicity = 3
  Basis Set: CC-PVTZ
    Blend: CC-PVTZ
  Basis Set: (CC-PVTZ AUX)
    Blend: DEF2-UNIVERSAL-JKFIT

    Orbital Energies [Eh]
    ---------------------

    Alpha Occupied:

       1Ag   -38.380426     2Ag    -2.109882     1B2u   -1.041667
       1B1u   -1.041667     1B3u   -1.040897     3Ag    -0.014124
       2B3u    0.040386

    Alpha Virtual:

       2B2u    0.074527     2B1u    0.074527     3B3u    0.120198
       3B1u    0.129723     3B2u    0.129723     4Ag     0.140936
       1B1g    0.205051     1B2g    0.205051     5Ag     0.206415
       1B3g    0.211014     6Ag     0.211014     4B3u    0.322778
       4B2u    0.327834     4B1u    0.327834     1Au     0.534409
       5B3u    0.534409     5B2u    0.534915     5B1u    0.534915
       6B3u    0.535072     6B1u    0.535196     6B2u    0.535196
       2B2g    0.537697     2B1g    0.537697     7Ag     0.538326
       2B3g    0.539605     8Ag     0.539606     9Ag     1.542875

    Beta Occupied:

       1Ag   -38.378797     2Ag    -2.106776     1B2u   -1.039696
       1B1u   -1.039696     1B3u   -1.038370

    Beta Virtual:

       3Ag     0.053141     2B3u    0.089303     2B2u    0.092485
       2B1u    0.092485     3B1u    0.155173     3B2u    0.155173
       3B3u    0.160511     4Ag     0.164448     5Ag     0.239055
       1B3g    0.239055     1B1g    0.244419     1B2g    0.244419
       6Ag     0.247206     4B2u    0.343307     4B1u    0.343307
       4B3u    0.347344     7Ag     0.553654     2B3g    0.553654
       2B1g    0.557603     2B2g    0.557603     5B1u    0.558612
       5B2u    0.558612     8Ag     0.559395     5B3u    0.563876
       1Au     0.563876     6B2u    0.567333     6B1u    0.567333
       6B3u    0.568498     9Ag     1.553716

    Final Occupation by Irrep:
             Ag   B1g   B2g   B3g    Au   B1u   B2u   B3u
    DOCC [     2,    0,    0,    0,    0,    1,    1,    1 ]
    SOCC [     1,    0,    0,    0,    0,    0,    0,    1 ]
    NA   [     3,    0,    0,    0,    0,    1,    1,    2 ]
    NB   [     2,    0,    0,    0,    0,    1,    1,    1 ]

  @DF-UKS Final Energy:  -162.28737472814655

   => Energetics <=

    Nuclear Repulsion Energy =              0.0000000000000000
    One-Electron Energy =                -229.0311584981491819
    Two-Electron Energy =                  78.4260490026365176
    DFT Exchange-Correlation Energy =     -11.6822652326338794
    Empirical Dispersion Energy =           0.0000000000000000
    VV10 Nonlocal Energy =                  0.0000000000000000
    Total Energy =                       -162.2873747281465455

  UHF NO Occupations:
  HONO-2 :    1B2u 1.9999993
  HONO-1 :    3 Ag 1.0000000
  HONO-0 :    2B3u 1.0000000
  LUNO+0 :    2B2u 0.0000007
  LUNO+1 :    2B1u 0.0000007
  LUNO+2 :    3B3u 0.0000006
  LUNO+3 :    4 Ag 0.0000001

Computation Completed

Properties will be evaluated at   0.000000,   0.000000,   0.000000 [a0]

Properties computed using the SCF density matrix

 Multipole Moments:

 ------------------------------------------------------------------------------------
     Multipole            Electronic (a.u.)      Nuclear  (a.u.)        Total (a.u.)
 ------------------------------------------------------------------------------------

 L = 1.  Multiply by 2.5417464519 to convert [e a0] to [Debye]
 Dipole X            :          0.0000000            0.0000000            0.0000000
 Dipole Y            :          0.0000000            0.0000000            0.0000000
 Dipole Z            :          0.0000000            0.0000000            0.0000000
 Magnitude           :                                                    0.0000000

 ------------------------------------------------------------------------------------

*** tstop() called on Joses-MacBook-Pro-2.local at Sat Jan 25 21:30:03 2025
Module time:
	user time   =       4.52 seconds =       0.08 minutes
	system time =       1.56 seconds =       0.03 minutes
	total time  =          1 seconds =       0.02 minutes
Total time:
	user time   =       4.52 seconds =       0.08 minutes
	system time =       1.56 seconds =       0.03 minutes
	total time  =          1 seconds =       0.02 minutes

    Psi4 stopped on: Saturday, 25 January 2025 09:30PM
    Psi4 wall time for execution: 0:00:00.74

*** Psi4 exiting successfully. Buy a developer a beer!
