                               Psi4 1.9.1 release

  ==> Input File <==

--------------------------------------------------------------------------
molecule {
-1 3
Al           0.000000           0.000000           0.000000
}

set {
basis              cc-pvtz
reference          uks
maxiter            500
DAMPING_PERCENTAGE 1
E_CONVERGENCE      1.0E-8
D_CONVERGENCE      1.0E-8
DIIS_MAX_VECS      400
MBIS_MAXITER       8000
guess              SAP
}

energy('b3lyp')
--------------------------------------------------------------------------

    Molecular point group: d2h
    Geometry (in Angstrom), charge = -1, multiplicity = 3:

       Center              X                  Y                   Z               Mass
    ------------   -----------------  -----------------  -----------------  -----------------
         AL           0.000000000000     0.000000000000     0.000000000000    26.981538530000

  Charge       = -1
  Multiplicity = 3
  Basis Set: CC-PVTZ
    Blend: CC-PVTZ
  Basis Set: (CC-PVTZ AUX)
    Blend: CC-PVTZ-JKFIT

    Orbital Energies [Eh]
    ---------------------

    Alpha Occupied:

       1Ag   -55.827327     2Ag    -3.905460     1B3u   -2.459925
       1B2u   -2.457750     1B1u   -2.457750     3Ag    -0.102340
       2B2u    0.072407     2B1u    0.072407

    Alpha Virtual:

       2B3u    0.120885     4Ag     0.300638     1B3g    0.339050
       5Ag     0.339050     1B1g    0.343529     1B2g    0.343529
       6Ag     0.350665     3B1u    0.375921     3B2u    0.375921
       3B3u    0.383708     2B3g    0.921293     7Ag     0.921293
       2B2g    0.921607     2B1g    0.921607     8Ag     0.924689
       1Au     0.948985     4B3u    0.948985     4B1u    0.949256
       4B2u    0.949256     5B1u    0.952054     5B2u    0.952054
       5B3u    0.954804     9Ag     1.575987     6B3u    2.160454
       6B2u    2.163717     6B1u    2.163717

    Beta Occupied:

       1Ag   -55.824430     2Ag    -3.902308     1B3u   -2.458457
       1B2u   -2.451265     1B1u   -2.451265     3Ag    -0.061982

    Beta Virtual:

       2B3u    0.130023     2B2u    0.151842     2B1u    0.151842
       4Ag     0.319161     5Ag     0.366208     1B1g    0.369674
       1B2g    0.369674     1B3g    0.386105     6Ag     0.386105
       3B3u    0.387335     3B1u    0.407013     3B2u    0.407013
       7Ag     0.932409     2B1g    0.937595     2B2g    0.937595
       2B3g    0.954961     8Ag     0.954961     4B3u    0.970361
       4B1u    0.973482     4B2u    0.973482     1Au     0.982274
       5B3u    0.982274     5B1u    0.997849     5B2u    0.997849
       9Ag     1.589106     6B3u    2.161932     6B2u    2.177901
       6B1u    2.177901

    Final Occupation by Irrep:
             Ag   B1g   B2g   B3g    Au   B1u   B2u   B3u
    DOCC [     3,    0,    0,    0,    0,    1,    1,    1 ]
    SOCC [     0,    0,    0,    0,    0,    1,    1,    0 ]
    NA   [     3,    0,    0,    0,    0,    2,    2,    1 ]
    NB   [     3,    0,    0,    0,    0,    1,    1,    1 ]

  @DF-UKS Final Energy:  -242.39207014574740

   => Energetics <=

    Nuclear Repulsion Energy =              0.0000000000000000
    One-Electron Energy =                -339.7921296435862359
    Two-Electron Energy =                 112.5043140977378613
    DFT Exchange-Correlation Energy =     -15.1042545998990256
    Empirical Dispersion Energy =           0.0000000000000000
    VV10 Nonlocal Energy =                  0.0000000000000000
    Total Energy =                       -242.3920701457474252

  UHF NO Occupations:
  HONO-2 :    3 Ag 1.9977738
  HONO-1 :    2B1u 1.0000000
  HONO-0 :    2B2u 1.0000000
  LUNO+0 :    4 Ag 0.0022262
  LUNO+1 :    3B2u 0.0000005
  LUNO+2 :    3B1u 0.0000005
  LUNO+3 :    2B3u 0.0000002

Computation Completed

Properties will be evaluated at   0.000000,   0.000000,   0.000000 [a0]

Properties computed using the SCF density matrix

 Multipole Moments:

 ------------------------------------------------------------------------------------
     Multipole            Electronic (a.u.)      Nuclear  (a.u.)        Total (a.u.)
 ------------------------------------------------------------------------------------

 L = 1.  Multiply by 2.5417464519 to convert [e a0] to [Debye]
 Dipole X            :          0.0000000            0.0000000            0.0000000
 Dipole Y            :          0.0000000            0.0000000            0.0000000
 Dipole Z            :          0.0000000            0.0000000            0.0000000
 Magnitude           :                                                    0.0000000

 ------------------------------------------------------------------------------------

*** tstop() called on Joses-MacBook-Pro-2.local at Sat Jan 25 21:30:12 2025
Module time:
	user time   =       4.34 seconds =       0.07 minutes
	system time =       1.27 seconds =       0.02 minutes
	total time  =          1 seconds =       0.02 minutes
Total time:
	user time   =       4.34 seconds =       0.07 minutes
	system time =       1.27 seconds =       0.02 minutes
	total time  =          1 seconds =       0.02 minutes

    Psi4 stopped on: Saturday, 25 January 2025 09:30PM
    Psi4 wall time for execution: 0:00:00.61

*** Psi4 exiting successfully. Buy a developer a beer!
