                               Psi4 1.9.1 release

  ==> Input File <==

--------------------------------------------------------------------------
molecule {
0 2
Ne   0.00000        0.60000        0.00000
P   0.00000       -0.60000        0.00000
}

set {
basis              cc-pvdz
reference          uks
maxiter            500
geom_maxiter       500
DAMPING_PERCENTAGE 1
guess              SAP
}

optimize('b3lyp')
--------------------------------------------------------------------------

    Molecular point group: c2v
  Charge       = 0
  Multiplicity = 2
  Basis Set: CC-PVDZ
    Blend: CC-PVDZ
  Basis Set: (CC-PVDZ AUX)
    Blend: CC-PVDZ-JKFIT
  @DF-UKS Final Energy:  -469.61443579555049
    Total Energy =                       -469.6144357955504915
 Dipole X            :          0.0000000            0.0000000            0.0000000
 Dipole Y            :          0.0000000            0.0000000            0.0000000
 Dipole Z            :          1.0483902            0.4383075            1.4866977
 Magnitude           :                                                    1.4866977
    Molecular point group: c2v
  Basis Set: CC-PVDZ
    Blend: CC-PVDZ
  Basis Set: (CC-PVDZ AUX)
    Blend: CC-PVDZ-JKFIT
  Basis Set: CC-PVDZ
    Blend: CC-PVDZ
  Basis Set: (CC-PVDZ AUX)
    Blend: CC-PVDZ-JKFIT
  @DF-UKS Final Energy:  -469.85087536365330
    Total Energy =                       -469.8508753636533015
  Basis Set: CC-PVDZ
    Blend: CC-PVDZ
  Basis Set: (CC-PVDZ AUX)
    Blend: CC-PVDZ-JKFIT
  Basis Set: CC-PVDZ
    Blend: CC-PVDZ
  @DF-UKS Final Energy:  -469.98154637730767
    Total Energy =                       -469.9815463773076658
  @DF-UKS Final Energy:  -470.05239809020253
    Total Energy =                       -470.0523980902025301
  @DF-UKS Final Energy:  -470.09007947938198
    Total Energy =                       -470.0900794793819841
  @DF-UKS Final Energy:  -470.10947639708377
    Total Energy =                       -470.1094763970837107
  @DF-UKS Final Energy:  -470.11910977834037
    Total Energy =                       -470.1191097783403734
  @DF-UKS Final Energy:  -470.12364277000569
    Total Energy =                       -470.1236427700056311
  @DF-UKS Final Energy:  -470.12556732515009
    Total Energy =                       -470.1255673251500866
  @DF-UKS Final Energy:  -470.12624057421198
    Total Energy =                       -470.1262405742119768
  @DF-UKS Final Energy:  -470.12637967545072
    Total Energy =                       -470.1263796754507780
  @DF-UKS Final Energy:  -470.12642009045101
    Total Energy =                       -470.1264200904510631
  Basis Set: (CC-PVDZ AUX)
    Blend: CC-PVDZ-JKFIT
  Basis Set: CC-PVDZ
    Blend: CC-PVDZ
  Basis Set: (CC-PVDZ AUX)
    Blend: CC-PVDZ-JKFIT
  @DF-UKS Final Energy:  -470.12642503867579
    Total Energy =                       -470.1264250386757908
  Basis Set: CC-PVDZ
    Blend: CC-PVDZ
  Basis Set: (CC-PVDZ AUX)
    Blend: CC-PVDZ-JKFIT
  Charge       = 0
  Multiplicity = 2
  Basis Set: CC-PVDZ
    Blend: CC-PVDZ
  Basis Set: (CC-PVDZ AUX)
    Blend: CC-PVDZ-JKFIT

    Orbital Energies [Eh]
    ---------------------

    Alpha Occupied:

       1A1   -77.126560     2A1   -31.014337     3A1    -6.590601
       4A1    -4.760862     1B1    -4.755925     1B2    -4.739774
       5A1    -1.476210     6A1    -0.601999     2B1    -0.582550
       2B2    -0.581801     7A1    -0.546809     3B1    -0.246939
       3B2    -0.204278

    Alpha Virtual:

       8A1    -0.161355     9A1     0.352604     4B1     0.404787
      10A1     0.422776     4B2     0.433330     5B1     0.440160
      11A1     0.453551     1A2     0.469611     5B2     0.474008
      12A1     0.486503     6B1     1.336028     6B2     1.337575
      13A1     1.420307    14A1     1.934513     7B1     4.680010
       7B2     4.680487    15A1     4.682246     2A2     4.683269
      16A1     4.683423

    Beta Occupied:

       1A1   -77.122450     2A1   -31.014295     3A1    -6.586231
       4A1    -4.758560     1B1    -4.741365     1B2    -4.737260
       5A1    -1.476158     6A1    -0.597176     2B1    -0.582163
       2B2    -0.581794     7A1    -0.511021     3B2    -0.193010

    Beta Virtual:

       8A1    -0.149006     3B1    -0.118896     9A1     0.367411
      10A1     0.433626     4B2     0.438836     4B1     0.445276
       5B2     0.479162    11A1     0.481986     5B1     0.492363
       1A2     0.514490    12A1     0.520207     6B1     1.336483
       6B2     1.337566    13A1     1.420874    14A1     1.935584
       7B1     4.680087     7B2     4.680422    15A1     4.682246
       2A2     4.683416    16A1     4.683540

    Final Occupation by Irrep:
             A1    A2    B1    B2
    DOCC [     7,    0,    2,    3 ]
    SOCC [     0,    0,    1,    0 ]
    NA   [     7,    0,    3,    3 ]
    NB   [     7,    0,    2,    3 ]

  @DF-UKS Final Energy:  -470.12642558714487

   => Energetics <=

    Nuclear Repulsion Energy =             30.9940584728058788
    One-Electron Energy =                -715.5911844845945780
    Two-Electron Energy =                 243.2332206645094175
    DFT Exchange-Correlation Energy =     -28.7625202398656015
    Empirical Dispersion Energy =           0.0000000000000000
    VV10 Nonlocal Energy =                  0.0000000000000000
    Total Energy =                       -470.1264255871448086

  UHF NO Occupations:
  HONO-2 :    3 B2 1.9999772
  HONO-1 :    7 A1 1.9987311
  HONO-0 :    3 B1 1.0000000
  LUNO+0 :    8 A1 0.0012689
  LUNO+1 :    4 B2 0.0000228
  LUNO+2 :    9 A1 0.0000029
  LUNO+3 :    4 B1 0.0000002

Computation Completed

Properties will be evaluated at   0.000000,   0.000000,   0.000000 [a0]

Properties computed using the SCF density matrix

 Multipole Moments:

 ------------------------------------------------------------------------------------
     Multipole            Electronic (a.u.)      Nuclear  (a.u.)        Total (a.u.)
 ------------------------------------------------------------------------------------

 L = 1.  Multiply by 2.5417464519 to convert [e a0] to [Debye]
 Dipole X            :          0.0000000            0.0000000            0.0000000
 Dipole Y            :          0.0000000            0.0000000            0.0000000
 Dipole Z            :         -0.7522441            0.9354307            0.1831866
 Magnitude           :                                                    0.1831866

 ------------------------------------------------------------------------------------

*** tstop() called on Joses-MacBook-Pro-2.local at Wed Jul 16 19:35:57 2025
Module time:
	user time   =       3.43 seconds =       0.06 minutes
	system time =       3.49 seconds =       0.06 minutes
	total time  =          1 seconds =       0.02 minutes
Total time:
	user time   =      68.26 seconds =       1.14 minutes
	system time =      72.11 seconds =       1.20 minutes
	total time  =         13 seconds =       0.22 minutes

*** tstart() called on Joses-MacBook-Pro-2.local
*** at Wed Jul 16 19:35:57 2025

         ------------------------------------------------------------
                                   SCF GRAD
                          Rob Parrish, Justin Turney,
                       Andy Simmonett, and Alex Sokolov
         ------------------------------------------------------------

  ==> Geometry <==

    Molecular point group: c2v
    Full point group: C_inf_v

    Geometry (in Angstrom), charge = 0, multiplicity = 2:

       Center              X                  Y                   Z               Mass
    ------------   -----------------  -----------------  -----------------  -----------------
         NE           0.000000000000     0.000000000000     1.556415789729    19.992440176200
         P            0.000000000000     0.000000000000    -1.004609952354    30.973761998420

  Nuclear repulsion =   30.994058472805879

  ==> Basis Set <==

  Basis Set: CC-PVDZ
    Blend: CC-PVDZ
    Number of shells: 14
    Number of basis functions: 32
    Number of Cartesian functions: 34
    Spherical Harmonics?: true
    Max angular momentum: 2

  ==> DFJKGrad: Density-Fitted SCF Gradients <==

    Gradient:                    1
    J tasked:                  Yes
    K tasked:                  Yes
    wK tasked:                  No
    OpenMP threads:              1
    Integrals threads:           1
    Memory [MiB]:              375
    Schwarz Cutoff:          1E-12
    Fitting Condition:       1E-10

   => Auxiliary Basis Set <=

  Basis Set: (CC-PVDZ AUX)
    Blend: CC-PVDZ-JKFIT
    Number of shells: 60
    Number of basis functions: 182
    Number of Cartesian functions: 211
    Spherical Harmonics?: true
    Max angular momentum: 3

  ==> DFT Potential <==

   => LibXC <=

    Version 6.2.2
    S. Lehtola, C. Steigemann, M. J.T. Oliveira, and M. A.L. Marques.,  SoftwareX 7, 1â€“5 (2018) (10.1016/j.softx.2017.11.002)

   => Composite Functional: B3LYP <=

    B3LYP Hyb-GGA Exchange-Correlation Functional

    P. J. Stephens, F. J. Devlin, C. F. Chabalowski, and M. J. Frisch.,  J. Phys. Chem. 98, 11623 (1994) (10.1021/j100096a001)

    Deriv               =              1
    GGA                 =           TRUE
    Meta                =          FALSE

    Exchange Hybrid     =           TRUE
    MP2 Hybrid          =          FALSE

   => Exchange Functionals <=

    0.0800   Slater exchange
    0.7200         Becke 88

   => Exact (HF) Exchange <=

    0.2000               HF

   => Correlation Functionals <=

    0.1900   Vosko, Wilk & Nusair (VWN5_RPA)
    0.8100   Lee, Yang & Parr

   => LibXC Density Thresholds  <==

    XC_HYB_GGA_XC_B3LYP:  1.00E-15

   => Molecular Quadrature <=

    Radial Scheme          =       TREUTLER
    Pruning Scheme         =           NONE
    Nuclear Scheme         =       TREUTLER

    Blocking Scheme        =         OCTREE
    BS radius alpha        =              1
    Pruning alpha          =              1
    Radial Points          =             75
    Spherical Points       =            302
    Total Points           =          42771
    Total Blocks           =            384
    Max Points             =            253
    Max Functions          =             32
    Weights Tolerance      =       1.00E-15

  -Total Gradient:
     Atom            X                  Y                   Z
    ------   -----------------  -----------------  -----------------
       1        0.000000000000     0.000000000000    -0.000053358218
       2        0.000000000000    -0.000000000000     0.000040808042

*** tstop() called on Joses-MacBook-Pro-2.local at Wed Jul 16 19:35:57 2025
Module time:
	user time   =       0.82 seconds =       0.01 minutes
	system time =       1.44 seconds =       0.02 minutes
	total time  =          0 seconds =       0.00 minutes
Total time:
	user time   =      69.08 seconds =       1.15 minutes
	system time =      73.55 seconds =       1.23 minutes
	total time  =         13 seconds =       0.22 minutes

    			-----------------------------------------

    			 OPTKING 3.0: for geometry optimizations

    			     By R.A. King, Bethel University

    			        with contributions from

    			    A.V. Copan, J. Cayton, A. Heide

    			-----------------------------------------

	                            ===> Fragment 1 <==

	 Z (Atomic Numbers)          Masses                          Geom
	      10.000000            19.992440          0.00000000  0.00000000  2.94119958
	      15.000000            30.973762          0.00000000  0.00000000 -1.89843767

	 - Coordinate -           - BOHR/RAD -       - ANG/DEG -
	 R(1,2)           =         4.839637           2.561026

	        --- Internal Coordinate Step in ANG or DEG, aJ/ANG or AJ/DEG ---
	-------------------------------------------------------------------------------
	           Coordinate      Previous         Force          Change          New
	           ----------      --------        ------          ------        ------
	               R(1,2)       2.56103        0.00039        0.00233       2.56335
	-------------------------------------------------------------------------------

	                                 ==> Convergence Check <==

	Measures of convergence in internal coordinates in au.

	Criteria marked as inactive (o), active & met (*), and active & unmet ( ).

	----------------------------------------------------------------------------------------------
	   Step    Total Energy     Delta E     Max Force     RMS Force      Max Disp      RMS Disp
	----------------------------------------------------------------------------------------------
	  Convergence Criteria     1.00e-06 *    3.00e-04 *             o    1.20e-03 *             o
	----------------------------------------------------------------------------------------------
	    14    -470.12642559   -5.48e-07 *    4.71e-05 *    4.71e-05 o    4.40e-03      4.40e-03 o  ~
	----------------------------------------------------------------------------------------------

Next Geometry in Ang
	Fragment 1 (Ang)

	   Ne   0.0000000000   0.0000000000   1.5575798204
	    P   0.0000000000   0.0000000000  -1.0057739830

    Final optimized geometry and variables:
    Molecular point group: c2v
    Full point group: C_inf_v

    Geometry (in Angstrom), charge = 0, multiplicity = 2:

    NE           0.000000000000     0.000000000000     1.556415789729
    P            0.000000000000     0.000000000000    -1.004609952354

    Psi4 stopped on: Wednesday, 16 July 2025 07:35PM
    Psi4 wall time for execution: 0:00:14.28

*** Psi4 exiting successfully. Buy a developer a beer!
