                               Psi4 1.9.1 release

  ==> Input File <==

--------------------------------------------------------------------------
molecule {
0 2
O   0.00000        0.60000        0.00000
Al   0.00000       -0.60000        0.00000
}

set {
basis              cc-pvdz
reference          uks
maxiter            500
geom_maxiter       500
DAMPING_PERCENTAGE 1
guess              SAP
}

optimize('b3lyp')
--------------------------------------------------------------------------

    Molecular point group: c2v
  Charge       = 0
  Multiplicity = 2
  Basis Set: CC-PVDZ
    Blend: CC-PVDZ
  Basis Set: (CC-PVDZ AUX)
    Blend: CC-PVDZ-JKFIT
  @DF-UKS Final Energy:  -317.31458016858102
    Total Energy =                       -317.3145801685810738
 Dipole X            :          0.0000000            0.0000000            0.0000000
 Dipole Y            :          0.0000000            0.0000000            0.0000000
 Dipole Z            :         -1.6082735            0.4178188           -1.1904547
 Magnitude           :                                                    1.1904547
    Molecular point group: c2v
  Basis Set: CC-PVDZ
    Blend: CC-PVDZ
  Basis Set: (CC-PVDZ AUX)
    Blend: CC-PVDZ-JKFIT
  Basis Set: CC-PVDZ
    Blend: CC-PVDZ
  Basis Set: (CC-PVDZ AUX)
    Blend: CC-PVDZ-JKFIT
  @DF-UKS Final Energy:  -317.50944877018708
    Total Energy =                       -317.5094487701870776
  Basis Set: CC-PVDZ
    Blend: CC-PVDZ
  Basis Set: (CC-PVDZ AUX)
    Blend: CC-PVDZ-JKFIT
  Basis Set: CC-PVDZ
    Blend: CC-PVDZ
  @DF-UKS Final Energy:  -317.58623419147466
    Total Energy =                       -317.5862341914746594
  @DF-UKS Final Energy:  -317.61060943839811
    Total Energy =                       -317.6106094383981144
  @DF-UKS Final Energy:  -317.62297831920324
    Total Energy =                       -317.6229783192032414
  @DF-UKS Final Energy:  -317.62638333642582
    Total Energy =                       -317.6263833364258176
  @DF-UKS Final Energy:  -317.62772303307042
    Total Energy =                       -317.6277230330704242
  @DF-UKS Final Energy:  -317.62798259337586
    Total Energy =                       -317.6279825933758048
  @DF-UKS Final Energy:  -317.62804369905922
    Total Energy =                       -317.6280436990592193
  Basis Set: (CC-PVDZ AUX)
    Blend: CC-PVDZ-JKFIT
  Basis Set: CC-PVDZ
    Blend: CC-PVDZ
  Basis Set: (CC-PVDZ AUX)
    Blend: CC-PVDZ-JKFIT
  @DF-UKS Final Energy:  -317.62805182272882
    Total Energy =                       -317.6280518227288212
  Basis Set: CC-PVDZ
    Blend: CC-PVDZ
  Basis Set: (CC-PVDZ AUX)
    Blend: CC-PVDZ-JKFIT
  Charge       = 0
  Multiplicity = 2
  Basis Set: CC-PVDZ
    Blend: CC-PVDZ
  Basis Set: (CC-PVDZ AUX)
    Blend: CC-PVDZ-JKFIT

    Orbital Energies [Eh]
    ---------------------

    Alpha Occupied:

       1A1   -56.085696     2A1   -19.121127     3A1    -4.169913
       4A1    -2.722388     1B2    -2.722174     1B1    -2.722174
       5A1    -0.895871     6A1    -0.383377     2B2    -0.287686
       2B1    -0.287686     7A1    -0.274898

    Alpha Virtual:

       3B1    -0.053913     3B2    -0.053913     8A1     0.029034
       9A1     0.154318     4B1     0.211727     4B2     0.211727
      10A1     0.259708     1A2     0.259708    11A1     0.267611
       5B2     0.334025     5B1     0.334025    12A1     0.550075
      13A1     1.046784     6B1     1.070422     6B2     1.070422
      14A1     1.823248    15A1     2.647509     2A2     2.647547
       7B2     2.674906     7B1     2.674906    16A1     2.831747

    Beta Occupied:

       1A1   -56.083938     2A1   -19.107934     3A1    -4.167455
       1B2    -2.720938     1B1    -2.720938     4A1    -2.716773
       5A1    -0.857564     6A1    -0.319379     2B2    -0.274354
       2B1    -0.274354

    Beta Virtual:

       7A1    -0.166919     3B1    -0.037664     3B2    -0.037664
       8A1     0.043153     9A1     0.170784     4B1     0.218834
       4B2     0.218834    10A1     0.267210     1A2     0.267210
      11A1     0.291977     5B2     0.348686     5B1     0.348686
      12A1     0.564937     6B1     1.081061     6B2     1.081061
      13A1     1.092980    14A1     1.847047    15A1     2.656778
       2A2     2.656816     7B2     2.715546     7B1     2.715546
      16A1     2.876462

    Final Occupation by Irrep:
             A1    A2    B1    B2
    DOCC [     6,    0,    2,    2 ]
    SOCC [     1,    0,    0,    0 ]
    NA   [     7,    0,    2,    2 ]
    NB   [     6,    0,    2,    2 ]

  @DF-UKS Final Energy:  -317.62805219836639

   => Energetics <=

    Nuclear Repulsion Energy =             33.1115189575430904
    One-Electron Energy =                -506.8706607785919687
    Two-Electron Energy =                 178.0768708536066072
    DFT Exchange-Correlation Energy =     -21.9457812309241049
    Empirical Dispersion Energy =           0.0000000000000000
    VV10 Nonlocal Energy =                  0.0000000000000000
    Total Energy =                       -317.6280521983663903

  UHF NO Occupations:
  HONO-2 :    2 B2 1.9996421
  HONO-1 :    6 A1 1.9959673
  HONO-0 :    7 A1 1.0000000
  LUNO+0 :    8 A1 0.0040327
  LUNO+1 :    3 B1 0.0003579
  LUNO+2 :    3 B2 0.0003579
  LUNO+3 :    9 A1 0.0001073

Computation Completed

Properties will be evaluated at   0.000000,   0.000000,   0.000000 [a0]

Properties computed using the SCF density matrix

 Multipole Moments:

 ------------------------------------------------------------------------------------
     Multipole            Electronic (a.u.)      Nuclear  (a.u.)        Total (a.u.)
 ------------------------------------------------------------------------------------

 L = 1.  Multiply by 2.5417464519 to convert [e a0] to [Debye]
 Dipole X            :          0.0000000            0.0000000            0.0000000
 Dipole Y            :          0.0000000            0.0000000            0.0000000
 Dipole Z            :         -2.0359789            0.5787115           -1.4572674
 Magnitude           :                                                    1.4572674

 ------------------------------------------------------------------------------------

*** tstop() called on Joses-MacBook-Pro-2.local at Wed Jul 16 19:20:36 2025
Module time:
	user time   =       4.08 seconds =       0.07 minutes
	system time =       3.91 seconds =       0.07 minutes
	total time  =          0 seconds =       0.00 minutes
Total time:
	user time   =      53.23 seconds =       0.89 minutes
	system time =      80.51 seconds =       1.34 minutes
	total time  =         13 seconds =       0.22 minutes

*** tstart() called on Joses-MacBook-Pro-2.local
*** at Wed Jul 16 19:20:36 2025

         ------------------------------------------------------------
                                   SCF GRAD
                          Rob Parrish, Justin Turney,
                       Andy Simmonett, and Alex Sokolov
         ------------------------------------------------------------

  ==> Geometry <==

    Molecular point group: c2v
    Full point group: C_inf_v

    Geometry (in Angstrom), charge = 0, multiplicity = 2:

       Center              X                  Y                   Z               Mass
    ------------   -----------------  -----------------  -----------------  -----------------
         O            0.000000000000     0.000000000000     1.043497728357    15.994914619570
         AL           0.000000000000     0.000000000000    -0.618595453785    26.981538530000

  Nuclear repulsion =   33.111518957543090

  ==> Basis Set <==

  Basis Set: CC-PVDZ
    Blend: CC-PVDZ
    Number of shells: 14
    Number of basis functions: 32
    Number of Cartesian functions: 34
    Spherical Harmonics?: true
    Max angular momentum: 2

  ==> DFJKGrad: Density-Fitted SCF Gradients <==

    Gradient:                    1
    J tasked:                  Yes
    K tasked:                  Yes
    wK tasked:                  No
    OpenMP threads:              1
    Integrals threads:           1
    Memory [MiB]:              375
    Schwarz Cutoff:          1E-12
    Fitting Condition:       1E-10

   => Auxiliary Basis Set <=

  Basis Set: (CC-PVDZ AUX)
    Blend: CC-PVDZ-JKFIT
    Number of shells: 60
    Number of basis functions: 182
    Number of Cartesian functions: 211
    Spherical Harmonics?: true
    Max angular momentum: 3

  ==> DFT Potential <==

   => LibXC <=

    Version 6.2.2
    S. Lehtola, C. Steigemann, M. J.T. Oliveira, and M. A.L. Marques.,  SoftwareX 7, 1â€“5 (2018) (10.1016/j.softx.2017.11.002)

   => Composite Functional: B3LYP <=

    B3LYP Hyb-GGA Exchange-Correlation Functional

    P. J. Stephens, F. J. Devlin, C. F. Chabalowski, and M. J. Frisch.,  J. Phys. Chem. 98, 11623 (1994) (10.1021/j100096a001)

    Deriv               =              1
    GGA                 =           TRUE
    Meta                =          FALSE

    Exchange Hybrid     =           TRUE
    MP2 Hybrid          =          FALSE

   => Exchange Functionals <=

    0.0800   Slater exchange
    0.7200         Becke 88

   => Exact (HF) Exchange <=

    0.2000               HF

   => Correlation Functionals <=

    0.1900   Vosko, Wilk & Nusair (VWN5_RPA)
    0.8100   Lee, Yang & Parr

   => LibXC Density Thresholds  <==

    XC_HYB_GGA_XC_B3LYP:  1.00E-15

   => Molecular Quadrature <=

    Radial Scheme          =       TREUTLER
    Pruning Scheme         =           NONE
    Nuclear Scheme         =       TREUTLER

    Blocking Scheme        =         OCTREE
    BS radius alpha        =              1
    Pruning alpha          =              1
    Radial Points          =             75
    Spherical Points       =            302
    Total Points           =          43425
    Total Blocks           =            404
    Max Points             =            256
    Max Functions          =             32
    Weights Tolerance      =       1.00E-15

  -Total Gradient:
     Atom            X                  Y                   Z
    ------   -----------------  -----------------  -----------------
       1        0.000000000000     0.000000000000    -0.000097567473
       2        0.000000000000    -0.000000000000     0.000050852448

*** tstop() called on Joses-MacBook-Pro-2.local at Wed Jul 16 19:20:37 2025
Module time:
	user time   =       0.90 seconds =       0.01 minutes
	system time =       1.54 seconds =       0.03 minutes
	total time  =          1 seconds =       0.02 minutes
Total time:
	user time   =      54.14 seconds =       0.90 minutes
	system time =      82.05 seconds =       1.37 minutes
	total time  =         14 seconds =       0.23 minutes

    			-----------------------------------------

    			 OPTKING 3.0: for geometry optimizations

    			     By R.A. King, Bethel University

    			        with contributions from

    			    A.V. Copan, J. Cayton, A. Heide

    			-----------------------------------------

	                            ===> Fragment 1 <==

	 Z (Atomic Numbers)          Masses                          Geom
	       8.000000            15.994915          0.00000000  0.00000000  1.97192492
	      13.000000            26.981539          0.00000000  0.00000000 -1.16897599

	 - Coordinate -           - BOHR/RAD -       - ANG/DEG -
	 R(1,2)           =         3.140901           1.662093

	        --- Internal Coordinate Step in ANG or DEG, aJ/ANG or AJ/DEG ---
	-------------------------------------------------------------------------------
	           Coordinate      Previous         Force          Change          New
	           ----------      --------        ------          ------        ------
	               R(1,2)       1.66209        0.00061        0.00012       1.66221
	-------------------------------------------------------------------------------

	                                 ==> Convergence Check <==

	Measures of convergence in internal coordinates in au.

	Criteria marked as inactive (o), active & met (*), and active & unmet ( ).

	----------------------------------------------------------------------------------------------
	   Step    Total Energy     Delta E     Max Force     RMS Force      Max Disp      RMS Disp
	----------------------------------------------------------------------------------------------
	  Convergence Criteria     1.00e-06 *    3.00e-04 *             o    1.20e-03 *             o
	----------------------------------------------------------------------------------------------
	    11    -317.62805220   -3.76e-07 *    7.42e-05 *    7.42e-05 o    2.23e-04 *    2.23e-04 o  ~
	----------------------------------------------------------------------------------------------

Next Geometry in Ang
	Fragment 1 (Ang)

	    O   0.0000000000   0.0000000000   1.0435568013
	   Al   0.0000000000   0.0000000000  -0.6186545268

    Final optimized geometry and variables:
    Molecular point group: c2v
    Full point group: C_inf_v

    Geometry (in Angstrom), charge = 0, multiplicity = 2:

    O            0.000000000000     0.000000000000     1.043497728357
    AL           0.000000000000     0.000000000000    -0.618595453785

    Psi4 stopped on: Wednesday, 16 July 2025 07:20PM
    Psi4 wall time for execution: 0:00:14.64

*** Psi4 exiting successfully. Buy a developer a beer!
