                               Psi4 1.9.1 release

  ==> Input File <==

--------------------------------------------------------------------------
molecule {
0 2
He   0.00000        0.60000        0.00000
F   0.00000       -0.60000        0.00000
}

set {
basis              cc-pvdz
reference          uks
maxiter            500
geom_maxiter       500
DAMPING_PERCENTAGE 1
guess              SAP
}

optimize('b3lyp')
--------------------------------------------------------------------------

    Molecular point group: c2v
  Charge       = 0
  Multiplicity = 2
  Basis Set: CC-PVDZ
    Blend: CC-PVDZ
  Basis Set: (CC-PVDZ AUX)
    Blend: CC-PVDZ-JKFIT + DEF2-UNIVERSAL-JKFIT
  @DF-UKS Final Energy:  -102.54841169441787
    Total Energy =                       -102.5484116944178794
 Dipole X            :          0.0000000            0.0000000            0.0000000
 Dipole Y            :          0.0000000            0.0000000            0.0000000
 Dipole Z            :          0.1461714            0.1945554            0.3407268
 Magnitude           :                                                    0.3407268
    Molecular point group: c2v
  Basis Set: CC-PVDZ
    Blend: CC-PVDZ
  Basis Set: (CC-PVDZ AUX)
    Blend: CC-PVDZ-JKFIT + DEF2-UNIVERSAL-JKFIT
  Basis Set: CC-PVDZ
    Blend: CC-PVDZ
  Basis Set: (CC-PVDZ AUX)
    Blend: CC-PVDZ-JKFIT + DEF2-UNIVERSAL-JKFIT
  @DF-UKS Final Energy:  -102.60755392194119
    Total Energy =                       -102.6075539219411894
  Basis Set: CC-PVDZ
    Blend: CC-PVDZ
  Basis Set: (CC-PVDZ AUX)
    Blend: CC-PVDZ-JKFIT + DEF2-UNIVERSAL-JKFIT
  Basis Set: CC-PVDZ
    Blend: CC-PVDZ
  @DF-UKS Final Energy:  -102.61902043624734
    Total Energy =                       -102.6190204362473537
  @DF-UKS Final Energy:  -102.62725052209329
    Total Energy =                       -102.6272505220932914
  @DF-UKS Final Energy:  -102.63079879747553
    Total Energy =                       -102.6307987974755491
  @DF-UKS Final Energy:  -102.63253589494400
    Total Energy =                       -102.6325358949439845
  @DF-UKS Final Energy:  -102.63332862623280
    Total Energy =                       -102.6333286262327960
  @DF-UKS Final Energy:  -102.63359868722665
    Total Energy =                       -102.6335986872266517
  @DF-UKS Final Energy:  -102.63375271097129
    Total Energy =                       -102.6337527109712937
  @DF-UKS Final Energy:  -102.63382608117632
    Total Energy =                       -102.6338260811763377
  @DF-UKS Final Energy:  -102.63384824212390
    Total Energy =                       -102.6338482421239036
  @DF-UKS Final Energy:  -102.63385809580191
    Total Energy =                       -102.6338580958018980
  @DF-UKS Final Energy:  -102.63386117712790
    Total Energy =                       -102.6338611771278835
  Basis Set: (CC-PVDZ AUX)
    Blend: CC-PVDZ-JKFIT + DEF2-UNIVERSAL-JKFIT
  Basis Set: CC-PVDZ
    Blend: CC-PVDZ
  Basis Set: (CC-PVDZ AUX)
    Blend: CC-PVDZ-JKFIT + DEF2-UNIVERSAL-JKFIT
  @DF-UKS Final Energy:  -102.63386250397400
    Total Energy =                       -102.6338625039740009
  Basis Set: CC-PVDZ
    Blend: CC-PVDZ
  Basis Set: (CC-PVDZ AUX)
    Blend: CC-PVDZ-JKFIT + DEF2-UNIVERSAL-JKFIT
  Charge       = 0
  Multiplicity = 2
  Basis Set: CC-PVDZ
    Blend: CC-PVDZ
  Basis Set: (CC-PVDZ AUX)
    Blend: CC-PVDZ-JKFIT + DEF2-UNIVERSAL-JKFIT

    Orbital Energies [Eh]
    ---------------------

    Alpha Occupied:

       1A1   -24.780267     2A1    -1.210389     3A1    -0.657506
       4A1    -0.536728     1B1    -0.448413     1B2    -0.448413

    Alpha Virtual:

       5A1     0.970277     2B1     1.091895     2B2     1.091895
       6A1     1.184620     7A1     1.441968     3B2     2.182854
       3B1     2.182854     8A1     2.186392     9A1     3.440498
       4B1     3.462053     4B2     3.462053    10A1     3.531459
       1A2     3.531468

    Beta Occupied:

       1A1   -24.749616     2A1    -1.119639     3A1    -0.656386
       1B1    -0.417083     1B2    -0.417083

    Beta Virtual:

       4A1    -0.243550     5A1     1.031004     2B1     1.109848
       2B2     1.109848     6A1     1.236626     7A1     1.487090
       3B2     2.183158     3B1     2.183158     8A1     2.186996
       9A1     3.546602     1A2     3.546610     4B1     3.557066
       4B2     3.557066    10A1     3.576834

    Final Occupation by Irrep:
             A1    A2    B1    B2
    DOCC [     3,    0,    1,    1 ]
    SOCC [     1,    0,    0,    0 ]
    NA   [     4,    0,    1,    1 ]
    NB   [     3,    0,    1,    1 ]

  @DF-UKS Final Energy:  -102.63386289443758

   => Energetics <=

    Nuclear Repulsion Energy =              3.7987855438103795
    One-Electron Energy =                -150.7696019171160913
    Two-Electron Energy =                  53.6019559181526688
    DFT Exchange-Correlation Energy =      -9.2650024392845207
    Empirical Dispersion Energy =           0.0000000000000000
    VV10 Nonlocal Energy =                  0.0000000000000000
    Total Energy =                       -102.6338628944375699

  UHF NO Occupations:
  HONO-2 :    1 B1 1.9999452
  HONO-1 :    3 A1 1.9996934
  HONO-0 :    4 A1 1.0000000
  LUNO+0 :    5 A1 0.0003066
  LUNO+1 :    2 B2 0.0000548
  LUNO+2 :    2 B1 0.0000548
  LUNO+3 :    6 A1 0.0000009

Computation Completed

Properties will be evaluated at   0.000000,   0.000000,   0.000000 [a0]

Properties computed using the SCF density matrix

 Multipole Moments:

 ------------------------------------------------------------------------------------
     Multipole            Electronic (a.u.)      Nuclear  (a.u.)        Total (a.u.)
 ------------------------------------------------------------------------------------

 L = 1.  Multiply by 2.5417464519 to convert [e a0] to [Debye]
 Dipole X            :          0.0000000            0.0000000            0.0000000
 Dipole Y            :          0.0000000            0.0000000            0.0000000
 Dipole Z            :         -0.3995459            0.4065285            0.0069826
 Magnitude           :                                                    0.0069826

 ------------------------------------------------------------------------------------

*** tstop() called on Joses-MacBook-Pro-2.local at Wed Jul 16 18:21:26 2025
Module time:
	user time   =       0.78 seconds =       0.01 minutes
	system time =       2.74 seconds =       0.05 minutes
	total time  =          1 seconds =       0.02 minutes
Total time:
	user time   =      19.37 seconds =       0.32 minutes
	system time =      57.12 seconds =       0.95 minutes
	total time  =          9 seconds =       0.15 minutes

*** tstart() called on Joses-MacBook-Pro-2.local
*** at Wed Jul 16 18:21:26 2025

         ------------------------------------------------------------
                                   SCF GRAD
                          Rob Parrish, Justin Turney,
                       Andy Simmonett, and Alex Sokolov
         ------------------------------------------------------------

  ==> Geometry <==

    Molecular point group: c2v
    Full point group: C_inf_v

    Geometry (in Angstrom), charge = 0, multiplicity = 2:

       Center              X                  Y                   Z               Mass
    ------------   -----------------  -----------------  -----------------  -----------------
         HE           0.000000000000     0.000000000000     2.071090714894     4.002603254130
         F            0.000000000000     0.000000000000    -0.436339536751    18.998403162730

  Nuclear repulsion =    3.798785543810379

  ==> Basis Set <==

  Basis Set: CC-PVDZ
    Blend: CC-PVDZ
    Number of shells: 9
    Number of basis functions: 19
    Number of Cartesian functions: 20
    Spherical Harmonics?: true
    Max angular momentum: 2

  ==> DFJKGrad: Density-Fitted SCF Gradients <==

    Gradient:                    1
    J tasked:                  Yes
    K tasked:                  Yes
    wK tasked:                  No
    OpenMP threads:              1
    Integrals threads:           1
    Memory [MiB]:              375
    Schwarz Cutoff:          1E-12
    Fitting Condition:       1E-10

   => Auxiliary Basis Set <=

  Basis Set: (CC-PVDZ AUX)
    Blend: CC-PVDZ-JKFIT + DEF2-UNIVERSAL-JKFIT
    Number of shells: 33
    Number of basis functions: 93
    Number of Cartesian functions: 106
    Spherical Harmonics?: true
    Max angular momentum: 3

  ==> DFT Potential <==

   => LibXC <=

    Version 6.2.2
    S. Lehtola, C. Steigemann, M. J.T. Oliveira, and M. A.L. Marques.,  SoftwareX 7, 1â€“5 (2018) (10.1016/j.softx.2017.11.002)

   => Composite Functional: B3LYP <=

    B3LYP Hyb-GGA Exchange-Correlation Functional

    P. J. Stephens, F. J. Devlin, C. F. Chabalowski, and M. J. Frisch.,  J. Phys. Chem. 98, 11623 (1994) (10.1021/j100096a001)

    Deriv               =              1
    GGA                 =           TRUE
    Meta                =          FALSE

    Exchange Hybrid     =           TRUE
    MP2 Hybrid          =          FALSE

   => Exchange Functionals <=

    0.0800   Slater exchange
    0.7200         Becke 88

   => Exact (HF) Exchange <=

    0.2000               HF

   => Correlation Functionals <=

    0.1900   Vosko, Wilk & Nusair (VWN5_RPA)
    0.8100   Lee, Yang & Parr

   => LibXC Density Thresholds  <==

    XC_HYB_GGA_XC_B3LYP:  1.00E-15

   => Molecular Quadrature <=

    Radial Scheme          =       TREUTLER
    Pruning Scheme         =           NONE
    Nuclear Scheme         =       TREUTLER

    Blocking Scheme        =         OCTREE
    BS radius alpha        =              1
    Pruning alpha          =              1
    Radial Points          =             75
    Spherical Points       =            302
    Total Points           =          43400
    Total Blocks           =            384
    Max Points             =            255
    Max Functions          =             19
    Weights Tolerance      =       1.00E-15

  -Total Gradient:
     Atom            X                  Y                   Z
    ------   -----------------  -----------------  -----------------
       1        0.000000000000    -0.000000000000    -0.000013247225
       2       -0.000000000000     0.000000000000     0.000006802611

*** tstop() called on Joses-MacBook-Pro-2.local at Wed Jul 16 18:21:26 2025
Module time:
	user time   =       0.32 seconds =       0.01 minutes
	system time =       0.47 seconds =       0.01 minutes
	total time  =          0 seconds =       0.00 minutes
Total time:
	user time   =      19.69 seconds =       0.33 minutes
	system time =      57.59 seconds =       0.96 minutes
	total time  =          9 seconds =       0.15 minutes

    			-----------------------------------------

    			 OPTKING 3.0: for geometry optimizations

    			     By R.A. King, Bethel University

    			        with contributions from

    			    A.V. Copan, J. Cayton, A. Heide

    			-----------------------------------------

	                            ===> Fragment 1 <==

	 Z (Atomic Numbers)          Masses                          Geom
	       2.000000             4.002603          0.00000000  0.00000000  3.91379423
	       9.000000            18.998403          0.00000000  0.00000000 -0.82456222

	 - Coordinate -           - BOHR/RAD -       - ANG/DEG -
	 R(1,2)           =         4.738356           2.507430

	        --- Internal Coordinate Step in ANG or DEG, aJ/ANG or AJ/DEG ---
	-------------------------------------------------------------------------------
	           Coordinate      Previous         Force          Change          New
	           ----------      --------        ------          ------        ------
	               R(1,2)       2.50743        0.00008        0.00423       2.51166
	-------------------------------------------------------------------------------

	                                 ==> Convergence Check <==

	Measures of convergence in internal coordinates in au.

	Criteria marked as inactive (o), active & met (*), and active & unmet ( ).

	----------------------------------------------------------------------------------------------
	   Step    Total Energy     Delta E     Max Force     RMS Force      Max Disp      RMS Disp
	----------------------------------------------------------------------------------------------
	  Convergence Criteria     1.00e-06 *    3.00e-04 *             o    1.20e-03 *             o
	----------------------------------------------------------------------------------------------
	    15    -102.63386289   -3.90e-07 *    1.00e-05 *    1.00e-05 o    8.00e-03      8.00e-03 o  ~
	----------------------------------------------------------------------------------------------

Next Geometry in Ang
	Fragment 1 (Ang)

	   He   0.0000000000   0.0000000000   2.0732068042
	    F   0.0000000000   0.0000000000  -0.4384556261

    Final optimized geometry and variables:
    Molecular point group: c2v
    Full point group: C_inf_v

    Geometry (in Angstrom), charge = 0, multiplicity = 2:

    HE           0.000000000000     0.000000000000     2.071090714894
    F            0.000000000000     0.000000000000    -0.436339536751

    Psi4 stopped on: Wednesday, 16 July 2025 06:21PM
    Psi4 wall time for execution: 0:00:09.38

*** Psi4 exiting successfully. Buy a developer a beer!
