                               Psi4 1.9.1 release

  ==> Input File <==

--------------------------------------------------------------------------
molecule {
0 2
N   0.00000        0.60000        0.00000
Ne   0.00000       -0.60000        0.00000
}

set {
basis              cc-pvdz
reference          uks
maxiter            500
geom_maxiter       500
DAMPING_PERCENTAGE 1
guess              SAP
}

optimize('b3lyp')
--------------------------------------------------------------------------

    Molecular point group: c2v
  Charge       = 0
  Multiplicity = 2
  Basis Set: CC-PVDZ
    Blend: CC-PVDZ
  Basis Set: (CC-PVDZ AUX)
    Blend: CC-PVDZ-JKFIT
  @DF-UKS Final Energy:  -183.22006393126742
    Total Energy =                       -183.2200639312674468
 Dipole X            :          0.0000000            0.0000000            0.0000000
 Dipole Y            :          0.0000000            0.0000000            0.0000000
 Dipole Z            :         -1.2570470           -0.0055805           -1.2626274
 Magnitude           :                                                    1.2626274
    Molecular point group: c2v
  Basis Set: CC-PVDZ
    Blend: CC-PVDZ
  Basis Set: (CC-PVDZ AUX)
    Blend: CC-PVDZ-JKFIT
  Basis Set: CC-PVDZ
    Blend: CC-PVDZ
  Basis Set: (CC-PVDZ AUX)
    Blend: CC-PVDZ-JKFIT
  @DF-UKS Final Energy:  -183.32584834344277
    Total Energy =                       -183.3258483434427717
  Basis Set: CC-PVDZ
    Blend: CC-PVDZ
  Basis Set: (CC-PVDZ AUX)
    Blend: CC-PVDZ-JKFIT
  Basis Set: CC-PVDZ
    Blend: CC-PVDZ
  @DF-UKS Final Energy:  -183.36283083886849
    Total Energy =                       -183.3628308388684900
  @DF-UKS Final Energy:  -183.38369449811228
    Total Energy =                       -183.3836944981122770
  @DF-UKS Final Energy:  -183.39258030713430
    Total Energy =                       -183.3925803071342955
  @DF-UKS Final Energy:  -183.39633966820946
    Total Energy =                       -183.3963396682094640
  @DF-UKS Final Energy:  -183.39746109746494
    Total Energy =                       -183.3974610974649408
  @DF-UKS Final Energy:  -183.39800667745106
    Total Energy =                       -183.3980066774510362
  @DF-UKS Final Energy:  -183.39816554133833
    Total Energy =                       -183.3981655413383578
  @DF-UKS Final Energy:  -183.39823324838315
    Total Energy =                       -183.3982332483831783
  @DF-UKS Final Energy:  -183.39824733345375
    Total Energy =                       -183.3982473334537815
  Basis Set: (CC-PVDZ AUX)
    Blend: CC-PVDZ-JKFIT
  Basis Set: CC-PVDZ
    Blend: CC-PVDZ
  Basis Set: (CC-PVDZ AUX)
    Blend: CC-PVDZ-JKFIT
  @DF-UKS Final Energy:  -183.39825094372645
    Total Energy =                       -183.3982509437264810
  Basis Set: CC-PVDZ
    Blend: CC-PVDZ
  Basis Set: (CC-PVDZ AUX)
    Blend: CC-PVDZ-JKFIT
  Charge       = 0
  Multiplicity = 2
  Basis Set: CC-PVDZ
    Blend: CC-PVDZ
  Basis Set: (CC-PVDZ AUX)
    Blend: CC-PVDZ-JKFIT

    Orbital Energies [Eh]
    ---------------------

    Alpha Occupied:

       1A1   -31.008136     2A1   -14.441037     3A1    -1.469265
       4A1    -0.747079     5A1    -0.576984     1B1    -0.575636
       1B2    -0.574775     2B1    -0.329403     2B2    -0.263146

    Alpha Virtual:

       6A1    -0.181558     3B1     0.662881     3B2     0.704932
       7A1     0.725792     8A1     0.804921     4B1     1.337856
       4B2     1.340750     9A1     1.383469    10A1     1.695034
       5B1     1.702528     1A2     1.733278    11A1     1.744789
       5B2     1.750853    12A1     2.113801     6B1     4.687476
       6B2     4.688020    13A1     4.690137     2A2     4.690221
      14A1     4.699271

    Beta Occupied:

       1A1   -31.008150     2A1   -14.421363     3A1    -1.469337
       4A1    -0.682153     1B1    -0.575119     1B2    -0.574813
       5A1    -0.572592     2B2    -0.241976

    Beta Virtual:

       6A1    -0.158178     2B1    -0.108673     3B2     0.717310
       7A1     0.739754     3B1     0.749669     8A1     0.837756
       4B1     1.340627     4B2     1.340957     9A1     1.390222
      10A1     1.720377     5B2     1.759587     5B1     1.781892
       1A2     1.799816    11A1     1.809971    12A1     2.124548
       6B1     4.687413     6B2     4.687783    13A1     4.690285
       2A2     4.690365    14A1     4.699087

    Final Occupation by Irrep:
             A1    A2    B1    B2
    DOCC [     5,    0,    1,    2 ]
    SOCC [     0,    0,    1,    0 ]
    NA   [     5,    0,    2,    2 ]
    NB   [     5,    0,    1,    2 ]

  @DF-UKS Final Energy:  -183.39825146949164

   => Energetics <=

    Nuclear Repulsion Energy =             17.1983573861818897
    One-Electron Energy =                -290.5012567950204243
    Two-Electron Energy =                 105.4556789159097576
    DFT Exchange-Correlation Energy =     -15.5510309765628421
    Empirical Dispersion Energy =           0.0000000000000000
    VV10 Nonlocal Energy =                  0.0000000000000000
    Total Energy =                       -183.3982514694916404

  UHF NO Occupations:
  HONO-2 :    2 B2 1.9999344
  HONO-1 :    5 A1 1.9993883
  HONO-0 :    2 B1 1.0000000
  LUNO+0 :    6 A1 0.0006117
  LUNO+1 :    3 B2 0.0000656
  LUNO+2 :    7 A1 0.0000262
  LUNO+3 :    3 B1 0.0000005

Computation Completed

Properties will be evaluated at   0.000000,   0.000000,   0.000000 [a0]

Properties computed using the SCF density matrix

 Multipole Moments:

 ------------------------------------------------------------------------------------
     Multipole            Electronic (a.u.)      Nuclear  (a.u.)        Total (a.u.)
 ------------------------------------------------------------------------------------

 L = 1.  Multiply by 2.5417464519 to convert [e a0] to [Debye]
 Dipole X            :          0.0000000            0.0000000            0.0000000
 Dipole Y            :          0.0000000            0.0000000            0.0000000
 Dipole Z            :         -0.1878763           -0.0100162           -0.1978925
 Magnitude           :                                                    0.1978925

 ------------------------------------------------------------------------------------

*** tstop() called on Joses-MacBook-Pro-2.local at Wed Jul 16 19:08:38 2025
Module time:
	user time   =       4.77 seconds =       0.08 minutes
	system time =       2.08 seconds =       0.03 minutes
	total time  =          1 seconds =       0.02 minutes
Total time:
	user time   =      75.45 seconds =       1.26 minutes
	system time =      56.09 seconds =       0.93 minutes
	total time  =         13 seconds =       0.22 minutes

*** tstart() called on Joses-MacBook-Pro-2.local
*** at Wed Jul 16 19:08:38 2025

         ------------------------------------------------------------
                                   SCF GRAD
                          Rob Parrish, Justin Turney,
                       Andy Simmonett, and Alex Sokolov
         ------------------------------------------------------------

  ==> Geometry <==

    Molecular point group: c2v
    Full point group: C_inf_v

    Geometry (in Angstrom), charge = 0, multiplicity = 2:

       Center              X                  Y                   Z               Mass
    ------------   -----------------  -----------------  -----------------  -----------------
         N            0.000000000000     0.000000000000     1.266649319763    14.003074004430
         NE           0.000000000000     0.000000000000    -0.887184556061    19.992440176200

  Nuclear repulsion =   17.198357386181890

  ==> Basis Set <==

  Basis Set: CC-PVDZ
    Blend: CC-PVDZ
    Number of shells: 12
    Number of basis functions: 28
    Number of Cartesian functions: 30
    Spherical Harmonics?: true
    Max angular momentum: 2

  ==> DFJKGrad: Density-Fitted SCF Gradients <==

    Gradient:                    1
    J tasked:                  Yes
    K tasked:                  Yes
    wK tasked:                  No
    OpenMP threads:              1
    Integrals threads:           1
    Memory [MiB]:              375
    Schwarz Cutoff:          1E-12
    Fitting Condition:       1E-10

   => Auxiliary Basis Set <=

  Basis Set: (CC-PVDZ AUX)
    Blend: CC-PVDZ-JKFIT
    Number of shells: 48
    Number of basis functions: 140
    Number of Cartesian functions: 162
    Spherical Harmonics?: true
    Max angular momentum: 3

  ==> DFT Potential <==

   => LibXC <=

    Version 6.2.2
    S. Lehtola, C. Steigemann, M. J.T. Oliveira, and M. A.L. Marques.,  SoftwareX 7, 1â€“5 (2018) (10.1016/j.softx.2017.11.002)

   => Composite Functional: B3LYP <=

    B3LYP Hyb-GGA Exchange-Correlation Functional

    P. J. Stephens, F. J. Devlin, C. F. Chabalowski, and M. J. Frisch.,  J. Phys. Chem. 98, 11623 (1994) (10.1021/j100096a001)

    Deriv               =              1
    GGA                 =           TRUE
    Meta                =          FALSE

    Exchange Hybrid     =           TRUE
    MP2 Hybrid          =          FALSE

   => Exchange Functionals <=

    0.0800   Slater exchange
    0.7200         Becke 88

   => Exact (HF) Exchange <=

    0.2000               HF

   => Correlation Functionals <=

    0.1900   Vosko, Wilk & Nusair (VWN5_RPA)
    0.8100   Lee, Yang & Parr

   => LibXC Density Thresholds  <==

    XC_HYB_GGA_XC_B3LYP:  1.00E-15

   => Molecular Quadrature <=

    Radial Scheme          =       TREUTLER
    Pruning Scheme         =           NONE
    Nuclear Scheme         =       TREUTLER

    Blocking Scheme        =         OCTREE
    BS radius alpha        =              1
    Pruning alpha          =              1
    Radial Points          =             75
    Spherical Points       =            302
    Total Points           =          42816
    Total Blocks           =            377
    Max Points             =            256
    Max Functions          =             28
    Weights Tolerance      =       1.00E-15

  -Total Gradient:
     Atom            X                  Y                   Z
    ------   -----------------  -----------------  -----------------
       1        0.000000000000     0.000000000000    -0.000044032481
       2        0.000000000000    -0.000000000000     0.000013927741

*** tstop() called on Joses-MacBook-Pro-2.local at Wed Jul 16 19:08:38 2025
Module time:
	user time   =       0.75 seconds =       0.01 minutes
	system time =       1.20 seconds =       0.02 minutes
	total time  =          0 seconds =       0.00 minutes
Total time:
	user time   =      76.22 seconds =       1.27 minutes
	system time =      57.29 seconds =       0.95 minutes
	total time  =         13 seconds =       0.22 minutes

    			-----------------------------------------

    			 OPTKING 3.0: for geometry optimizations

    			     By R.A. King, Bethel University

    			        with contributions from

    			    A.V. Copan, J. Cayton, A. Heide

    			-----------------------------------------

	                            ===> Fragment 1 <==

	 Z (Atomic Numbers)          Masses                          Geom
	       7.000000            14.003074          0.00000000  0.00000000  2.39362031
	      10.000000            19.992440          0.00000000  0.00000000 -1.67653583

	 - Coordinate -           - BOHR/RAD -       - ANG/DEG -
	 R(1,2)           =         4.070156           2.153834

	        --- Internal Coordinate Step in ANG or DEG, aJ/ANG or AJ/DEG ---
	-------------------------------------------------------------------------------
	           Coordinate      Previous         Force          Change          New
	           ----------      --------        ------          ------        ------
	               R(1,2)       2.15383        0.00024        0.00099       2.15483
	-------------------------------------------------------------------------------

	                                 ==> Convergence Check <==

	Measures of convergence in internal coordinates in au.

	Criteria marked as inactive (o), active & met (*), and active & unmet ( ).

	----------------------------------------------------------------------------------------------
	   Step    Total Energy     Delta E     Max Force     RMS Force      Max Disp      RMS Disp
	----------------------------------------------------------------------------------------------
	  Convergence Criteria     1.00e-06 *    3.00e-04 *             o    1.20e-03 *             o
	----------------------------------------------------------------------------------------------
	    13    -183.39825147   -5.26e-07 *    2.90e-05 *    2.90e-05 o    1.88e-03      1.88e-03 o  ~
	----------------------------------------------------------------------------------------------

Next Geometry in Ang
	Fragment 1 (Ang)

	    N   0.0000000000   0.0000000000   1.2671464907
	   Ne   0.0000000000   0.0000000000  -0.8876817270

    Final optimized geometry and variables:
    Molecular point group: c2v
    Full point group: C_inf_v

    Geometry (in Angstrom), charge = 0, multiplicity = 2:

    N            0.000000000000     0.000000000000     1.266649319763
    NE           0.000000000000     0.000000000000    -0.887184556061

    Psi4 stopped on: Wednesday, 16 July 2025 07:08PM
    Psi4 wall time for execution: 0:00:14.07

*** Psi4 exiting successfully. Buy a developer a beer!
