                               Psi4 1.9.1 release

  ==> Input File <==

--------------------------------------------------------------------------
molecule {
0 2
N   0.00000        0.60000        0.00000
Ar   0.00000       -0.60000        0.00000
}

set {
basis              cc-pvdz
reference          uks
maxiter            500
geom_maxiter       500
DAMPING_PERCENTAGE 1
guess              SAP
}

optimize('b3lyp')
--------------------------------------------------------------------------

    Molecular point group: c2v
  Charge       = 0
  Multiplicity = 2
  Basis Set: CC-PVDZ
    Blend: CC-PVDZ
  Basis Set: (CC-PVDZ AUX)
    Blend: CC-PVDZ-JKFIT
  @DF-UKS Final Energy:  -581.66048883544227
    Total Energy =                       -581.6604888354423792
 Dipole X            :          0.0000000            0.0000000            0.0000000
 Dipole Y            :          0.0000000            0.0000000            0.0000000
 Dipole Z            :         -2.6293199            1.1631923           -1.4661276
 Magnitude           :                                                    1.4661276
    Molecular point group: c2v
  Basis Set: CC-PVDZ
    Blend: CC-PVDZ
  Basis Set: (CC-PVDZ AUX)
    Blend: CC-PVDZ-JKFIT
  Basis Set: CC-PVDZ
    Blend: CC-PVDZ
  Basis Set: (CC-PVDZ AUX)
    Blend: CC-PVDZ-JKFIT
  @DF-UKS Final Energy:  -581.82758224213285
    Total Energy =                       -581.8275822421328485
  Basis Set: CC-PVDZ
    Blend: CC-PVDZ
  Basis Set: (CC-PVDZ AUX)
    Blend: CC-PVDZ-JKFIT
  Basis Set: CC-PVDZ
    Blend: CC-PVDZ
  @DF-UKS Final Energy:  -581.92232834982599
    Total Energy =                       -581.9223283498259889
  @DF-UKS Final Energy:  -581.96370195185568
    Total Energy =                       -581.9637019518556826
  @DF-UKS Final Energy:  -581.99365654954727
    Total Energy =                       -581.9936565495472678
  @DF-UKS Final Energy:  -582.01328817136471
    Total Energy =                       -582.0132881713647066
  @DF-UKS Final Energy:  -582.02369187086322
    Total Energy =                       -582.0236918708631038
  @DF-UKS Final Energy:  -582.02893735768248
    Total Energy =                       -582.0289373576824801
  @DF-UKS Final Energy:  -582.03135147915077
    Total Energy =                       -582.0313514791507714
  @DF-UKS Final Energy:  -582.03230103138833
    Total Energy =                       -582.0323010313883287
  @DF-UKS Final Energy:  -582.03260665180437
    Total Energy =                       -582.0326066518044854
  @DF-UKS Final Energy:  -582.03266886995073
    Total Energy =                       -582.0326688699507258
  @DF-UKS Final Energy:  -582.03268330415017
    Total Energy =                       -582.0326833041501686
  Basis Set: (CC-PVDZ AUX)
    Blend: CC-PVDZ-JKFIT
  Basis Set: CC-PVDZ
    Blend: CC-PVDZ
  Basis Set: (CC-PVDZ AUX)
    Blend: CC-PVDZ-JKFIT
  @DF-UKS Final Energy:  -582.03268741158786
    Total Energy =                       -582.0326874115878582
  Basis Set: CC-PVDZ
    Blend: CC-PVDZ
  Basis Set: (CC-PVDZ AUX)
    Blend: CC-PVDZ-JKFIT
  Charge       = 0
  Multiplicity = 2
  Basis Set: CC-PVDZ
    Blend: CC-PVDZ
  Basis Set: (CC-PVDZ AUX)
    Blend: CC-PVDZ-JKFIT

    Orbital Energies [Eh]
    ---------------------

    Alpha Occupied:

       1A1  -115.145524     2A1   -14.413576     3A1   -11.181473
       4A1    -8.732912     1B2    -8.730673     1B1    -8.730281
       5A1    -1.008752     6A1    -0.729855     7A1    -0.464950
       2B2    -0.460912     2B1    -0.458679     3B2    -0.308265
       3B1    -0.243437

    Alpha Virtual:

       8A1    -0.152203     4B2     0.544006     4B1     0.551502
       9A1     0.565516     5B2     0.676864    10A1     0.701197
       5B1     0.703519    11A1     0.730396    12A1     0.786692
       1A2     0.798721    13A1     0.798732     6B2     0.833949
       6B1     0.846749    14A1     1.182198     7B2     1.721760
      15A1     1.749033     2A2     1.752466     7B1     1.770428
      16A1     1.902716

    Beta Occupied:

       1A1  -115.145564     2A1   -14.394136     3A1   -11.181511
       4A1    -8.733231     1B2    -8.730486     1B1    -8.730310
       5A1    -1.008624     6A1    -0.665142     7A1    -0.460338
       2B2    -0.459243     2B1    -0.458743     3B1    -0.222448

    Beta Virtual:

       8A1    -0.129002     3B2    -0.091581     4B1     0.552616
       4B2     0.554078     9A1     0.566301     5B1     0.710615
      10A1     0.713946     5B2     0.727901    11A1     0.733032
      12A1     0.799028     1A2     0.799028    13A1     0.804876
       6B1     0.850572     6B2     0.862145    14A1     1.200926
       7B1     1.779818     7B2     1.801108     2A2     1.818684
      15A1     1.827915    16A1     1.926934

    Final Occupation by Irrep:
             A1    A2    B1    B2
    DOCC [     7,    0,    3,    2 ]
    SOCC [     0,    0,    0,    1 ]
    NA   [     7,    0,    3,    3 ]
    NB   [     7,    0,    3,    2 ]

  @DF-UKS Final Energy:  -582.03268798619570

   => Energetics <=

    Nuclear Repulsion Energy =             29.4643481501227491
    One-Electron Energy =                -860.5929826859694458
    Two-Electron Energy =                 279.4378778867813367
    DFT Exchange-Correlation Energy =     -30.3419313371303865
    Empirical Dispersion Energy =           0.0000000000000000
    VV10 Nonlocal Energy =                  0.0000000000000000
    Total Energy =                       -582.0326879861958105

  UHF NO Occupations:
  HONO-2 :    6 A1 1.9997721
  HONO-1 :    7 A1 1.9993927
  HONO-0 :    3 B2 1.0000000
  LUNO+0 :    8 A1 0.0006073
  LUNO+1 :    9 A1 0.0002279
  LUNO+2 :    4 B1 0.0000687
  LUNO+3 :    4 B2 0.0000044

Computation Completed

Properties will be evaluated at   0.000000,   0.000000,   0.000000 [a0]

Properties computed using the SCF density matrix

 Multipole Moments:

 ------------------------------------------------------------------------------------
     Multipole            Electronic (a.u.)      Nuclear  (a.u.)        Total (a.u.)
 ------------------------------------------------------------------------------------

 L = 1.  Multiply by 2.5417464519 to convert [e a0] to [Debye]
 Dipole X            :          0.0000000            0.0000000            0.0000000
 Dipole Y            :          0.0000000            0.0000000            0.0000000
 Dipole Z            :         -2.7582444            2.1935377           -0.5647067
 Magnitude           :                                                    0.5647067

 ------------------------------------------------------------------------------------

*** tstop() called on Joses-MacBook-Pro-2.local at Wed Jul 16 19:16:03 2025
Module time:
	user time   =       4.28 seconds =       0.07 minutes
	system time =       3.88 seconds =       0.06 minutes
	total time  =          1 seconds =       0.02 minutes
Total time:
	user time   =     113.91 seconds =       1.90 minutes
	system time =      86.20 seconds =       1.44 minutes
	total time  =         21 seconds =       0.35 minutes

*** tstart() called on Joses-MacBook-Pro-2.local
*** at Wed Jul 16 19:16:03 2025

         ------------------------------------------------------------
                                   SCF GRAD
                          Rob Parrish, Justin Turney,
                       Andy Simmonett, and Alex Sokolov
         ------------------------------------------------------------

  ==> Geometry <==

    Molecular point group: c2v
    Full point group: C_inf_v

    Geometry (in Angstrom), charge = 0, multiplicity = 2:

       Center              X                  Y                   Z               Mass
    ------------   -----------------  -----------------  -----------------  -----------------
         N            0.000000000000     0.000000000000     1.675754364936    14.003074004430
         AR           0.000000000000     0.000000000000    -0.587195020698    39.962383123700

  Nuclear repulsion =   29.464348150122749

  ==> Basis Set <==

  Basis Set: CC-PVDZ
    Blend: CC-PVDZ
    Number of shells: 14
    Number of basis functions: 32
    Number of Cartesian functions: 34
    Spherical Harmonics?: true
    Max angular momentum: 2

  ==> DFJKGrad: Density-Fitted SCF Gradients <==

    Gradient:                    1
    J tasked:                  Yes
    K tasked:                  Yes
    wK tasked:                  No
    OpenMP threads:              1
    Integrals threads:           1
    Memory [MiB]:              375
    Schwarz Cutoff:          1E-12
    Fitting Condition:       1E-10

   => Auxiliary Basis Set <=

  Basis Set: (CC-PVDZ AUX)
    Blend: CC-PVDZ-JKFIT
    Number of shells: 60
    Number of basis functions: 182
    Number of Cartesian functions: 211
    Spherical Harmonics?: true
    Max angular momentum: 3

  ==> DFT Potential <==

   => LibXC <=

    Version 6.2.2
    S. Lehtola, C. Steigemann, M. J.T. Oliveira, and M. A.L. Marques.,  SoftwareX 7, 1â€“5 (2018) (10.1016/j.softx.2017.11.002)

   => Composite Functional: B3LYP <=

    B3LYP Hyb-GGA Exchange-Correlation Functional

    P. J. Stephens, F. J. Devlin, C. F. Chabalowski, and M. J. Frisch.,  J. Phys. Chem. 98, 11623 (1994) (10.1021/j100096a001)

    Deriv               =              1
    GGA                 =           TRUE
    Meta                =          FALSE

    Exchange Hybrid     =           TRUE
    MP2 Hybrid          =          FALSE

   => Exchange Functionals <=

    0.0800   Slater exchange
    0.7200         Becke 88

   => Exact (HF) Exchange <=

    0.2000               HF

   => Correlation Functionals <=

    0.1900   Vosko, Wilk & Nusair (VWN5_RPA)
    0.8100   Lee, Yang & Parr

   => LibXC Density Thresholds  <==

    XC_HYB_GGA_XC_B3LYP:  1.00E-15

   => Molecular Quadrature <=

    Radial Scheme          =       TREUTLER
    Pruning Scheme         =           NONE
    Nuclear Scheme         =       TREUTLER

    Blocking Scheme        =         OCTREE
    BS radius alpha        =              1
    Pruning alpha          =              1
    Radial Points          =             75
    Spherical Points       =            302
    Total Points           =          40835
    Total Blocks           =            363
    Max Points             =            256
    Max Functions          =             32
    Weights Tolerance      =       1.00E-15

  -Total Gradient:
     Atom            X                  Y                   Z
    ------   -----------------  -----------------  -----------------
       1       -0.000000000000     0.000000000000    -0.000047861449
       2        0.000000000000    -0.000000000000     0.000028798421

*** tstop() called on Joses-MacBook-Pro-2.local at Wed Jul 16 19:16:03 2025
Module time:
	user time   =       1.24 seconds =       0.02 minutes
	system time =       1.89 seconds =       0.03 minutes
	total time  =          0 seconds =       0.00 minutes
Total time:
	user time   =     115.16 seconds =       1.92 minutes
	system time =      88.09 seconds =       1.47 minutes
	total time  =         21 seconds =       0.35 minutes

    			-----------------------------------------

    			 OPTKING 3.0: for geometry optimizations

    			     By R.A. King, Bethel University

    			        with contributions from

    			    A.V. Copan, J. Cayton, A. Heide

    			-----------------------------------------

	                            ===> Fragment 1 <==

	 Z (Atomic Numbers)          Masses                          Geom
	       7.000000            14.003074          0.00000000  0.00000000  3.16671680
	      18.000000            39.962383          0.00000000  0.00000000 -1.10963777

	 - Coordinate -           - BOHR/RAD -       - ANG/DEG -
	 R(1,2)           =         4.276355           2.262949

	        --- Internal Coordinate Step in ANG or DEG, aJ/ANG or AJ/DEG ---
	-------------------------------------------------------------------------------
	           Coordinate      Previous         Force          Change          New
	           ----------      --------        ------          ------        ------
	               R(1,2)       2.26295        0.00032        0.00098       2.26393
	-------------------------------------------------------------------------------

	                                 ==> Convergence Check <==

	Measures of convergence in internal coordinates in au.

	Criteria marked as inactive (o), active & met (*), and active & unmet ( ).

	----------------------------------------------------------------------------------------------
	   Step    Total Energy     Delta E     Max Force     RMS Force      Max Disp      RMS Disp
	----------------------------------------------------------------------------------------------
	  Convergence Criteria     1.00e-06 *    3.00e-04 *             o    1.20e-03 *             o
	----------------------------------------------------------------------------------------------
	    15    -582.03268799   -5.75e-07 *    3.83e-05 *    3.83e-05 o    1.86e-03      1.86e-03 o  ~
	----------------------------------------------------------------------------------------------

Next Geometry in Ang
	Fragment 1 (Ang)

	    N   0.0000000000   0.0000000000   1.6762462633
	   Ar   0.0000000000   0.0000000000  -0.5876869191

    Final optimized geometry and variables:
    Molecular point group: c2v
    Full point group: C_inf_v

    Geometry (in Angstrom), charge = 0, multiplicity = 2:

    N            0.000000000000     0.000000000000     1.675754364936
    AR           0.000000000000     0.000000000000    -0.587195020698

    Psi4 stopped on: Wednesday, 16 July 2025 07:16PM
    Psi4 wall time for execution: 0:00:21.35

*** Psi4 exiting successfully. Buy a developer a beer!
