                               Psi4 1.9.1 release

  ==> Input File <==

--------------------------------------------------------------------------
molecule {
0 2
Be   0.00000        0.60000        0.00000
Al   0.00000       -0.60000        0.00000
}

set {
basis              cc-pvdz
reference          uks
maxiter            500
geom_maxiter       500
DAMPING_PERCENTAGE 1
guess              SAP
}

optimize('b3lyp')
--------------------------------------------------------------------------

    Molecular point group: c2v
  Charge       = 0
  Multiplicity = 2
  Basis Set: CC-PVDZ
    Blend: CC-PVDZ
  Basis Set: (CC-PVDZ AUX)
    Blend: CC-PVDZ-JKFIT + DEF2-UNIVERSAL-JKFIT
  @DF-UKS Final Energy:  -256.56462830444673
    Total Energy =                       -256.5646283044467282
 Dipole X            :          0.0000000            0.0000000            0.0000000
 Dipole Y            :          0.0000000            0.0000000            0.0000000
 Dipole Z            :          0.2919840           -0.5816474           -0.2896634
 Magnitude           :                                                    0.2896634
    Molecular point group: c2v
  Basis Set: CC-PVDZ
    Blend: CC-PVDZ
  Basis Set: (CC-PVDZ AUX)
    Blend: CC-PVDZ-JKFIT + DEF2-UNIVERSAL-JKFIT
  Basis Set: CC-PVDZ
    Blend: CC-PVDZ
  Basis Set: (CC-PVDZ AUX)
    Blend: CC-PVDZ-JKFIT + DEF2-UNIVERSAL-JKFIT
  @DF-UKS Final Energy:  -256.67479868536941
    Total Energy =                       -256.6747986853694101
  Basis Set: CC-PVDZ
    Blend: CC-PVDZ
  Basis Set: (CC-PVDZ AUX)
    Blend: CC-PVDZ-JKFIT + DEF2-UNIVERSAL-JKFIT
  Basis Set: CC-PVDZ
    Blend: CC-PVDZ
  @DF-UKS Final Energy:  -256.79051900836276
    Total Energy =                       -256.7905190083627645
  @DF-UKS Final Energy:  -256.93844184068075
    Total Energy =                       -256.9384418406807526
  @DF-UKS Final Energy:  -257.00433563747674
    Total Energy =                       -257.0043356374767427
  @DF-UKS Final Energy:  -257.01611080789593
    Total Energy =                       -257.0161108078959273
  @DF-UKS Final Energy:  -257.01996299706474
    Total Energy =                       -257.0199629970647379
  @DF-UKS Final Energy:  -257.02044914573980
    Total Energy =                       -257.0204491457398035
  @DF-UKS Final Energy:  -257.02051804945251
    Total Energy =                       -257.0205180494525052
  @DF-UKS Final Energy:  -257.02052852854194
    Total Energy =                       -257.0205285285419450
  Basis Set: (CC-PVDZ AUX)
    Blend: CC-PVDZ-JKFIT + DEF2-UNIVERSAL-JKFIT
  Basis Set: CC-PVDZ
    Blend: CC-PVDZ
  Basis Set: (CC-PVDZ AUX)
    Blend: CC-PVDZ-JKFIT + DEF2-UNIVERSAL-JKFIT
  @DF-UKS Final Energy:  -257.02053036063802
    Total Energy =                       -257.0205303606380198
  Basis Set: CC-PVDZ
    Blend: CC-PVDZ
  Basis Set: (CC-PVDZ AUX)
    Blend: CC-PVDZ-JKFIT + DEF2-UNIVERSAL-JKFIT
  Charge       = 0
  Multiplicity = 2
  Basis Set: CC-PVDZ
    Blend: CC-PVDZ
  Basis Set: (CC-PVDZ AUX)
    Blend: CC-PVDZ-JKFIT + DEF2-UNIVERSAL-JKFIT

    Orbital Energies [Eh]
    ---------------------

    Alpha Occupied:

       1A1   -56.072021     2A1    -4.153660     3A1    -4.100030
       4A1    -2.707515     1B2    -2.706906     1B1    -2.702654
       5A1    -0.363278     6A1    -0.231626     2B2    -0.164224

    Alpha Virtual:

       7A1    -0.109525     2B1    -0.091041     3B2    -0.032529
       3B1    -0.006000     8A1     0.072608     9A1     0.136495
       4B2     0.165941    10A1     0.167250     4B1     0.184185
       5B2     0.232466    11A1     0.239865     5B1     0.248725
       1A2     0.263469    12A1     0.266780     6B2     0.292359
       6B1     0.315905    13A1     0.363708     2A2     0.491037
      14A1     0.493675    15A1     0.566760     7B2     0.637544
       7B1     0.659199    16A1     0.826501

    Beta Occupied:

       1A1   -56.070564     2A1    -4.151340     3A1    -4.090734
       1B1    -2.705342     4A1    -2.704213     1B2    -2.701785
       5A1    -0.348787     2B1    -0.153897

    Beta Virtual:

       6A1    -0.149860     2B2    -0.079040     7A1    -0.071367
       3B1    -0.011755     3B2     0.018726     8A1     0.084433
       9A1     0.140797     4B1     0.170611    10A1     0.190078
       4B2     0.192576     5B1     0.239024     5B2     0.259255
      11A1     0.264588     1A2     0.267762    12A1     0.273541
       6B1     0.312565     6B2     0.338882    13A1     0.372692
       2A2     0.514783    14A1     0.521629    15A1     0.591525
       7B1     0.660551     7B2     0.690973    16A1     0.846051

    Final Occupation by Irrep:
             A1    A2    B1    B2
Warning! Irrep has more beta than alpha electrons in symmetry 2 orbitals.
Warning! Irrep has more beta than alpha electrons in symmetry 2 orbitals.
    DOCC [     5,    0,    1,    1 ]
    SOCC [     1,    0,    1,    1 ]
    NA   [     6,    0,    1,    2 ]
    NB   [     5,    0,    2,    1 ]

  @DF-UKS Final Energy:  -257.02053048370067

   => Energetics <=

    Nuclear Repulsion Energy =             12.9305020142405436
    One-Electron Energy =                -381.4403794797145224
    Two-Electron Energy =                 128.7450261501993225
    DFT Exchange-Correlation Energy =     -17.2556791684259565
    Empirical Dispersion Energy =           0.0000000000000000
    VV10 Nonlocal Energy =                  0.0000000000000000
    Total Energy =                       -257.0205304837006679

  UHF NO Occupations:
  HONO-2 :    5 A1 1.9915178
  HONO-1 :    6 A1 1.0000000
  HONO-0 :    2 B1 1.0000000
  LUNO+0 :    2 B2 1.0000000
  LUNO+1 :    7 A1 0.0084822
  LUNO+2 :    8 A1 0.0000004
  LUNO+3 :    3 B2 0.0000002

Computation Completed

Properties will be evaluated at   0.000000,   0.000000,   0.000000 [a0]

Properties computed using the SCF density matrix

 Multipole Moments:

 ------------------------------------------------------------------------------------
     Multipole            Electronic (a.u.)      Nuclear  (a.u.)        Total (a.u.)
 ------------------------------------------------------------------------------------

 L = 1.  Multiply by 2.5417464519 to convert [e a0] to [Debye]
 Dipole X            :          0.0000000            0.0000000            0.0000000
 Dipole Y            :          0.0000000            0.0000000            0.0000000
 Dipole Z            :          1.0861782           -1.0314962            0.0546820
 Magnitude           :                                                    0.0546820

 ------------------------------------------------------------------------------------
Warning! Irrep has more beta than alpha electrons in symmetry 2 orbitals.
Warning! Irrep has more beta than alpha electrons in symmetry 2 orbitals.

*** tstop() called on Joses-MacBook-Pro-2.local at Wed Jul 16 18:43:55 2025
Module time:
	user time   =       3.77 seconds =       0.06 minutes
	system time =       2.42 seconds =       0.04 minutes
	total time  =          1 seconds =       0.02 minutes
Total time:
	user time   =      63.36 seconds =       1.06 minutes
	system time =      61.42 seconds =       1.02 minutes
	total time  =         12 seconds =       0.20 minutes

*** tstart() called on Joses-MacBook-Pro-2.local
*** at Wed Jul 16 18:43:55 2025

         ------------------------------------------------------------
                                   SCF GRAD
                          Rob Parrish, Justin Turney,
                       Andy Simmonett, and Alex Sokolov
         ------------------------------------------------------------

  ==> Geometry <==

    Molecular point group: c2v
    Full point group: C_inf_v

    Geometry (in Angstrom), charge = 0, multiplicity = 2:

       Center              X                  Y                   Z               Mass
    ------------   -----------------  -----------------  -----------------  -----------------
         BE           0.000000000000     0.000000000000     1.595251079534     9.012183065000
         AL           0.000000000000     0.000000000000    -0.532834506357    26.981538530000

  Nuclear repulsion =   12.930502014240544

  ==> Basis Set <==

  Basis Set: CC-PVDZ
    Blend: CC-PVDZ
    Number of shells: 14
    Number of basis functions: 32
    Number of Cartesian functions: 34
    Spherical Harmonics?: true
    Max angular momentum: 2

  ==> DFJKGrad: Density-Fitted SCF Gradients <==

    Gradient:                    1
    J tasked:                  Yes
    K tasked:                  Yes
    wK tasked:                  No
    OpenMP threads:              1
    Integrals threads:           1
    Memory [MiB]:              375
    Schwarz Cutoff:          1E-12
    Fitting Condition:       1E-10

   => Auxiliary Basis Set <=

  Basis Set: (CC-PVDZ AUX)
    Blend: CC-PVDZ-JKFIT + DEF2-UNIVERSAL-JKFIT
    Number of shells: 53
    Number of basis functions: 163
    Number of Cartesian functions: 190
    Spherical Harmonics?: true
    Max angular momentum: 3

  ==> DFT Potential <==

   => LibXC <=

    Version 6.2.2
    S. Lehtola, C. Steigemann, M. J.T. Oliveira, and M. A.L. Marques.,  SoftwareX 7, 1â€“5 (2018) (10.1016/j.softx.2017.11.002)

   => Composite Functional: B3LYP <=

    B3LYP Hyb-GGA Exchange-Correlation Functional

    P. J. Stephens, F. J. Devlin, C. F. Chabalowski, and M. J. Frisch.,  J. Phys. Chem. 98, 11623 (1994) (10.1021/j100096a001)

    Deriv               =              1
    GGA                 =           TRUE
    Meta                =          FALSE

    Exchange Hybrid     =           TRUE
    MP2 Hybrid          =          FALSE

   => Exchange Functionals <=

    0.0800   Slater exchange
    0.7200         Becke 88

   => Exact (HF) Exchange <=

    0.2000               HF

   => Correlation Functionals <=

    0.1900   Vosko, Wilk & Nusair (VWN5_RPA)
    0.8100   Lee, Yang & Parr

   => LibXC Density Thresholds  <==

    XC_HYB_GGA_XC_B3LYP:  1.00E-15

   => Molecular Quadrature <=

    Radial Scheme          =       TREUTLER
    Pruning Scheme         =           NONE
    Nuclear Scheme         =       TREUTLER

    Blocking Scheme        =         OCTREE
    BS radius alpha        =              1
    Pruning alpha          =              1
    Radial Points          =             75
    Spherical Points       =            302
    Total Points           =          42444
    Total Blocks           =            397
    Max Points             =            256
    Max Functions          =             32
    Weights Tolerance      =       1.00E-15

  -Total Gradient:
     Atom            X                  Y                   Z
    ------   -----------------  -----------------  -----------------
       1        0.000000000000     0.000000000000    -0.000019988114
       2        0.000000000000    -0.000000000000     0.000011239041

*** tstop() called on Joses-MacBook-Pro-2.local at Wed Jul 16 18:43:55 2025
Module time:
	user time   =       0.95 seconds =       0.02 minutes
	system time =       1.57 seconds =       0.03 minutes
	total time  =          0 seconds =       0.00 minutes
Total time:
	user time   =      64.31 seconds =       1.07 minutes
	system time =      62.99 seconds =       1.05 minutes
	total time  =         12 seconds =       0.20 minutes

    			-----------------------------------------

    			 OPTKING 3.0: for geometry optimizations

    			     By R.A. King, Bethel University

    			        with contributions from

    			    A.V. Copan, J. Cayton, A. Heide

    			-----------------------------------------

	                            ===> Fragment 1 <==

	 Z (Atomic Numbers)          Masses                          Geom
	       4.000000             9.012183          0.00000000  0.00000000  3.01458764
	      13.000000            26.981539          0.00000000  0.00000000 -1.00691129

	 - Coordinate -           - BOHR/RAD -       - ANG/DEG -
	 R(1,2)           =         4.021499           2.128086

	        --- Internal Coordinate Step in ANG or DEG, aJ/ANG or AJ/DEG ---
	-------------------------------------------------------------------------------
	           Coordinate      Previous         Force          Change          New
	           ----------      --------        ------          ------        ------
	               R(1,2)       2.12809        0.00013        0.00009       2.12817
	-------------------------------------------------------------------------------

	                                 ==> Convergence Check <==

	Measures of convergence in internal coordinates in au.

	Criteria marked as inactive (o), active & met (*), and active & unmet ( ).

	----------------------------------------------------------------------------------------------
	   Step    Total Energy     Delta E     Max Force     RMS Force      Max Disp      RMS Disp
	----------------------------------------------------------------------------------------------
	  Convergence Criteria     1.00e-06 *    3.00e-04 *             o    1.20e-03 *             o
	----------------------------------------------------------------------------------------------
	    12    -257.02053048   -1.23e-07 *    1.56e-05 *    1.56e-05 o    1.66e-04 *    1.66e-04 o  ~
	----------------------------------------------------------------------------------------------

Next Geometry in Ang
	Fragment 1 (Ang)

	   Be   0.0000000000   0.0000000000   1.5952951164
	   Al   0.0000000000   0.0000000000  -0.5328785432

    Final optimized geometry and variables:
    Molecular point group: c2v
    Full point group: C_inf_v

    Geometry (in Angstrom), charge = 0, multiplicity = 2:

    BE           0.000000000000     0.000000000000     1.595251079534
    AL           0.000000000000     0.000000000000    -0.532834506357

    Psi4 stopped on: Wednesday, 16 July 2025 06:43PM
    Psi4 wall time for execution: 0:00:12.85

*** Psi4 exiting successfully. Buy a developer a beer!
