                               Psi4 1.9.1 release

  ==> Input File <==

--------------------------------------------------------------------------
molecule {
0 2
B   0.00000        0.60000        0.00000
Si   0.00000       -0.60000        0.00000
}

set {
basis              cc-pvdz
reference          uks
maxiter            500
geom_maxiter       500
DAMPING_PERCENTAGE 1
guess              SAP
}

optimize('b3lyp')
--------------------------------------------------------------------------

    Molecular point group: c2v
  Charge       = 0
  Multiplicity = 2
  Basis Set: CC-PVDZ
    Blend: CC-PVDZ
  Basis Set: (CC-PVDZ AUX)
    Blend: CC-PVDZ-JKFIT
  @DF-UKS Final Energy:  -313.68624183784732
    Total Energy =                       -313.6862418378473194
 Dipole X            :          0.0000000            0.0000000            0.0000000
 Dipole Y            :          0.0000000            0.0000000            0.0000000
 Dipole Z            :          0.5163834           -0.8286114           -0.3122280
 Magnitude           :                                                    0.3122280
    Molecular point group: c2v
  Basis Set: CC-PVDZ
    Blend: CC-PVDZ
  Basis Set: (CC-PVDZ AUX)
    Blend: CC-PVDZ-JKFIT
  Basis Set: CC-PVDZ
    Blend: CC-PVDZ
  Basis Set: (CC-PVDZ AUX)
    Blend: CC-PVDZ-JKFIT
  @DF-UKS Final Energy:  -313.85961809812488
    Total Energy =                       -313.8596180981248835
  Basis Set: CC-PVDZ
    Blend: CC-PVDZ
  Basis Set: (CC-PVDZ AUX)
    Blend: CC-PVDZ-JKFIT
  Basis Set: CC-PVDZ
    Blend: CC-PVDZ
  @DF-UKS Final Energy:  -313.96899450813976
    Total Energy =                       -313.9689945081397582
  @DF-UKS Final Energy:  -314.08235703937396
    Total Energy =                       -314.0823570393739601
  @DF-UKS Final Energy:  -314.11991770717816
    Total Energy =                       -314.1199177071781605
  @DF-UKS Final Energy:  -314.12994317328082
    Total Energy =                       -314.1299431732808785
  @DF-UKS Final Energy:  -314.13082740482685
    Total Energy =                       -314.1308274048268459
  @DF-UKS Final Energy:  -314.13102234720930
    Total Energy =                       -314.1310223472092957
  @DF-UKS Final Energy:  -314.13107734541836
    Total Energy =                       -314.1310773454183050
  Basis Set: (CC-PVDZ AUX)
    Blend: CC-PVDZ-JKFIT
  Basis Set: CC-PVDZ
    Blend: CC-PVDZ
  Basis Set: (CC-PVDZ AUX)
    Blend: CC-PVDZ-JKFIT
  @DF-UKS Final Energy:  -314.13108246296127
    Total Energy =                       -314.1310824629613307
  Basis Set: CC-PVDZ
    Blend: CC-PVDZ
  Basis Set: (CC-PVDZ AUX)
    Blend: CC-PVDZ-JKFIT
  Charge       = 0
  Multiplicity = 2
  Basis Set: CC-PVDZ
    Blend: CC-PVDZ
  Basis Set: (CC-PVDZ AUX)
    Blend: CC-PVDZ-JKFIT

    Orbital Energies [Eh]
    ---------------------

    Alpha Occupied:

       1A1   -66.171262     2A1    -6.845826     3A1    -5.314320
       1B2    -3.675754     4A1    -3.673114     1B1    -3.668002
       5A1    -0.536318     6A1    -0.332605     2B2    -0.238696
       2B1    -0.213400

    Alpha Virtual:

       7A1    -0.169981     3B2    -0.057879     3B1    -0.038127
       8A1     0.088242     9A1     0.226099    10A1     0.263368
       4B2     0.265174     4B1     0.280373     5B2     0.329802
       5B1     0.344538    11A1     0.348291     1A2     0.349475
      12A1     0.353621     6B2     0.403101     6B1     0.422676
      13A1     0.572444     2A2     0.718595    14A1     0.718756
      15A1     0.769962     7B2     0.913188     7B1     0.932285
      16A1     1.142301

    Beta Occupied:

       1A1   -66.170180     2A1    -6.839748     3A1    -5.313058
       4A1    -3.673502     1B2    -3.670092     1B1    -3.667847
       5A1    -0.511968     6A1    -0.317548     2B1    -0.205610

    Beta Virtual:

       7A1    -0.157444     2B2    -0.141452     3B1    -0.032765
       3B2    -0.016722     8A1     0.094641     9A1     0.233106
      10A1     0.268567     4B1     0.283321     4B2     0.290242
       5B1     0.348272     5B2     0.354718    11A1     0.359789
       1A2     0.370261    12A1     0.372649     6B1     0.421988
       6B2     0.428399    13A1     0.583912     2A2     0.747528
      14A1     0.750104    15A1     0.781649     7B1     0.939584
       7B2     0.945602    16A1     1.153142

    Final Occupation by Irrep:
             A1    A2    B1    B2
    DOCC [     6,    0,    2,    1 ]
    SOCC [     0,    0,    0,    1 ]
    NA   [     6,    0,    2,    2 ]
    NB   [     6,    0,    2,    1 ]

  @DF-UKS Final Energy:  -314.13108299882720

   => Energetics <=

    Nuclear Repulsion Energy =             20.1131625756436989
    One-Electron Energy =                -473.1804734103415058
    Two-Electron Energy =                 158.9147762854948098
    DFT Exchange-Correlation Energy =     -19.9785484496241423
    Empirical Dispersion Energy =           0.0000000000000000
    VV10 Nonlocal Energy =                  0.0000000000000000
    Total Energy =                       -314.1310829988271394

  UHF NO Occupations:
  HONO-2 :    2 B1 1.9985822
  HONO-1 :    6 A1 1.9911414
  HONO-0 :    2 B2 1.0000000
  LUNO+0 :    7 A1 0.0088586
  LUNO+1 :    3 B1 0.0014178
  LUNO+2 :    8 A1 0.0006279
  LUNO+3 :    9 A1 0.0000001

Computation Completed

Properties will be evaluated at   0.000000,   0.000000,   0.000000 [a0]

Properties computed using the SCF density matrix

 Multipole Moments:

 ------------------------------------------------------------------------------------
     Multipole            Electronic (a.u.)      Nuclear  (a.u.)        Total (a.u.)
 ------------------------------------------------------------------------------------

 L = 1.  Multiply by 2.5417464519 to convert [e a0] to [Debye]
 Dipole X            :          0.0000000            0.0000000            0.0000000
 Dipole Y            :          0.0000000            0.0000000            0.0000000
 Dipole Z            :          1.1275414           -1.2717111           -0.1441696
 Magnitude           :                                                    0.1441696

 ------------------------------------------------------------------------------------

*** tstop() called on Joses-MacBook-Pro-2.local at Wed Jul 16 18:54:58 2025
Module time:
	user time   =       3.44 seconds =       0.06 minutes
	system time =       5.31 seconds =       0.09 minutes
	total time  =          1 seconds =       0.02 minutes
Total time:
	user time   =      85.16 seconds =       1.42 minutes
	system time =      87.42 seconds =       1.46 minutes
	total time  =         20 seconds =       0.33 minutes

*** tstart() called on Joses-MacBook-Pro-2.local
*** at Wed Jul 16 18:54:58 2025

         ------------------------------------------------------------
                                   SCF GRAD
                          Rob Parrish, Justin Turney,
                       Andy Simmonett, and Alex Sokolov
         ------------------------------------------------------------

  ==> Geometry <==

    Molecular point group: c2v
    Full point group: C_inf_v

    Geometry (in Angstrom), charge = 0, multiplicity = 2:

       Center              X                  Y                   Z               Mass
    ------------   -----------------  -----------------  -----------------  -----------------
         B            0.000000000000     0.000000000000     1.321622882741    11.009305360000
         SI           0.000000000000     0.000000000000    -0.520076780730    27.976926534650

  Nuclear repulsion =   20.113162575643699

  ==> Basis Set <==

  Basis Set: CC-PVDZ
    Blend: CC-PVDZ
    Number of shells: 14
    Number of basis functions: 32
    Number of Cartesian functions: 34
    Spherical Harmonics?: true
    Max angular momentum: 2

  ==> DFJKGrad: Density-Fitted SCF Gradients <==

    Gradient:                    1
    J tasked:                  Yes
    K tasked:                  Yes
    wK tasked:                  No
    OpenMP threads:              1
    Integrals threads:           1
    Memory [MiB]:              375
    Schwarz Cutoff:          1E-12
    Fitting Condition:       1E-10

   => Auxiliary Basis Set <=

  Basis Set: (CC-PVDZ AUX)
    Blend: CC-PVDZ-JKFIT
    Number of shells: 60
    Number of basis functions: 182
    Number of Cartesian functions: 211
    Spherical Harmonics?: true
    Max angular momentum: 3

  ==> DFT Potential <==

   => LibXC <=

    Version 6.2.2
    S. Lehtola, C. Steigemann, M. J.T. Oliveira, and M. A.L. Marques.,  SoftwareX 7, 1â€“5 (2018) (10.1016/j.softx.2017.11.002)

   => Composite Functional: B3LYP <=

    B3LYP Hyb-GGA Exchange-Correlation Functional

    P. J. Stephens, F. J. Devlin, C. F. Chabalowski, and M. J. Frisch.,  J. Phys. Chem. 98, 11623 (1994) (10.1021/j100096a001)

    Deriv               =              1
    GGA                 =           TRUE
    Meta                =          FALSE

    Exchange Hybrid     =           TRUE
    MP2 Hybrid          =          FALSE

   => Exchange Functionals <=

    0.0800   Slater exchange
    0.7200         Becke 88

   => Exact (HF) Exchange <=

    0.2000               HF

   => Correlation Functionals <=

    0.1900   Vosko, Wilk & Nusair (VWN5_RPA)
    0.8100   Lee, Yang & Parr

   => LibXC Density Thresholds  <==

    XC_HYB_GGA_XC_B3LYP:  1.00E-15

   => Molecular Quadrature <=

    Radial Scheme          =       TREUTLER
    Pruning Scheme         =           NONE
    Nuclear Scheme         =       TREUTLER

    Blocking Scheme        =         OCTREE
    BS radius alpha        =              1
    Pruning alpha          =              1
    Radial Points          =             75
    Spherical Points       =            302
    Total Points           =          42109
    Total Blocks           =            384
    Max Points             =            255
    Max Functions          =             32
    Weights Tolerance      =       1.00E-15

  -Total Gradient:
     Atom            X                  Y                   Z
    ------   -----------------  -----------------  -----------------
       1        0.000000000000     0.000000000000    -0.000062691436
       2        0.000000000000    -0.000000000000     0.000050808165

*** tstop() called on Joses-MacBook-Pro-2.local at Wed Jul 16 18:54:59 2025
Module time:
	user time   =       0.69 seconds =       0.01 minutes
	system time =       1.70 seconds =       0.03 minutes
	total time  =          1 seconds =       0.02 minutes
Total time:
	user time   =      85.85 seconds =       1.43 minutes
	system time =      89.13 seconds =       1.49 minutes
	total time  =         21 seconds =       0.35 minutes

    			-----------------------------------------

    			 OPTKING 3.0: for geometry optimizations

    			     By R.A. King, Bethel University

    			        with contributions from

    			    A.V. Copan, J. Cayton, A. Heide

    			-----------------------------------------

	                            ===> Fragment 1 <==

	 Z (Atomic Numbers)          Masses                          Geom
	       5.000000            11.009305          0.00000000  0.00000000  2.49750529
	      14.000000            27.976927          0.00000000  0.00000000 -0.98280268

	 - Coordinate -           - BOHR/RAD -       - ANG/DEG -
	 R(1,2)           =         3.480308           1.841700

	        --- Internal Coordinate Step in ANG or DEG, aJ/ANG or AJ/DEG ---
	-------------------------------------------------------------------------------
	           Coordinate      Previous         Force          Change          New
	           ----------      --------        ------          ------        ------
	               R(1,2)       1.84170        0.00047        0.00014       1.84184
	-------------------------------------------------------------------------------

	                                 ==> Convergence Check <==

	Measures of convergence in internal coordinates in au.

	Criteria marked as inactive (o), active & met (*), and active & unmet ( ).

	----------------------------------------------------------------------------------------------
	   Step    Total Energy     Delta E     Max Force     RMS Force      Max Disp      RMS Disp
	----------------------------------------------------------------------------------------------
	  Convergence Criteria     1.00e-06 *    3.00e-04 *             o    1.20e-03 *             o
	----------------------------------------------------------------------------------------------
	    11    -314.13108300   -5.36e-07 *    5.67e-05 *    5.67e-05 o    2.62e-04 *    2.62e-04 o  ~
	----------------------------------------------------------------------------------------------

Next Geometry in Ang
	Fragment 1 (Ang)

	    B   0.0000000000   0.0000000000   1.3216922174
	   Si   0.0000000000   0.0000000000  -0.5201461154

    Final optimized geometry and variables:
    Molecular point group: c2v
    Full point group: C_inf_v

    Geometry (in Angstrom), charge = 0, multiplicity = 2:

    B            0.000000000000     0.000000000000     1.321622882741
    SI           0.000000000000     0.000000000000    -0.520076780730

    Psi4 stopped on: Wednesday, 16 July 2025 06:54PM
    Psi4 wall time for execution: 0:00:21.19

*** Psi4 exiting successfully. Buy a developer a beer!
