                               Psi4 1.9.1 release

  ==> Input File <==

--------------------------------------------------------------------------
molecule {
0 2
He   0.00000        0.60000        0.00000
Na   0.00000       -0.60000        0.00000
}

set {
basis              cc-pvdz
reference          uks
maxiter            500
geom_maxiter       500
DAMPING_PERCENTAGE 1
guess              SAP
}

optimize('b3lyp')
--------------------------------------------------------------------------

    Molecular point group: c2v
  Charge       = 0
  Multiplicity = 2
  Basis Set: CC-PVDZ
    Blend: CC-PVDZ
  Basis Set: (CC-PVDZ AUX)
    Blend: DEF2-UNIVERSAL-JKFIT
  @DF-UKS Final Energy:  -165.03358976218317
    Total Energy =                       -165.0335897621831691
 Dipole X            :          0.0000000            0.0000000            0.0000000
 Dipole Y            :          0.0000000            0.0000000            0.0000000
 Dipole Z            :          0.8739293            0.1638984            1.0378276
 Magnitude           :                                                    1.0378276
    Molecular point group: c2v
  Basis Set: CC-PVDZ
    Blend: CC-PVDZ
  Basis Set: (CC-PVDZ AUX)
    Blend: DEF2-UNIVERSAL-JKFIT
  Basis Set: CC-PVDZ
    Blend: CC-PVDZ
  Basis Set: (CC-PVDZ AUX)
    Blend: DEF2-UNIVERSAL-JKFIT
  @DF-UKS Final Energy:  -165.14137327842971
    Total Energy =                       -165.1413732784297110
  Basis Set: CC-PVDZ
    Blend: CC-PVDZ
  Basis Set: (CC-PVDZ AUX)
    Blend: DEF2-UNIVERSAL-JKFIT
  Basis Set: CC-PVDZ
    Blend: CC-PVDZ
  @DF-UKS Final Energy:  -165.15980039370584
    Total Energy =                       -165.1598003937058365
  @DF-UKS Final Energy:  -165.17515277588555
    Total Energy =                       -165.1751527758855218
  @DF-UKS Final Energy:  -165.18295469008834
    Total Energy =                       -165.1829546900883372
  @DF-UKS Final Energy:  -165.18786661543677
    Total Energy =                       -165.1878666154368034
  @DF-UKS Final Energy:  -165.19110034082019
    Total Energy =                       -165.1911003408201850
  @DF-UKS Final Energy:  -165.19353369839683
    Total Energy =                       -165.1935336983968341
  @DF-UKS Final Energy:  -165.19545796516164
    Total Energy =                       -165.1954579651616655
  @DF-UKS Final Energy:  -165.19551956909427
    Total Energy =                       -165.1955195690943015
  @DF-UKS Final Energy:  -165.19690782042801
    Total Energy =                       -165.1969078204280095
  @DF-UKS Final Energy:  -165.19693099733797
    Total Energy =                       -165.1969309973379438
  @DF-UKS Final Energy:  -165.19762916877795
    Total Energy =                       -165.1976291687779224
  @DF-UKS Final Energy:  -165.19763626113220
    Total Energy =                       -165.1976362611322315
  @DF-UKS Final Energy:  -165.19764322311229
    Total Energy =                       -165.1976432231122942
  @DF-UKS Final Energy:  -165.19796383250886
    Total Energy =                       -165.1979638325088615
  @DF-UKS Final Energy:  -165.19796555955608
    Total Energy =                       -165.1979655595560530
  @DF-UKS Final Energy:  -165.19796726502807
    Total Energy =                       -165.1979672650280406
  @DF-UKS Final Energy:  -165.19796894891684
    Total Energy =                       -165.1979689489168379
  Basis Set: (CC-PVDZ AUX)
    Blend: DEF2-UNIVERSAL-JKFIT
  Basis Set: CC-PVDZ
    Blend: CC-PVDZ
  Basis Set: (CC-PVDZ AUX)
    Blend: DEF2-UNIVERSAL-JKFIT
  @DF-UKS Final Energy:  -165.19809080864499
    Total Energy =                       -165.1980908086449915
  Basis Set: CC-PVDZ
    Blend: CC-PVDZ
  Basis Set: (CC-PVDZ AUX)
    Blend: DEF2-UNIVERSAL-JKFIT
  Charge       = 0
  Multiplicity = 2
  Basis Set: CC-PVDZ
    Blend: CC-PVDZ
  Basis Set: (CC-PVDZ AUX)
    Blend: DEF2-UNIVERSAL-JKFIT

    Orbital Energies [Eh]
    ---------------------

    Alpha Occupied:

       1A1   -38.478967     2A1    -2.223744     3A1    -1.154599
       1B2    -1.154567     1B1    -1.154567     4A1    -0.655535
       5A1    -0.127787

    Alpha Virtual:

       2B2    -0.020839     2B1    -0.020839     6A1    -0.016506
       7A1     0.054952     3B1     0.076188     3B2     0.076188
       8A1     0.076591     1A2     0.159300     9A1     0.159300
       4B1     0.159492     4B2     0.159492    10A1     0.161234
      11A1     1.166175     5B1     2.184575     5B2     2.184575
      12A1     2.187774

    Beta Occupied:

       1A1   -38.477499     2A1    -2.220794     3A1    -1.152680
       1B2    -1.152645     1B1    -1.152645     4A1    -0.655266

    Beta Virtual:

       5A1    -0.064046     2B2     0.002590     2B1     0.002590
       6A1     0.003369     7A1     0.068320     8A1     0.092686
       3B1     0.094422     3B2     0.094422     9A1     0.188504
       1A2     0.188949    10A1     0.188949     4B1     0.189061
       4B2     0.189061    11A1     1.166822     5B1     2.184730
       5B2     2.184730    12A1     2.188001

    Final Occupation by Irrep:
             A1    A2    B1    B2
    DOCC [     4,    0,    1,    1 ]
    SOCC [     1,    0,    0,    0 ]
    NA   [     5,    0,    1,    1 ]
    NB   [     4,    0,    1,    1 ]

  @DF-UKS Final Energy:  -165.19809114257544

   => Energetics <=

    Nuclear Repulsion Energy =              2.8437838380134801
    One-Electron Energy =                -237.3711149069556541
    Two-Electron Energy =                  81.8389971185742553
    DFT Exchange-Correlation Energy =     -12.5097571922075019
    Empirical Dispersion Energy =           0.0000000000000000
    VV10 Nonlocal Energy =                  0.0000000000000000
    Total Energy =                       -165.1980911425754073

  UHF NO Occupations:
  HONO-2 :    1 B1 1.9999988
  HONO-1 :    1 B2 1.9999988
  HONO-0 :    5 A1 1.0000000
  LUNO+0 :    2 B2 0.0000012
  LUNO+1 :    2 B1 0.0000012
  LUNO+2 :    6 A1 0.0000011
  LUNO+3 :    7 A1 0.0000002

Computation Completed

Properties will be evaluated at   0.000000,   0.000000,   0.000000 [a0]

Properties computed using the SCF density matrix

 Multipole Moments:

 ------------------------------------------------------------------------------------
     Multipole            Electronic (a.u.)      Nuclear  (a.u.)        Total (a.u.)
 ------------------------------------------------------------------------------------

 L = 1.  Multiply by 2.5417464519 to convert [e a0] to [Debye]
 Dipole X            :          0.0000000            0.0000000            0.0000000
 Dipole Y            :          0.0000000            0.0000000            0.0000000
 Dipole Z            :         -0.4735011            0.5591401            0.0856391
 Magnitude           :                                                    0.0856391

 ------------------------------------------------------------------------------------

*** tstop() called on Joses-MacBook-Pro-2.local at Wed Jul 16 18:22:17 2025
Module time:
	user time   =       1.37 seconds =       0.02 minutes
	system time =       2.28 seconds =       0.04 minutes
	total time  =          1 seconds =       0.02 minutes
Total time:
	user time   =     108.60 seconds =       1.81 minutes
	system time =      68.10 seconds =       1.14 minutes
	total time  =         19 seconds =       0.32 minutes

*** tstart() called on Joses-MacBook-Pro-2.local
*** at Wed Jul 16 18:22:17 2025

         ------------------------------------------------------------
                                   SCF GRAD
                          Rob Parrish, Justin Turney,
                       Andy Simmonett, and Alex Sokolov
         ------------------------------------------------------------

  ==> Geometry <==

    Molecular point group: c2v
    Full point group: C_inf_v

    Geometry (in Angstrom), charge = 0, multiplicity = 2:

       Center              X                  Y                   Z               Mass
    ------------   -----------------  -----------------  -----------------  -----------------
         HE           0.000000000000     0.000000000000     3.486749807110     4.002603254130
         NA           0.000000000000     0.000000000000    -0.607055945324    22.989769282000

  Nuclear repulsion =    2.843783838013480

  ==> Basis Set <==

  Basis Set: CC-PVDZ
    Blend: CC-PVDZ
    Number of shells: 11
    Number of basis functions: 23
    Number of Cartesian functions: 24
    Spherical Harmonics?: true
    Max angular momentum: 2

  ==> DFJKGrad: Density-Fitted SCF Gradients <==

    Gradient:                    1
    J tasked:                  Yes
    K tasked:                  Yes
    wK tasked:                  No
    OpenMP threads:              1
    Integrals threads:           1
    Memory [MiB]:              375
    Schwarz Cutoff:          1E-12
    Fitting Condition:       1E-10

   => Auxiliary Basis Set <=

  Basis Set: (CC-PVDZ AUX)
    Blend: DEF2-UNIVERSAL-JKFIT
    Number of shells: 43
    Number of basis functions: 135
    Number of Cartesian functions: 162
    Spherical Harmonics?: true
    Max angular momentum: 4

  ==> DFT Potential <==

   => LibXC <=

    Version 6.2.2
    S. Lehtola, C. Steigemann, M. J.T. Oliveira, and M. A.L. Marques.,  SoftwareX 7, 1â€“5 (2018) (10.1016/j.softx.2017.11.002)

   => Composite Functional: B3LYP <=

    B3LYP Hyb-GGA Exchange-Correlation Functional

    P. J. Stephens, F. J. Devlin, C. F. Chabalowski, and M. J. Frisch.,  J. Phys. Chem. 98, 11623 (1994) (10.1021/j100096a001)

    Deriv               =              1
    GGA                 =           TRUE
    Meta                =          FALSE

    Exchange Hybrid     =           TRUE
    MP2 Hybrid          =          FALSE

   => Exchange Functionals <=

    0.0800   Slater exchange
    0.7200         Becke 88

   => Exact (HF) Exchange <=

    0.2000               HF

   => Correlation Functionals <=

    0.1900   Vosko, Wilk & Nusair (VWN5_RPA)
    0.8100   Lee, Yang & Parr

   => LibXC Density Thresholds  <==

    XC_HYB_GGA_XC_B3LYP:  1.00E-15

   => Molecular Quadrature <=

    Radial Scheme          =       TREUTLER
    Pruning Scheme         =           NONE
    Nuclear Scheme         =       TREUTLER

    Blocking Scheme        =         OCTREE
    BS radius alpha        =              1
    Pruning alpha          =              1
    Radial Points          =             75
    Spherical Points       =            302
    Total Points           =          43910
    Total Blocks           =            423
    Max Points             =            256
    Max Functions          =             23
    Weights Tolerance      =       1.00E-15

  -Total Gradient:
     Atom            X                  Y                   Z
    ------   -----------------  -----------------  -----------------
       1        0.000000000000    -0.000000000000    -0.000151671907
       2       -0.000000000000    -0.000000000000     0.000156021229

*** tstop() called on Joses-MacBook-Pro-2.local at Wed Jul 16 18:22:17 2025
Module time:
	user time   =       1.30 seconds =       0.02 minutes
	system time =       0.63 seconds =       0.01 minutes
	total time  =          0 seconds =       0.00 minutes
Total time:
	user time   =     109.90 seconds =       1.83 minutes
	system time =      68.73 seconds =       1.15 minutes
	total time  =         19 seconds =       0.32 minutes

    			-----------------------------------------

    			 OPTKING 3.0: for geometry optimizations

    			     By R.A. King, Bethel University

    			        with contributions from

    			    A.V. Copan, J. Cayton, A. Heide

    			-----------------------------------------

	                            ===> Fragment 1 <==

	 Z (Atomic Numbers)          Masses                          Geom
	       2.000000             4.002603          0.00000000  0.00000000  6.58900220
	      11.000000            22.989769          0.00000000  0.00000000 -1.14716948

	 - Coordinate -           - BOHR/RAD -       - ANG/DEG -
	 R(1,2)           =         7.736172           4.093806

	        --- Internal Coordinate Step in ANG or DEG, aJ/ANG or AJ/DEG ---
	-------------------------------------------------------------------------------
	           Coordinate      Previous         Force          Change          New
	           ----------      --------        ------          ------        ------
	               R(1,2)       4.09381        0.00127        0.00120       4.09501
	-------------------------------------------------------------------------------

	                                 ==> Convergence Check <==

	Measures of convergence in internal coordinates in au.

	Criteria marked as inactive (o), active & met (*), and active & unmet ( ).

	----------------------------------------------------------------------------------------------
	   Step    Total Energy     Delta E     Max Force     RMS Force      Max Disp      RMS Disp
	----------------------------------------------------------------------------------------------
	  Convergence Criteria     1.00e-06 *    3.00e-04 *             o    1.20e-03 *             o
	----------------------------------------------------------------------------------------------
	    21    -165.19809114   -3.34e-07 *    1.54e-04 *    1.54e-04 o    2.27e-03      2.27e-03 o  ~
	----------------------------------------------------------------------------------------------

Next Geometry in Ang
	Fragment 1 (Ang)

	   He   0.0000000000   0.0000000000   3.4873509187
	   Na   0.0000000000   0.0000000000  -0.6076570569

    Final optimized geometry and variables:
    Molecular point group: c2v
    Full point group: C_inf_v

    Geometry (in Angstrom), charge = 0, multiplicity = 2:

    HE           0.000000000000     0.000000000000     3.486749807110
    NA           0.000000000000     0.000000000000    -0.607055945324

    Psi4 stopped on: Wednesday, 16 July 2025 06:22PM
    Psi4 wall time for execution: 0:00:19.35

*** Psi4 exiting successfully. Buy a developer a beer!
