                               Psi4 1.9.1 release

  ==> Input File <==

--------------------------------------------------------------------------
molecule {
0 2
Na   0.00000        0.60000        0.00000
S   0.00000       -0.60000        0.00000
}

set {
basis              cc-pvdz
reference          uks
maxiter            500
geom_maxiter       500
DAMPING_PERCENTAGE 1
guess              SAP
}

optimize('b3lyp')
--------------------------------------------------------------------------

    Molecular point group: c2v
  Charge       = 0
  Multiplicity = 2
  Basis Set: CC-PVDZ
    Blend: CC-PVDZ
  Basis Set: (CC-PVDZ AUX)
    Blend: CC-PVDZ-JKFIT + DEF2-UNIVERSAL-JKFIT
  @DF-UKS Final Energy:  -559.59548976403630
    Total Energy =                       -559.5954897640363015
 Dipole X            :          0.0000000            0.0000000            0.0000000
 Dipole Y            :          0.0000000            0.0000000            0.0000000
 Dipole Z            :          1.7011216           -0.6660660            1.0350557
 Magnitude           :                                                    1.0350557
    Molecular point group: c2v
  Basis Set: CC-PVDZ
    Blend: CC-PVDZ
  Basis Set: (CC-PVDZ AUX)
    Blend: CC-PVDZ-JKFIT + DEF2-UNIVERSAL-JKFIT
  Basis Set: CC-PVDZ
    Blend: CC-PVDZ
  Basis Set: (CC-PVDZ AUX)
    Blend: CC-PVDZ-JKFIT + DEF2-UNIVERSAL-JKFIT
  @DF-UKS Final Energy:  -559.60738370053355
    Total Energy =                       -559.6073837005336600
  Basis Set: CC-PVDZ
    Blend: CC-PVDZ
  Basis Set: (CC-PVDZ AUX)
    Blend: CC-PVDZ-JKFIT + DEF2-UNIVERSAL-JKFIT
  Basis Set: CC-PVDZ
    Blend: CC-PVDZ
  @DF-UKS Final Energy:  -559.63031825514656
    Total Energy =                       -559.6303182551465625
  @DF-UKS Final Energy:  -559.71331411203437
    Total Energy =                       -559.7133141120342543
  @DF-UKS Final Energy:  -560.08183329874385
    Total Energy =                       -560.0818332987438453
  @DF-UKS Final Energy:  -560.28146088270887
    Total Energy =                       -560.2814608827087568
  @DF-UKS Final Energy:  -560.40068963028500
    Total Energy =                       -560.4006896302850009
  @DF-UKS Final Energy:  -560.45121000255938
    Total Energy =                       -560.4512100025593782
  @DF-UKS Final Energy:  -560.47291100642519
    Total Energy =                       -560.4729110064251927
  @DF-UKS Final Energy:  -560.48100578068545
    Total Energy =                       -560.4810057806853365
  @DF-UKS Final Energy:  -560.48333627093371
    Total Energy =                       -560.4833362709337052
  @DF-UKS Final Energy:  -560.48368121066858
    Total Energy =                       -560.4836812106684647
  @DF-UKS Final Energy:  -560.48373513840704
    Total Energy =                       -560.4837351384070416
  Basis Set: (CC-PVDZ AUX)
    Blend: CC-PVDZ-JKFIT + DEF2-UNIVERSAL-JKFIT
  Basis Set: CC-PVDZ
    Blend: CC-PVDZ
  Basis Set: (CC-PVDZ AUX)
    Blend: CC-PVDZ-JKFIT + DEF2-UNIVERSAL-JKFIT
  @DF-UKS Final Energy:  -560.48374469982650
    Total Energy =                       -560.4837446998265023
  Basis Set: CC-PVDZ
    Blend: CC-PVDZ
  Basis Set: (CC-PVDZ AUX)
    Blend: CC-PVDZ-JKFIT + DEF2-UNIVERSAL-JKFIT
  Charge       = 0
  Multiplicity = 2
  Basis Set: CC-PVDZ
    Blend: CC-PVDZ
  Basis Set: (CC-PVDZ AUX)
    Blend: CC-PVDZ-JKFIT + DEF2-UNIVERSAL-JKFIT

    Orbital Energies [Eh]
    ---------------------

    Alpha Occupied:

       1A1   -88.797578     2A1   -38.533513     3A1    -7.857086
       4A1    -5.830123     1B1    -5.812235     1B2    -5.812235
       5A1    -2.278935     6A1    -1.211159     2B1    -1.209602
       2B2    -1.209602     7A1    -0.595128     8A1    -0.246468
       3B1    -0.185570     3B2    -0.185570

    Alpha Virtual:

       9A1    -0.077105     4B1    -0.004511     4B2    -0.004511
      10A1     0.017312    11A1     0.049461     5B1     0.076163
       5B2     0.076163    12A1     0.124119    13A1     0.161690
       1A2     0.161690     6B1     0.188526     6B2     0.188526
      14A1     0.267707    15A1     0.595759     7B1     0.607236
       7B2     0.607236    16A1     0.648281    17A1     0.706705
       2A2     0.706721     8B1     0.738489     8B2     0.738489
      18A1     0.981623

    Beta Occupied:

       1A1   -88.792879     2A1   -38.532886     3A1    -7.852224
       4A1    -5.814618     1B1    -5.809252     1B2    -5.809252
       5A1    -2.277848     6A1    -1.209445     2B1    -1.209038
       2B2    -1.209038     7A1    -0.551707     3B1    -0.172909
       3B2    -0.172909

    Beta Virtual:

       8A1    -0.126369     9A1    -0.064960     4B2    -0.003345
       4B1    -0.003345    10A1     0.019750    11A1     0.049991
       5B1     0.078185     5B2     0.078185    12A1     0.133313
       1A2     0.163094    13A1     0.163094     6B1     0.197448
       6B2     0.197448    14A1     0.274985     7B1     0.618840
       7B2     0.618840    15A1     0.635449    16A1     0.707879
      17A1     0.713813     2A2     0.713829     8B1     0.776951
       8B2     0.776951    18A1     0.996525

    Final Occupation by Irrep:
             A1    A2    B1    B2
    DOCC [     7,    0,    3,    3 ]
    SOCC [     1,    0,    0,    0 ]
    NA   [     8,    0,    3,    3 ]
    NB   [     7,    0,    3,    3 ]

  @DF-UKS Final Energy:  -560.48374502564570

   => Energetics <=

    Nuclear Repulsion Energy =             38.4256839738637197
    One-Electron Energy =                -855.5689768357088951
    Two-Electron Energy =                 289.0380993656569331
    DFT Exchange-Correlation Energy =     -32.3785515294575106
    Empirical Dispersion Energy =           0.0000000000000000
    VV10 Nonlocal Energy =                  0.0000000000000000
    Total Energy =                       -560.4837450256458169

  UHF NO Occupations:
  HONO-2 :    3 B2 1.9998189
  HONO-1 :    7 A1 1.9991453
  HONO-0 :    8 A1 1.0000000
  LUNO+0 :    9 A1 0.0008547
  LUNO+1 :    4 B2 0.0001811
  LUNO+2 :    4 B1 0.0001811
  LUNO+3 :   10 A1 0.0000008

Computation Completed

Properties will be evaluated at   0.000000,   0.000000,   0.000000 [a0]

Properties computed using the SCF density matrix

 Multipole Moments:

 ------------------------------------------------------------------------------------
     Multipole            Electronic (a.u.)      Nuclear  (a.u.)        Total (a.u.)
 ------------------------------------------------------------------------------------

 L = 1.  Multiply by 2.5417464519 to convert [e a0] to [Debye]
 Dipole X            :          0.0000000            0.0000000            0.0000000
 Dipole Y            :          0.0000000            0.0000000            0.0000000
 Dipole Z            :          4.5768688           -1.3453280            3.2315408
 Magnitude           :                                                    3.2315408

 ------------------------------------------------------------------------------------

*** tstop() called on Joses-MacBook-Pro-2.local at Wed Jul 16 19:48:26 2025
Module time:
	user time   =      13.85 seconds =       0.23 minutes
	system time =       3.89 seconds =       0.06 minutes
	total time  =          2 seconds =       0.03 minutes
Total time:
	user time   =     274.14 seconds =       4.57 minutes
	system time =      92.57 seconds =       1.54 minutes
	total time  =         37 seconds =       0.62 minutes

*** tstart() called on Joses-MacBook-Pro-2.local
*** at Wed Jul 16 19:48:26 2025

         ------------------------------------------------------------
                                   SCF GRAD
                          Rob Parrish, Justin Turney,
                       Andy Simmonett, and Alex Sokolov
         ------------------------------------------------------------

  ==> Geometry <==

    Molecular point group: c2v
    Full point group: C_inf_v

    Geometry (in Angstrom), charge = 0, multiplicity = 2:

       Center              X                  Y                   Z               Mass
    ------------   -----------------  -----------------  -----------------  -----------------
         NA           0.000000000000     0.000000000000     1.409943461688    22.989769282000
         S            0.000000000000     0.000000000000    -1.013830937260    31.972071174400

  Nuclear repulsion =   38.425683973863720

  ==> Basis Set <==

  Basis Set: CC-PVDZ
    Blend: CC-PVDZ
    Number of shells: 16
    Number of basis functions: 36
    Number of Cartesian functions: 38
    Spherical Harmonics?: true
    Max angular momentum: 2

  ==> DFJKGrad: Density-Fitted SCF Gradients <==

    Gradient:                    1
    J tasked:                  Yes
    K tasked:                  Yes
    wK tasked:                  No
    OpenMP threads:              1
    Integrals threads:           1
    Memory [MiB]:              375
    Schwarz Cutoff:          1E-12
    Fitting Condition:       1E-10

   => Auxiliary Basis Set <=

  Basis Set: (CC-PVDZ AUX)
    Blend: CC-PVDZ-JKFIT + DEF2-UNIVERSAL-JKFIT
    Number of shells: 70
    Number of basis functions: 224
    Number of Cartesian functions: 267
    Spherical Harmonics?: true
    Max angular momentum: 4

  ==> DFT Potential <==

   => LibXC <=

    Version 6.2.2
    S. Lehtola, C. Steigemann, M. J.T. Oliveira, and M. A.L. Marques.,  SoftwareX 7, 1â€“5 (2018) (10.1016/j.softx.2017.11.002)

   => Composite Functional: B3LYP <=

    B3LYP Hyb-GGA Exchange-Correlation Functional

    P. J. Stephens, F. J. Devlin, C. F. Chabalowski, and M. J. Frisch.,  J. Phys. Chem. 98, 11623 (1994) (10.1021/j100096a001)

    Deriv               =              1
    GGA                 =           TRUE
    Meta                =          FALSE

    Exchange Hybrid     =           TRUE
    MP2 Hybrid          =          FALSE

   => Exchange Functionals <=

    0.0800   Slater exchange
    0.7200         Becke 88

   => Exact (HF) Exchange <=

    0.2000               HF

   => Correlation Functionals <=

    0.1900   Vosko, Wilk & Nusair (VWN5_RPA)
    0.8100   Lee, Yang & Parr

   => LibXC Density Thresholds  <==

    XC_HYB_GGA_XC_B3LYP:  1.00E-15

   => Molecular Quadrature <=

    Radial Scheme          =       TREUTLER
    Pruning Scheme         =           NONE
    Nuclear Scheme         =       TREUTLER

    Blocking Scheme        =         OCTREE
    BS radius alpha        =              1
    Pruning alpha          =              1
    Radial Points          =             75
    Spherical Points       =            302
    Total Points           =          43832
    Total Blocks           =            441
    Max Points             =            256
    Max Functions          =             36
    Weights Tolerance      =       1.00E-15

  -Total Gradient:
     Atom            X                  Y                   Z
    ------   -----------------  -----------------  -----------------
       1        0.000000000000    -0.000000000000    -0.000052306231
       2        0.000000000000    -0.000000000000     0.000090142437

*** tstop() called on Joses-MacBook-Pro-2.local at Wed Jul 16 19:48:27 2025
Module time:
	user time   =       3.35 seconds =       0.06 minutes
	system time =       2.61 seconds =       0.04 minutes
	total time  =          1 seconds =       0.02 minutes
Total time:
	user time   =     277.49 seconds =       4.62 minutes
	system time =      95.19 seconds =       1.59 minutes
	total time  =         38 seconds =       0.63 minutes

    			-----------------------------------------

    			 OPTKING 3.0: for geometry optimizations

    			     By R.A. King, Bethel University

    			        with contributions from

    			    A.V. Copan, J. Cayton, A. Heide

    			-----------------------------------------

	                            ===> Fragment 1 <==

	 Z (Atomic Numbers)          Masses                          Geom
	      11.000000            22.989769          0.00000000  0.00000000  2.66440699
	      16.000000            31.972071          0.00000000  0.00000000 -1.91586281

	 - Coordinate -           - BOHR/RAD -       - ANG/DEG -
	 R(1,2)           =         4.580270           2.423774

	        --- Internal Coordinate Step in ANG or DEG, aJ/ANG or AJ/DEG ---
	-------------------------------------------------------------------------------
	           Coordinate      Previous         Force          Change          New
	           ----------      --------        ------          ------        ------
	               R(1,2)       2.42377        0.00059        0.00063       2.42441
	-------------------------------------------------------------------------------

	                                 ==> Convergence Check <==

	Measures of convergence in internal coordinates in au.

	Criteria marked as inactive (o), active & met (*), and active & unmet ( ).

	----------------------------------------------------------------------------------------------
	   Step    Total Energy     Delta E     Max Force     RMS Force      Max Disp      RMS Disp
	----------------------------------------------------------------------------------------------
	  Convergence Criteria     1.00e-06 *    3.00e-04 *             o    1.20e-03 *             o
	----------------------------------------------------------------------------------------------
	    15    -560.48374503   -3.26e-07 *    7.12e-05 *    7.12e-05 o    1.20e-03 *    1.20e-03 o  ~
	----------------------------------------------------------------------------------------------

Next Geometry in Ang
	Fragment 1 (Ang)

	   Na   0.0000000000   0.0000000000   1.4102602973
	    S   0.0000000000   0.0000000000  -1.0141477729

    Final optimized geometry and variables:
    Molecular point group: c2v
    Full point group: C_inf_v

    Geometry (in Angstrom), charge = 0, multiplicity = 2:

    NA           0.000000000000     0.000000000000     1.409943461688
    S            0.000000000000     0.000000000000    -1.013830937260

    Psi4 stopped on: Wednesday, 16 July 2025 07:48PM
    Psi4 wall time for execution: 0:00:38.29

*** Psi4 exiting successfully. Buy a developer a beer!
