                               Psi4 1.9.1 release

  ==> Input File <==

--------------------------------------------------------------------------
molecule {
0 2
Mg   0.00000        0.60000        0.00000
Cl   0.00000       -0.60000        0.00000
}

set {
basis              cc-pvdz
reference          uks
maxiter            500
geom_maxiter       500
DAMPING_PERCENTAGE 1
guess              SAP
}

optimize('b3lyp')
--------------------------------------------------------------------------

    Molecular point group: c2v
  Charge       = 0
  Multiplicity = 2
  Basis Set: CC-PVDZ
    Blend: CC-PVDZ
  Basis Set: (CC-PVDZ AUX)
    Blend: CC-PVDZ-JKFIT + DEF2-UNIVERSAL-JKFIT
  @DF-UKS Final Energy:  -659.18696773817214
    Total Energy =                       -659.1869677381721431
 Dipole X            :          0.0000000            0.0000000            0.0000000
 Dipole Y            :          0.0000000            0.0000000            0.0000000
 Dipole Z            :         -0.5044030            0.4569863           -0.0474167
 Magnitude           :                                                    0.0474167
    Molecular point group: c2v
  Basis Set: CC-PVDZ
    Blend: CC-PVDZ
  Basis Set: (CC-PVDZ AUX)
    Blend: CC-PVDZ-JKFIT + DEF2-UNIVERSAL-JKFIT
  Basis Set: CC-PVDZ
    Blend: CC-PVDZ
  Basis Set: (CC-PVDZ AUX)
    Blend: CC-PVDZ-JKFIT + DEF2-UNIVERSAL-JKFIT
  @DF-UKS Final Energy:  -659.21200556915676
    Total Energy =                       -659.2120055691567586
  Basis Set: CC-PVDZ
    Blend: CC-PVDZ
  Basis Set: (CC-PVDZ AUX)
    Blend: CC-PVDZ-JKFIT + DEF2-UNIVERSAL-JKFIT
  Basis Set: CC-PVDZ
    Blend: CC-PVDZ
  @DF-UKS Final Energy:  -659.25987711827122
    Total Energy =                       -659.2598771182712198
  @DF-UKS Final Energy:  -659.42847094578804
    Total Energy =                       -659.4284709457880354
  @DF-UKS Final Energy:  -660.00967957236890
    Total Energy =                       -660.0096795723687819
  @DF-UKS Final Energy:  -660.20256599200547
    Total Energy =                       -660.2025659920055887
  @DF-UKS Final Energy:  -660.29724889740328
    Total Energy =                       -660.2972488974033922
  @DF-UKS Final Energy:  -660.33985128452491
    Total Energy =                       -660.3398512845249115
  @DF-UKS Final Energy:  -660.35663982057076
    Total Energy =                       -660.3566398205707628
  @DF-UKS Final Energy:  -660.36159347889748
    Total Energy =                       -660.3615934788973618
  @DF-UKS Final Energy:  -660.36237260728251
    Total Energy =                       -660.3623726072825093
  @DF-UKS Final Energy:  -660.36251048406359
    Total Energy =                       -660.3625104840635913
  @DF-UKS Final Energy:  -660.36254035243962
    Total Energy =                       -660.3625403524396233
  Basis Set: (CC-PVDZ AUX)
    Blend: CC-PVDZ-JKFIT + DEF2-UNIVERSAL-JKFIT
  Basis Set: CC-PVDZ
    Blend: CC-PVDZ
  Basis Set: (CC-PVDZ AUX)
    Blend: CC-PVDZ-JKFIT + DEF2-UNIVERSAL-JKFIT
  @DF-UKS Final Energy:  -660.36254251395542
    Total Energy =                       -660.3625425139555318
  Basis Set: CC-PVDZ
    Blend: CC-PVDZ
  Basis Set: (CC-PVDZ AUX)
    Blend: CC-PVDZ-JKFIT + DEF2-UNIVERSAL-JKFIT
  Charge       = 0
  Multiplicity = 2
  Basis Set: CC-PVDZ
    Blend: CC-PVDZ
  Basis Set: (CC-PVDZ AUX)
    Blend: CC-PVDZ-JKFIT + DEF2-UNIVERSAL-JKFIT

    Orbital Energies [Eh]
    ---------------------

    Alpha Occupied:

       1A1  -101.486137     2A1   -46.873942     3A1    -9.404527
       4A1    -7.163227     1B2    -7.159557     1B1    -7.159557
       5A1    -3.155375     2B2    -1.899455     2B1    -1.899455
       6A1    -1.897205     7A1    -0.759098     8A1    -0.337165
       3B1    -0.288848     3B2    -0.288848     9A1    -0.205652

    Alpha Virtual:

       4B2    -0.042042     4B1    -0.042042    10A1     0.013918
      11A1     0.084313     5B1     0.138458     5B2     0.138458
      12A1     0.185607     1A2     0.282398    13A1     0.282399
       6B1     0.289934     6B2     0.289934    14A1     0.374899
       7B2     0.620553     7B1     0.620553    15A1     0.659365
      16A1     0.784108     2A2     0.784121    17A1     0.791999
       8B1     0.869178     8B2     0.869178    18A1     1.241003

    Beta Occupied:

       1A1  -101.485407     2A1   -46.871556     3A1    -9.403793
       4A1    -7.160977     1B1    -7.159129     1B2    -7.159129
       5A1    -3.151201     2B2    -1.896774     2B1    -1.896774
       6A1    -1.893002     7A1    -0.754542     8A1    -0.327458
       3B1    -0.287608     3B2    -0.287608

    Beta Virtual:

       9A1    -0.118699     4B2    -0.019668     4B1    -0.019668
      10A1     0.027275    11A1     0.100044     5B1     0.150534
       5B2     0.150534    12A1     0.207759    13A1     0.307370
       1A2     0.307371     6B1     0.316904     6B2     0.316904
      14A1     0.391350     7B2     0.622409     7B1     0.622409
      15A1     0.668927    16A1     0.785087     2A2     0.785100
      17A1     0.796381     8B1     0.875735     8B2     0.875735
      18A1     1.247117

    Final Occupation by Irrep:
             A1    A2    B1    B2
    DOCC [     8,    0,    3,    3 ]
    SOCC [     1,    0,    0,    0 ]
    NA   [     9,    0,    3,    3 ]
    NB   [     8,    0,    3,    3 ]

  @DF-UKS Final Energy:  -660.36254265769048

   => Energetics <=

    Nuclear Repulsion Energy =             48.2699086929783761
    One-Electron Energy =               -1011.8622559127168188
    Two-Electron Energy =                 339.3190187721991151
    DFT Exchange-Correlation Energy =     -36.0892142101511055
    Empirical Dispersion Energy =           0.0000000000000000
    VV10 Nonlocal Energy =                  0.0000000000000000
    Total Energy =                       -660.3625426576904829

  UHF NO Occupations:
  HONO-2 :    3 B1 1.9999618
  HONO-1 :    8 A1 1.9997732
  HONO-0 :    9 A1 1.0000000
  LUNO+0 :   10 A1 0.0002268
  LUNO+1 :    4 B1 0.0000382
  LUNO+2 :    4 B2 0.0000382
  LUNO+3 :   11 A1 0.0000067

Computation Completed

Properties will be evaluated at   0.000000,   0.000000,   0.000000 [a0]

Properties computed using the SCF density matrix

 Multipole Moments:

 ------------------------------------------------------------------------------------
     Multipole            Electronic (a.u.)      Nuclear  (a.u.)        Total (a.u.)
 ------------------------------------------------------------------------------------

 L = 1.  Multiply by 2.5417464519 to convert [e a0] to [Debye]
 Dipole X            :          0.0000000            0.0000000            0.0000000
 Dipole Y            :          0.0000000            0.0000000            0.0000000
 Dipole Z            :          0.4967563            0.8516806            1.3484370
 Magnitude           :                                                    1.3484370

 ------------------------------------------------------------------------------------

*** tstop() called on Joses-MacBook-Pro-2.local at Wed Jul 16 20:00:52 2025
Module time:
	user time   =       6.50 seconds =       0.11 minutes
	system time =       2.98 seconds =       0.05 minutes
	total time  =          0 seconds =       0.00 minutes
Total time:
	user time   =     168.68 seconds =       2.81 minutes
	system time =      59.90 seconds =       1.00 minutes
	total time  =         21 seconds =       0.35 minutes

*** tstart() called on Joses-MacBook-Pro-2.local
*** at Wed Jul 16 20:00:52 2025

         ------------------------------------------------------------
                                   SCF GRAD
                          Rob Parrish, Justin Turney,
                       Andy Simmonett, and Alex Sokolov
         ------------------------------------------------------------

  ==> Geometry <==

    Molecular point group: c2v
    Full point group: C_inf_v

    Geometry (in Angstrom), charge = 0, multiplicity = 2:

       Center              X                  Y                   Z               Mass
    ------------   -----------------  -----------------  -----------------  -----------------
         MG           0.000000000000     0.000000000000     1.326550254677    23.985041697000
         CL           0.000000000000     0.000000000000    -0.909877240210    34.968852682000

  Nuclear repulsion =   48.269908692978376

  ==> Basis Set <==

  Basis Set: CC-PVDZ
    Blend: CC-PVDZ
    Number of shells: 16
    Number of basis functions: 36
    Number of Cartesian functions: 38
    Spherical Harmonics?: true
    Max angular momentum: 2

  ==> DFJKGrad: Density-Fitted SCF Gradients <==

    Gradient:                    1
    J tasked:                  Yes
    K tasked:                  Yes
    wK tasked:                  No
    OpenMP threads:              1
    Integrals threads:           1
    Memory [MiB]:              375
    Schwarz Cutoff:          1E-12
    Fitting Condition:       1E-10

   => Auxiliary Basis Set <=

  Basis Set: (CC-PVDZ AUX)
    Blend: CC-PVDZ-JKFIT + DEF2-UNIVERSAL-JKFIT
    Number of shells: 70
    Number of basis functions: 224
    Number of Cartesian functions: 267
    Spherical Harmonics?: true
    Max angular momentum: 4

  ==> DFT Potential <==

   => LibXC <=

    Version 6.2.2
    S. Lehtola, C. Steigemann, M. J.T. Oliveira, and M. A.L. Marques.,  SoftwareX 7, 1â€“5 (2018) (10.1016/j.softx.2017.11.002)

   => Composite Functional: B3LYP <=

    B3LYP Hyb-GGA Exchange-Correlation Functional

    P. J. Stephens, F. J. Devlin, C. F. Chabalowski, and M. J. Frisch.,  J. Phys. Chem. 98, 11623 (1994) (10.1021/j100096a001)

    Deriv               =              1
    GGA                 =           TRUE
    Meta                =          FALSE

    Exchange Hybrid     =           TRUE
    MP2 Hybrid          =          FALSE

   => Exchange Functionals <=

    0.0800   Slater exchange
    0.7200         Becke 88

   => Exact (HF) Exchange <=

    0.2000               HF

   => Correlation Functionals <=

    0.1900   Vosko, Wilk & Nusair (VWN5_RPA)
    0.8100   Lee, Yang & Parr

   => LibXC Density Thresholds  <==

    XC_HYB_GGA_XC_B3LYP:  1.00E-15

   => Molecular Quadrature <=

    Radial Scheme          =       TREUTLER
    Pruning Scheme         =           NONE
    Nuclear Scheme         =       TREUTLER

    Blocking Scheme        =         OCTREE
    BS radius alpha        =              1
    Pruning alpha          =              1
    Radial Points          =             75
    Spherical Points       =            302
    Total Points           =          43001
    Total Blocks           =            419
    Max Points             =            252
    Max Functions          =             36
    Weights Tolerance      =       1.00E-15

  -Total Gradient:
     Atom            X                  Y                   Z
    ------   -----------------  -----------------  -----------------
       1        0.000000000000    -0.000000000000     0.000017033714
       2       -0.000000000000    -0.000000000000     0.000069378557

*** tstop() called on Joses-MacBook-Pro-2.local at Wed Jul 16 20:00:53 2025
Module time:
	user time   =       2.68 seconds =       0.04 minutes
	system time =       1.74 seconds =       0.03 minutes
	total time  =          1 seconds =       0.02 minutes
Total time:
	user time   =     171.36 seconds =       2.86 minutes
	system time =      61.65 seconds =       1.03 minutes
	total time  =         22 seconds =       0.37 minutes

    			-----------------------------------------

    			 OPTKING 3.0: for geometry optimizations

    			     By R.A. King, Bethel University

    			        with contributions from

    			    A.V. Copan, J. Cayton, A. Heide

    			-----------------------------------------

	                            ===> Fragment 1 <==

	 Z (Atomic Numbers)          Masses                          Geom
	      12.000000            23.985042          0.00000000  0.00000000  2.50681667
	      17.000000            34.968853          0.00000000  0.00000000 -1.71941879

	 - Coordinate -           - BOHR/RAD -       - ANG/DEG -
	 R(1,2)           =         4.226235           2.236427

	        --- Internal Coordinate Step in ANG or DEG, aJ/ANG or AJ/DEG ---
	-------------------------------------------------------------------------------
	           Coordinate      Previous         Force          Change          New
	           ----------      --------        ------          ------        ------
	               R(1,2)       2.23643        0.00022        0.00012       2.23655
	-------------------------------------------------------------------------------

	                                 ==> Convergence Check <==

	Measures of convergence in internal coordinates in au.

	Criteria marked as inactive (o), active & met (*), and active & unmet ( ).

	----------------------------------------------------------------------------------------------
	   Step    Total Energy     Delta E     Max Force     RMS Force      Max Disp      RMS Disp
	----------------------------------------------------------------------------------------------
	  Convergence Criteria     1.00e-06 *    3.00e-04 *             o    1.20e-03 *             o
	----------------------------------------------------------------------------------------------
	    15    -660.36254266   -1.44e-07 *    2.62e-05 *    2.62e-05 o    2.29e-04 *    2.29e-04 o  ~
	----------------------------------------------------------------------------------------------

Next Geometry in Ang
	Fragment 1 (Ang)

	   Mg   0.0000000000   0.0000000000   1.3266108367
	   Cl   0.0000000000   0.0000000000  -0.9099378223

    Final optimized geometry and variables:
    Molecular point group: c2v
    Full point group: C_inf_v

    Geometry (in Angstrom), charge = 0, multiplicity = 2:

    MG           0.000000000000     0.000000000000     1.326550254677
    CL           0.000000000000     0.000000000000    -0.909877240210

    Psi4 stopped on: Wednesday, 16 July 2025 08:00PM
    Psi4 wall time for execution: 0:00:22.68

*** Psi4 exiting successfully. Buy a developer a beer!
