                               Psi4 1.9.1 release

  ==> Input File <==

--------------------------------------------------------------------------
molecule {
0 2
O   0.00000        0.60000        0.00000
Na   0.00000       -0.60000        0.00000
}

set {
basis              cc-pvdz
reference          uks
maxiter            500
geom_maxiter       500
DAMPING_PERCENTAGE 1
guess              SAP
}

optimize('b3lyp')
--------------------------------------------------------------------------

    Molecular point group: c2v
  Charge       = 0
  Multiplicity = 2
  Basis Set: CC-PVDZ
    Blend: CC-PVDZ
  Basis Set: (CC-PVDZ AUX)
    Blend: CC-PVDZ-JKFIT + DEF2-UNIVERSAL-JKFIT
  @DF-UKS Final Energy:  -237.02716542346332
    Total Energy =                       -237.0271654234633161
 Dipole X            :          0.0000000            0.0000000            0.0000000
 Dipole Y            :          0.0000000            0.0000000            0.0000000
 Dipole Z            :         -2.3114342            0.4638392           -1.8475951
 Magnitude           :                                                    1.8475951
    Molecular point group: c2v
  Basis Set: CC-PVDZ
    Blend: CC-PVDZ
  Basis Set: (CC-PVDZ AUX)
    Blend: CC-PVDZ-JKFIT + DEF2-UNIVERSAL-JKFIT
  Basis Set: CC-PVDZ
    Blend: CC-PVDZ
  Basis Set: (CC-PVDZ AUX)
    Blend: CC-PVDZ-JKFIT + DEF2-UNIVERSAL-JKFIT
  @DF-UKS Final Energy:  -237.21755290224164
    Total Energy =                       -237.2175529022416356
  Basis Set: CC-PVDZ
    Blend: CC-PVDZ
  Basis Set: (CC-PVDZ AUX)
    Blend: CC-PVDZ-JKFIT + DEF2-UNIVERSAL-JKFIT
  Basis Set: CC-PVDZ
    Blend: CC-PVDZ
  @DF-UKS Final Energy:  -237.34709875121979
    Total Energy =                       -237.3470987512197894
  @DF-UKS Final Energy:  -237.40842501345293
    Total Energy =                       -237.4084250134529270
  @DF-UKS Final Energy:  -237.43309995961192
    Total Energy =                       -237.4330999596119227
  @DF-UKS Final Energy:  -237.44013354426170
    Total Energy =                       -237.4401335442616983
  @DF-UKS Final Energy:  -237.44318712803093
    Total Energy =                       -237.4431871280309281
  @DF-UKS Final Energy:  -237.44389835152253
    Total Energy =                       -237.4438983515225345
  @DF-UKS Final Energy:  -237.44412030186061
    Total Energy =                       -237.4441203018606075
  @DF-UKS Final Energy:  -237.44414885439514
    Total Energy =                       -237.4441488543951380
  Basis Set: (CC-PVDZ AUX)
    Blend: CC-PVDZ-JKFIT + DEF2-UNIVERSAL-JKFIT
  Basis Set: CC-PVDZ
    Blend: CC-PVDZ
  Basis Set: (CC-PVDZ AUX)
    Blend: CC-PVDZ-JKFIT + DEF2-UNIVERSAL-JKFIT
  @DF-UKS Final Energy:  -237.44415276698086
    Total Energy =                       -237.4441527669808636
  Basis Set: CC-PVDZ
    Blend: CC-PVDZ
  Basis Set: (CC-PVDZ AUX)
    Blend: CC-PVDZ-JKFIT + DEF2-UNIVERSAL-JKFIT
  Charge       = 0
  Multiplicity = 2
  Basis Set: CC-PVDZ
    Blend: CC-PVDZ
  Basis Set: (CC-PVDZ AUX)
    Blend: CC-PVDZ-JKFIT + DEF2-UNIVERSAL-JKFIT

    Orbital Energies [Eh]
    ---------------------

    Alpha Occupied:

       1A1   -38.492030     2A1   -19.049476     3A1    -2.240898
       4A1    -1.174210     1B2    -1.171833     1B1    -1.171833
       5A1    -0.795767     6A1    -0.271471     2B1    -0.196801
       2B2    -0.196801

    Alpha Virtual:

       7A1    -0.065893     3B1     0.002733     3B2     0.002733
       8A1     0.026658     9A1     0.059212     4B1     0.092944
       4B2     0.092944    10A1     0.134512     1A2     0.181033
      11A1     0.181033     5B2     0.228024     5B1     0.228024
      12A1     0.294203    13A1     1.032334     6B1     1.140497
       6B2     1.140497    14A1     1.706854    15A1     2.641384
       7B1     2.671960     7B2     2.671960     2A2     2.727924
      16A1     2.728062

    Beta Occupied:

       1A1   -38.491370     2A1   -19.025381     3A1    -2.239789
       1B2    -1.171343     1B1    -1.171343     4A1    -1.171243
       5A1    -0.718560     2B1    -0.169500     2B2    -0.169500

    Beta Virtual:

       6A1    -0.077258     7A1    -0.029095     3B1     0.003952
       3B2     0.003952     8A1     0.028258     9A1     0.061018
       4B1     0.094461     4B2     0.094461    10A1     0.145828
       1A2     0.181521    11A1     0.181522     5B2     0.232955
       5B1     0.232955    12A1     0.299894    13A1     1.128148
       6B1     1.157802     6B2     1.157802    14A1     1.744598
       2A2     2.744086    15A1     2.744234     7B1     2.752244
       7B2     2.752244    16A1     2.753290

    Final Occupation by Irrep:
             A1    A2    B1    B2
    DOCC [     5,    0,    2,    2 ]
    SOCC [     1,    0,    0,    0 ]
    NA   [     6,    0,    2,    2 ]
    NB   [     5,    0,    2,    2 ]

  @DF-UKS Final Energy:  -237.44415290056557

   => Energetics <=

    Nuclear Repulsion Energy =             24.1147751933904004
    One-Electron Energy =                -380.6914709630392508
    Two-Electron Energy =                 137.7517592326289844
    DFT Exchange-Correlation Energy =     -18.6192163635457071
    Empirical Dispersion Energy =           0.0000000000000000
    VV10 Nonlocal Energy =                  0.0000000000000000
    Total Energy =                       -237.4441529005655696

  UHF NO Occupations:
  HONO-2 :    2 B2 1.9989467
  HONO-1 :    2 B1 1.9989467
  HONO-0 :    6 A1 1.0000000
  LUNO+0 :    3 B1 0.0010533
  LUNO+1 :    3 B2 0.0010533
  LUNO+2 :    7 A1 0.0004893
  LUNO+3 :    8 A1 0.0000018

Computation Completed

Properties will be evaluated at   0.000000,   0.000000,   0.000000 [a0]

Properties computed using the SCF density matrix

 Multipole Moments:

 ------------------------------------------------------------------------------------
     Multipole            Electronic (a.u.)      Nuclear  (a.u.)        Total (a.u.)
 ------------------------------------------------------------------------------------

 L = 1.  Multiply by 2.5417464519 to convert [e a0] to [Debye]
 Dipole X            :          0.0000000            0.0000000            0.0000000
 Dipole Y            :          0.0000000            0.0000000            0.0000000
 Dipole Z            :         -3.6272904            0.7464260           -2.8808644
 Magnitude           :                                                    2.8808644

 ------------------------------------------------------------------------------------

*** tstop() called on Joses-MacBook-Pro-2.local at Wed Jul 16 19:18:39 2025
Module time:
	user time   =       2.02 seconds =       0.03 minutes
	system time =       4.25 seconds =       0.07 minutes
	total time  =          1 seconds =       0.02 minutes
Total time:
	user time   =      56.71 seconds =       0.95 minutes
	system time =      82.23 seconds =       1.37 minutes
	total time  =         15 seconds =       0.25 minutes

*** tstart() called on Joses-MacBook-Pro-2.local
*** at Wed Jul 16 19:18:39 2025

         ------------------------------------------------------------
                                   SCF GRAD
                          Rob Parrish, Justin Turney,
                       Andy Simmonett, and Alex Sokolov
         ------------------------------------------------------------

  ==> Geometry <==

    Molecular point group: c2v
    Full point group: C_inf_v

    Geometry (in Angstrom), charge = 0, multiplicity = 2:

       Center              X                  Y                   Z               Mass
    ------------   -----------------  -----------------  -----------------  -----------------
         O            0.000000000000     0.000000000000     1.138783544536    15.994914619570
         NA           0.000000000000     0.000000000000    -0.792297884402    22.989769282000

  Nuclear repulsion =   24.114775193390400

  ==> Basis Set <==

  Basis Set: CC-PVDZ
    Blend: CC-PVDZ
    Number of shells: 14
    Number of basis functions: 32
    Number of Cartesian functions: 34
    Spherical Harmonics?: true
    Max angular momentum: 2

  ==> DFJKGrad: Density-Fitted SCF Gradients <==

    Gradient:                    1
    J tasked:                  Yes
    K tasked:                  Yes
    wK tasked:                  No
    OpenMP threads:              1
    Integrals threads:           1
    Memory [MiB]:              375
    Schwarz Cutoff:          1E-12
    Fitting Condition:       1E-10

   => Auxiliary Basis Set <=

  Basis Set: (CC-PVDZ AUX)
    Blend: CC-PVDZ-JKFIT + DEF2-UNIVERSAL-JKFIT
    Number of shells: 58
    Number of basis functions: 182
    Number of Cartesian functions: 218
    Spherical Harmonics?: true
    Max angular momentum: 4

  ==> DFT Potential <==

   => LibXC <=

    Version 6.2.2
    S. Lehtola, C. Steigemann, M. J.T. Oliveira, and M. A.L. Marques.,  SoftwareX 7, 1â€“5 (2018) (10.1016/j.softx.2017.11.002)

   => Composite Functional: B3LYP <=

    B3LYP Hyb-GGA Exchange-Correlation Functional

    P. J. Stephens, F. J. Devlin, C. F. Chabalowski, and M. J. Frisch.,  J. Phys. Chem. 98, 11623 (1994) (10.1021/j100096a001)

    Deriv               =              1
    GGA                 =           TRUE
    Meta                =          FALSE

    Exchange Hybrid     =           TRUE
    MP2 Hybrid          =          FALSE

   => Exchange Functionals <=

    0.0800   Slater exchange
    0.7200         Becke 88

   => Exact (HF) Exchange <=

    0.2000               HF

   => Correlation Functionals <=

    0.1900   Vosko, Wilk & Nusair (VWN5_RPA)
    0.8100   Lee, Yang & Parr

   => LibXC Density Thresholds  <==

    XC_HYB_GGA_XC_B3LYP:  1.00E-15

   => Molecular Quadrature <=

    Radial Scheme          =       TREUTLER
    Pruning Scheme         =           NONE
    Nuclear Scheme         =       TREUTLER

    Blocking Scheme        =         OCTREE
    BS radius alpha        =              1
    Pruning alpha          =              1
    Radial Points          =             75
    Spherical Points       =            302
    Total Points           =          43773
    Total Blocks           =            425
    Max Points             =            254
    Max Functions          =             32
    Weights Tolerance      =       1.00E-15

  -Total Gradient:
     Atom            X                  Y                   Z
    ------   -----------------  -----------------  -----------------
       1        0.000000000000     0.000000000000    -0.000078002669
       2       -0.000000000000     0.000000000000    -0.000001377841

*** tstop() called on Joses-MacBook-Pro-2.local at Wed Jul 16 19:18:39 2025
Module time:
	user time   =       0.63 seconds =       0.01 minutes
	system time =       1.87 seconds =       0.03 minutes
	total time  =          0 seconds =       0.00 minutes
Total time:
	user time   =      57.34 seconds =       0.96 minutes
	system time =      84.10 seconds =       1.40 minutes
	total time  =         15 seconds =       0.25 minutes

    			-----------------------------------------

    			 OPTKING 3.0: for geometry optimizations

    			     By R.A. King, Bethel University

    			        with contributions from

    			    A.V. Copan, J. Cayton, A. Heide

    			-----------------------------------------

	                            ===> Fragment 1 <==

	 Z (Atomic Numbers)          Masses                          Geom
	       8.000000            15.994915          0.00000000  0.00000000  2.15198902
	      11.000000            22.989769          0.00000000  0.00000000 -1.49722601

	 - Coordinate -           - BOHR/RAD -       - ANG/DEG -
	 R(1,2)           =         3.649215           1.931081

	        --- Internal Coordinate Step in ANG or DEG, aJ/ANG or AJ/DEG ---
	-------------------------------------------------------------------------------
	           Coordinate      Previous         Force          Change          New
	           ----------      --------        ------          ------        ------
	               R(1,2)       1.93108        0.00032        0.00016       1.93124
	-------------------------------------------------------------------------------

	                                 ==> Convergence Check <==

	Measures of convergence in internal coordinates in au.

	Criteria marked as inactive (o), active & met (*), and active & unmet ( ).

	----------------------------------------------------------------------------------------------
	   Step    Total Energy     Delta E     Max Force     RMS Force      Max Disp      RMS Disp
	----------------------------------------------------------------------------------------------
	  Convergence Criteria     1.00e-06 *    3.00e-04 *             o    1.20e-03 *             o
	----------------------------------------------------------------------------------------------
	    12    -237.44415290   -1.34e-07 *    3.83e-05 *    3.83e-05 o    3.06e-04 *    3.06e-04 o  ~
	----------------------------------------------------------------------------------------------

Next Geometry in Ang
	Fragment 1 (Ang)

	    O   0.0000000000   0.0000000000   1.1388645620
	   Na   0.0000000000   0.0000000000  -0.7923789019

    Final optimized geometry and variables:
    Molecular point group: c2v
    Full point group: C_inf_v

    Geometry (in Angstrom), charge = 0, multiplicity = 2:

    O            0.000000000000     0.000000000000     1.138783544536
    NA           0.000000000000     0.000000000000    -0.792297884402

    Psi4 stopped on: Wednesday, 16 July 2025 07:18PM
    Psi4 wall time for execution: 0:00:16.04

*** Psi4 exiting successfully. Buy a developer a beer!
