                               Psi4 1.9.1 release

  ==> Input File <==

--------------------------------------------------------------------------
molecule {
0 2
Li   0.00000        0.60000        0.00000
Si   0.00000       -0.60000        0.00000
}

set {
basis              cc-pvdz
reference          uks
maxiter            500
geom_maxiter       500
DAMPING_PERCENTAGE 1
guess              SAP
}

optimize('b3lyp')
--------------------------------------------------------------------------

    Molecular point group: c2v
  Charge       = 0
  Multiplicity = 2
  Basis Set: CC-PVDZ
    Blend: CC-PVDZ
  Basis Set: (CC-PVDZ AUX)
    Blend: CC-PVDZ-JKFIT + DEF2-UNIVERSAL-JKFIT
  @DF-UKS Final Energy:  -296.54020506272394
    Total Energy =                       -296.5402050627239419
 Dipole X            :          0.0000000            0.0000000            0.0000000
 Dipole Y            :          0.0000000            0.0000000            0.0000000
 Dipole Z            :          1.2872625           -0.9262567            0.3610058
 Magnitude           :                                                    0.3610058
    Molecular point group: c2v
  Basis Set: CC-PVDZ
    Blend: CC-PVDZ
  Basis Set: (CC-PVDZ AUX)
    Blend: CC-PVDZ-JKFIT + DEF2-UNIVERSAL-JKFIT
  Basis Set: CC-PVDZ
    Blend: CC-PVDZ
  Basis Set: (CC-PVDZ AUX)
    Blend: CC-PVDZ-JKFIT + DEF2-UNIVERSAL-JKFIT
  @DF-UKS Final Energy:  -296.61217759463727
    Total Energy =                       -296.6121775946372736
  Basis Set: CC-PVDZ
    Blend: CC-PVDZ
  Basis Set: (CC-PVDZ AUX)
    Blend: CC-PVDZ-JKFIT + DEF2-UNIVERSAL-JKFIT
  Basis Set: CC-PVDZ
    Blend: CC-PVDZ
  @DF-UKS Final Energy:  -296.69707295037512
    Total Energy =                       -296.6970729503751159
  @DF-UKS Final Energy:  -296.79506794323817
    Total Energy =                       -296.7950679432381094
  @DF-UKS Final Energy:  -296.84286180568415
    Total Energy =                       -296.8428618056841515
  @DF-UKS Final Energy:  -296.86302167278382
    Total Energy =                       -296.8630216727838160
  @DF-UKS Final Energy:  -296.87036440870946
    Total Energy =                       -296.8703644087094062
  @DF-UKS Final Energy:  -296.87235545111201
    Total Energy =                       -296.8723554511120710
  @DF-UKS Final Energy:  -296.87262857835731
    Total Energy =                       -296.8726285783573076
  @DF-UKS Final Energy:  -296.87267382345834
    Total Energy =                       -296.8726738234583422
  Basis Set: (CC-PVDZ AUX)
    Blend: CC-PVDZ-JKFIT + DEF2-UNIVERSAL-JKFIT
  Basis Set: CC-PVDZ
    Blend: CC-PVDZ
  Basis Set: (CC-PVDZ AUX)
    Blend: CC-PVDZ-JKFIT + DEF2-UNIVERSAL-JKFIT
  @DF-UKS Final Energy:  -296.87267625254026
    Total Energy =                       -296.8726762525402592
  Basis Set: CC-PVDZ
    Blend: CC-PVDZ
  Basis Set: (CC-PVDZ AUX)
    Blend: CC-PVDZ-JKFIT + DEF2-UNIVERSAL-JKFIT
  Charge       = 0
  Multiplicity = 2
  Basis Set: CC-PVDZ
    Blend: CC-PVDZ
  Basis Set: (CC-PVDZ AUX)
    Blend: CC-PVDZ-JKFIT + DEF2-UNIVERSAL-JKFIT

    Orbital Energies [Eh]
    ---------------------

    Alpha Occupied:

       1A1   -66.129225     2A1    -5.271971     3A1    -3.636141
       1B2    -3.632061     1B1    -3.622757     4A1    -2.087629
       5A1    -0.418723     2B2    -0.169614     2B1    -0.142291

    Alpha Virtual:

       6A1    -0.134831     7A1    -0.060897     3B2    -0.004495
       3B1    -0.001406     8A1     0.024612     4B2     0.061191
       4B1     0.063018     9A1     0.073035    10A1     0.186011
       1A2     0.207436    11A1     0.207998     5B2     0.233357
       5B1     0.239186    12A1     0.270384     6B2     0.354165
       6B1     0.374441    13A1     0.383382     2A2     0.418642
      14A1     0.421166    15A1     0.510287     7B2     0.538695
       7B1     0.555498    16A1     0.914965

    Beta Occupied:

       1A1   -66.126593     2A1    -5.268990     3A1    -3.634652
       1B2    -3.622668     1B1    -3.620743     4A1    -2.087588
       5A1    -0.388599     2B1    -0.134035

    Beta Virtual:

       6A1    -0.125790     2B2    -0.077007     7A1    -0.060782
       3B1    -0.001276     3B2     0.011994     8A1     0.027151
       4B1     0.061331     4B2     0.068726     9A1     0.072518
      10A1     0.191233     1A2     0.212518    11A1     0.219316
       5B1     0.238493     5B2     0.250801    12A1     0.276471
       6B1     0.379479     6B2     0.386091    13A1     0.395560
       2A2     0.451097    14A1     0.455021    15A1     0.516473
       7B1     0.558084     7B2     0.567510    16A1     0.921350

    Final Occupation by Irrep:
             A1    A2    B1    B2
    DOCC [     5,    0,    2,    1 ]
    SOCC [     0,    0,    0,    1 ]
    NA   [     5,    0,    2,    2 ]
    NB   [     5,    0,    2,    1 ]

  @DF-UKS Final Energy:  -296.87267639172450

   => Energetics <=

    Nuclear Repulsion Energy =              9.8115966280183180
    One-Electron Energy =                -430.3179804300046953
    Two-Electron Energy =                 141.9296348601069155
    DFT Exchange-Correlation Energy =     -18.2959274498449957
    Empirical Dispersion Energy =           0.0000000000000000
    VV10 Nonlocal Energy =                  0.0000000000000000
    Total Energy =                       -296.8726763917244966

  UHF NO Occupations:
  HONO-2 :    2 B1 1.9987045
  HONO-1 :    5 A1 1.9986947
  HONO-0 :    2 B2 1.0000000
  LUNO+0 :    6 A1 0.0013053
  LUNO+1 :    3 B1 0.0012955
  LUNO+2 :    7 A1 0.0000000
  LUNO+3 :    3 B2 0.0000000

Computation Completed

Properties will be evaluated at   0.000000,   0.000000,   0.000000 [a0]

Properties computed using the SCF density matrix

 Multipole Moments:

 ------------------------------------------------------------------------------------
     Multipole            Electronic (a.u.)      Nuclear  (a.u.)        Total (a.u.)
 ------------------------------------------------------------------------------------

 L = 1.  Multiply by 2.5417464519 to convert [e a0] to [Debye]
 Dipole X            :          0.0000000            0.0000000            0.0000000
 Dipole Y            :          0.0000000            0.0000000            0.0000000
 Dipole Z            :          3.3481635           -1.7484807            1.5996828
 Magnitude           :                                                    1.5996828

 ------------------------------------------------------------------------------------

*** tstop() called on Joses-MacBook-Pro-2.local at Wed Jul 16 18:34:31 2025
Module time:
	user time   =       3.05 seconds =       0.05 minutes
	system time =       3.77 seconds =       0.06 minutes
	total time  =          1 seconds =       0.02 minutes
Total time:
	user time   =      63.43 seconds =       1.06 minutes
	system time =      66.67 seconds =       1.11 minutes
	total time  =         13 seconds =       0.22 minutes

*** tstart() called on Joses-MacBook-Pro-2.local
*** at Wed Jul 16 18:34:31 2025

         ------------------------------------------------------------
                                   SCF GRAD
                          Rob Parrish, Justin Turney,
                       Andy Simmonett, and Alex Sokolov
         ------------------------------------------------------------

  ==> Geometry <==

    Molecular point group: c2v
    Full point group: C_inf_v

    Geometry (in Angstrom), charge = 0, multiplicity = 2:

       Center              X                  Y                   Z               Mass
    ------------   -----------------  -----------------  -----------------  -----------------
         LI           0.000000000000     0.000000000000     1.811049966818     7.016003436600
         SI           0.000000000000     0.000000000000    -0.454171861062    27.976926534650

  Nuclear repulsion =    9.811596628018318

  ==> Basis Set <==

  Basis Set: CC-PVDZ
    Blend: CC-PVDZ
    Number of shells: 14
    Number of basis functions: 32
    Number of Cartesian functions: 34
    Spherical Harmonics?: true
    Max angular momentum: 2

  ==> DFJKGrad: Density-Fitted SCF Gradients <==

    Gradient:                    1
    J tasked:                  Yes
    K tasked:                  Yes
    wK tasked:                  No
    OpenMP threads:              1
    Integrals threads:           1
    Memory [MiB]:              375
    Schwarz Cutoff:          1E-12
    Fitting Condition:       1E-10

   => Auxiliary Basis Set <=

  Basis Set: (CC-PVDZ AUX)
    Blend: CC-PVDZ-JKFIT + DEF2-UNIVERSAL-JKFIT
    Number of shells: 53
    Number of basis functions: 163
    Number of Cartesian functions: 190
    Spherical Harmonics?: true
    Max angular momentum: 3

  ==> DFT Potential <==

   => LibXC <=

    Version 6.2.2
    S. Lehtola, C. Steigemann, M. J.T. Oliveira, and M. A.L. Marques.,  SoftwareX 7, 1â€“5 (2018) (10.1016/j.softx.2017.11.002)

   => Composite Functional: B3LYP <=

    B3LYP Hyb-GGA Exchange-Correlation Functional

    P. J. Stephens, F. J. Devlin, C. F. Chabalowski, and M. J. Frisch.,  J. Phys. Chem. 98, 11623 (1994) (10.1021/j100096a001)

    Deriv               =              1
    GGA                 =           TRUE
    Meta                =          FALSE

    Exchange Hybrid     =           TRUE
    MP2 Hybrid          =          FALSE

   => Exchange Functionals <=

    0.0800   Slater exchange
    0.7200         Becke 88

   => Exact (HF) Exchange <=

    0.2000               HF

   => Correlation Functionals <=

    0.1900   Vosko, Wilk & Nusair (VWN5_RPA)
    0.8100   Lee, Yang & Parr

   => LibXC Density Thresholds  <==

    XC_HYB_GGA_XC_B3LYP:  1.00E-15

   => Molecular Quadrature <=

    Radial Scheme          =       TREUTLER
    Pruning Scheme         =           NONE
    Nuclear Scheme         =       TREUTLER

    Blocking Scheme        =         OCTREE
    BS radius alpha        =              1
    Pruning alpha          =              1
    Radial Points          =             75
    Spherical Points       =            302
    Total Points           =          44101
    Total Blocks           =            435
    Max Points             =            256
    Max Functions          =             32
    Weights Tolerance      =       1.00E-15

  -Total Gradient:
     Atom            X                  Y                   Z
    ------   -----------------  -----------------  -----------------
       1        0.000000000000    -0.000000000000    -0.000027840166
       2        0.000000000000    -0.000000000000     0.000024048001

*** tstop() called on Joses-MacBook-Pro-2.local at Wed Jul 16 18:34:31 2025
Module time:
	user time   =       0.72 seconds =       0.01 minutes
	system time =       1.65 seconds =       0.03 minutes
	total time  =          0 seconds =       0.00 minutes
Total time:
	user time   =      64.15 seconds =       1.07 minutes
	system time =      68.33 seconds =       1.14 minutes
	total time  =         13 seconds =       0.22 minutes

    			-----------------------------------------

    			 OPTKING 3.0: for geometry optimizations

    			     By R.A. King, Bethel University

    			        with contributions from

    			    A.V. Copan, J. Cayton, A. Heide

    			-----------------------------------------

	                            ===> Fragment 1 <==

	 Z (Atomic Numbers)          Masses                          Geom
	       3.000000             7.016003          0.00000000  0.00000000  3.42238844
	      14.000000            27.976927          0.00000000  0.00000000 -0.85826043

	 - Coordinate -           - BOHR/RAD -       - ANG/DEG -
	 R(1,2)           =         4.280649           2.265222

	        --- Internal Coordinate Step in ANG or DEG, aJ/ANG or AJ/DEG ---
	-------------------------------------------------------------------------------
	           Coordinate      Previous         Force          Change          New
	           ----------      --------        ------          ------        ------
	               R(1,2)       2.26522        0.00021        0.00029       2.26551
	-------------------------------------------------------------------------------

	                                 ==> Convergence Check <==

	Measures of convergence in internal coordinates in au.

	Criteria marked as inactive (o), active & met (*), and active & unmet ( ).

	----------------------------------------------------------------------------------------------
	   Step    Total Energy     Delta E     Max Force     RMS Force      Max Disp      RMS Disp
	----------------------------------------------------------------------------------------------
	  Convergence Criteria     1.00e-06 *    3.00e-04 *             o    1.20e-03 *             o
	----------------------------------------------------------------------------------------------
	    12    -296.87267639   -1.39e-07 *    2.59e-05 *    2.59e-05 o    5.47e-04 *    5.47e-04 o  ~
	----------------------------------------------------------------------------------------------

Next Geometry in Ang
	Fragment 1 (Ang)

	   Li   0.0000000000   0.0000000000   1.8111947954
	   Si   0.0000000000   0.0000000000  -0.4543166896

    Final optimized geometry and variables:
    Molecular point group: c2v
    Full point group: C_inf_v

    Geometry (in Angstrom), charge = 0, multiplicity = 2:

    LI           0.000000000000     0.000000000000     1.811049966818
    SI           0.000000000000     0.000000000000    -0.454171861062

    Psi4 stopped on: Wednesday, 16 July 2025 06:34PM
    Psi4 wall time for execution: 0:00:13.45

*** Psi4 exiting successfully. Buy a developer a beer!
