                               Psi4 1.9.1 release

  ==> Input File <==

--------------------------------------------------------------------------
molecule {
0 2
Li   0.00000        0.60000        0.00000
Be   0.00000       -0.60000        0.00000
}

set {
basis              cc-pvdz
reference          uks
maxiter            500
geom_maxiter       500
DAMPING_PERCENTAGE 1
guess              SAP
}

optimize('b3lyp')
--------------------------------------------------------------------------

    Molecular point group: c2v
  Charge       = 0
  Multiplicity = 2
  Basis Set: CC-PVDZ
    Blend: CC-PVDZ
  Basis Set: (CC-PVDZ AUX)
    Blend: DEF2-UNIVERSAL-JKFIT
  @DF-UKS Final Energy:   -21.94983670243124
    Total Energy =                        -21.9498367024312415
 Dipole X            :          0.0000000            0.0000000            0.0000000
 Dipole Y            :          0.0000000            0.0000000            0.0000000
 Dipole Z            :          1.1971082           -0.1453659            1.0517423
 Magnitude           :                                                    1.0517423
    Molecular point group: c2v
  Basis Set: CC-PVDZ
    Blend: CC-PVDZ
  Basis Set: (CC-PVDZ AUX)
    Blend: DEF2-UNIVERSAL-JKFIT
  Basis Set: CC-PVDZ
    Blend: CC-PVDZ
  Basis Set: (CC-PVDZ AUX)
    Blend: DEF2-UNIVERSAL-JKFIT
  @DF-UKS Final Energy:   -22.02178124549447
    Total Energy =                        -22.0217812454944664
  Basis Set: CC-PVDZ
    Blend: CC-PVDZ
  Basis Set: (CC-PVDZ AUX)
    Blend: DEF2-UNIVERSAL-JKFIT
  Basis Set: CC-PVDZ
    Blend: CC-PVDZ
  @DF-UKS Final Energy:   -22.10813074393671
    Total Energy =                        -22.1081307439367123
  @DF-UKS Final Energy:   -22.13797164120719
    Total Energy =                        -22.1379716412071872
  @DF-UKS Final Energy:   -22.15116138224981
    Total Energy =                        -22.1511613822498070
  @DF-UKS Final Energy:   -22.15506625489440
    Total Energy =                        -22.1550662548944004
  @DF-UKS Final Energy:   -22.15585806554616
    Total Energy =                        -22.1558580655461625
  @DF-UKS Final Energy:   -22.15592242226764
    Total Energy =                        -22.1559224222676328
  Basis Set: (CC-PVDZ AUX)
    Blend: DEF2-UNIVERSAL-JKFIT
  Basis Set: CC-PVDZ
    Blend: CC-PVDZ
  Basis Set: (CC-PVDZ AUX)
    Blend: DEF2-UNIVERSAL-JKFIT
  @DF-UKS Final Energy:   -22.15592785211459
    Total Energy =                        -22.1559278521145941
  Basis Set: CC-PVDZ
    Blend: CC-PVDZ
  Basis Set: (CC-PVDZ AUX)
    Blend: DEF2-UNIVERSAL-JKFIT
  Charge       = 0
  Multiplicity = 2
  Basis Set: CC-PVDZ
    Blend: CC-PVDZ
  Basis Set: (CC-PVDZ AUX)
    Blend: DEF2-UNIVERSAL-JKFIT

    Orbital Energies [Eh]
    ---------------------

    Alpha Occupied:

       1A1    -4.039315     2A1    -2.042034     3A1    -0.233755
       1B1    -0.105188

    Alpha Virtual:

       4A1    -0.074814     1B2    -0.050177     5A1    -0.033502
       2B1     0.005021     2B2     0.022457     6A1     0.032660
       3B1     0.068563     7A1     0.077554     3B2     0.081539
       8A1     0.207872     4B1     0.219434     1A2     0.219714
       9A1     0.219800    10A1     0.229741     4B2     0.231953
       5B1     0.279115     5B2     0.297144    11A1     0.345552
       2A2     0.519967    12A1     0.524812    13A1     0.545369
       6B1     0.648701     6B2     0.662072    14A1     0.861464

    Beta Occupied:

       1A1    -4.036887     2A1    -2.041513     3A1    -0.213147

    Beta Virtual:

       4A1    -0.068214     1B2    -0.048576     1B1    -0.035623
       5A1    -0.030908     2B2     0.022598     2B1     0.030151
       6A1     0.036024     7A1     0.076547     3B2     0.078746
       3B1     0.083145     8A1     0.209354     9A1     0.228621
       4B2     0.231051     1A2     0.235683    10A1     0.237649
       4B1     0.241796     5B2     0.294874     5B1     0.304716
      11A1     0.352264    12A1     0.544398     2A2     0.547402
      13A1     0.555822     6B2     0.659715     6B1     0.674969
      14A1     0.864143

    Final Occupation by Irrep:
             A1    A2    B1    B2
    DOCC [     3,    0,    0,    0 ]
    SOCC [     0,    0,    1,    0 ]
    NA   [     3,    0,    1,    0 ]
    NB   [     3,    0,    0,    0 ]

  @DF-UKS Final Energy:   -22.15592832526183

   => Energetics <=

    Nuclear Repulsion Energy =              2.8314887685183678
    One-Electron Energy =                 -34.5341346267277345
    Two-Electron Energy =                  13.3168058371288360
    DFT Exchange-Correlation Energy =      -3.7700883041813005
    Empirical Dispersion Energy =           0.0000000000000000
    VV10 Nonlocal Energy =                  0.0000000000000000
    Total Energy =                        -22.1559283252618293

  UHF NO Occupations:
  HONO-2 :    2 A1 1.9999998
  HONO-1 :    3 A1 1.9986712
  HONO-0 :    1 B1 1.0000000
  LUNO+0 :    4 A1 0.0013288
  LUNO+1 :    5 A1 0.0000002
  LUNO+2 :    6 A1 0.0000000
  LUNO+3 :    7 A1 0.0000000

Computation Completed

Properties will be evaluated at   0.000000,   0.000000,   0.000000 [a0]

Properties computed using the SCF density matrix

 Multipole Moments:

 ------------------------------------------------------------------------------------
     Multipole            Electronic (a.u.)      Nuclear  (a.u.)        Total (a.u.)
 ------------------------------------------------------------------------------------

 L = 1.  Multiply by 2.5417464519 to convert [e a0] to [Debye]
 Dipole X            :          0.0000000            0.0000000            0.0000000
 Dipole Y            :          0.0000000            0.0000000            0.0000000
 Dipole Z            :          1.6583599           -0.2716745            1.3866854
 Magnitude           :                                                    1.3866854

 ------------------------------------------------------------------------------------

*** tstop() called on Joses-MacBook-Pro-2.local at Wed Jul 16 18:28:22 2025
Module time:
	user time   =       2.37 seconds =       0.04 minutes
	system time =       3.33 seconds =       0.06 minutes
	total time  =          0 seconds =       0.00 minutes
Total time:
	user time   =      51.90 seconds =       0.86 minutes
	system time =      46.12 seconds =       0.77 minutes
	total time  =         10 seconds =       0.17 minutes

*** tstart() called on Joses-MacBook-Pro-2.local
*** at Wed Jul 16 18:28:22 2025

         ------------------------------------------------------------
                                   SCF GRAD
                          Rob Parrish, Justin Turney,
                       Andy Simmonett, and Alex Sokolov
         ------------------------------------------------------------

  ==> Geometry <==

    Molecular point group: c2v
    Full point group: C_inf_v

    Geometry (in Angstrom), charge = 0, multiplicity = 2:

       Center              X                  Y                   Z               Mass
    ------------   -----------------  -----------------  -----------------  -----------------
         LI           0.000000000000     0.000000000000     1.260994386791     7.016003436600
         BE           0.000000000000     0.000000000000    -0.981686777493     9.012183065000

  Nuclear repulsion =    2.831488768518368

  ==> Basis Set <==

  Basis Set: CC-PVDZ
    Blend: CC-PVDZ
    Number of shells: 12
    Number of basis functions: 28
    Number of Cartesian functions: 30
    Spherical Harmonics?: true
    Max angular momentum: 2

  ==> DFJKGrad: Density-Fitted SCF Gradients <==

    Gradient:                    1
    J tasked:                  Yes
    K tasked:                  Yes
    wK tasked:                  No
    OpenMP threads:              1
    Integrals threads:           1
    Memory [MiB]:              375
    Schwarz Cutoff:          1E-12
    Fitting Condition:       1E-10

   => Auxiliary Basis Set <=

  Basis Set: (CC-PVDZ AUX)
    Blend: DEF2-UNIVERSAL-JKFIT
    Number of shells: 34
    Number of basis functions: 102
    Number of Cartesian functions: 120
    Spherical Harmonics?: true
    Max angular momentum: 3

  ==> DFT Potential <==

   => LibXC <=

    Version 6.2.2
    S. Lehtola, C. Steigemann, M. J.T. Oliveira, and M. A.L. Marques.,  SoftwareX 7, 1â€“5 (2018) (10.1016/j.softx.2017.11.002)

   => Composite Functional: B3LYP <=

    B3LYP Hyb-GGA Exchange-Correlation Functional

    P. J. Stephens, F. J. Devlin, C. F. Chabalowski, and M. J. Frisch.,  J. Phys. Chem. 98, 11623 (1994) (10.1021/j100096a001)

    Deriv               =              1
    GGA                 =           TRUE
    Meta                =          FALSE

    Exchange Hybrid     =           TRUE
    MP2 Hybrid          =          FALSE

   => Exchange Functionals <=

    0.0800   Slater exchange
    0.7200         Becke 88

   => Exact (HF) Exchange <=

    0.2000               HF

   => Correlation Functionals <=

    0.1900   Vosko, Wilk & Nusair (VWN5_RPA)
    0.8100   Lee, Yang & Parr

   => LibXC Density Thresholds  <==

    XC_HYB_GGA_XC_B3LYP:  1.00E-15

   => Molecular Quadrature <=

    Radial Scheme          =       TREUTLER
    Pruning Scheme         =           NONE
    Nuclear Scheme         =       TREUTLER

    Blocking Scheme        =         OCTREE
    BS radius alpha        =              1
    Pruning alpha          =              1
    Radial Points          =             75
    Spherical Points       =            302
    Total Points           =          44161
    Total Blocks           =            439
    Max Points             =            253
    Max Functions          =             28
    Weights Tolerance      =       1.00E-15

  -Total Gradient:
     Atom            X                  Y                   Z
    ------   -----------------  -----------------  -----------------
       1       -0.000000000000    -0.000000000000    -0.000057162841
       2       -0.000000000000    -0.000000000000     0.000060269036

*** tstop() called on Joses-MacBook-Pro-2.local at Wed Jul 16 18:28:22 2025
Module time:
	user time   =       0.55 seconds =       0.01 minutes
	system time =       1.08 seconds =       0.02 minutes
	total time  =          0 seconds =       0.00 minutes
Total time:
	user time   =      52.45 seconds =       0.87 minutes
	system time =      47.20 seconds =       0.79 minutes
	total time  =         10 seconds =       0.17 minutes

    			-----------------------------------------

    			 OPTKING 3.0: for geometry optimizations

    			     By R.A. King, Bethel University

    			        with contributions from

    			    A.V. Copan, J. Cayton, A. Heide

    			-----------------------------------------

	                            ===> Fragment 1 <==

	 Z (Atomic Numbers)          Masses                          Geom
	       3.000000             7.016003          0.00000000  0.00000000  2.38293404
	       4.000000             9.012183          0.00000000  0.00000000 -1.85511915

	 - Coordinate -           - BOHR/RAD -       - ANG/DEG -
	 R(1,2)           =         4.238053           2.242681

	        --- Internal Coordinate Step in ANG or DEG, aJ/ANG or AJ/DEG ---
	-------------------------------------------------------------------------------
	           Coordinate      Previous         Force          Change          New
	           ----------      --------        ------          ------        ------
	               R(1,2)       2.24268        0.00048        0.00071       2.24339
	-------------------------------------------------------------------------------

	                                 ==> Convergence Check <==

	Measures of convergence in internal coordinates in au.

	Criteria marked as inactive (o), active & met (*), and active & unmet ( ).

	----------------------------------------------------------------------------------------------
	   Step    Total Energy     Delta E     Max Force     RMS Force      Max Disp      RMS Disp
	----------------------------------------------------------------------------------------------
	  Convergence Criteria     1.00e-06 *    3.00e-04 *             o    1.20e-03 *             o
	----------------------------------------------------------------------------------------------
	    10     -22.15592833   -4.73e-07 *    5.87e-05 *    5.87e-05 o    1.35e-03      1.35e-03 o  ~
	----------------------------------------------------------------------------------------------

Next Geometry in Ang
	Fragment 1 (Ang)

	   Li   0.0000000000   0.0000000000   1.2613504170
	   Be   0.0000000000   0.0000000000  -0.9820428077

    Final optimized geometry and variables:
    Molecular point group: c2v
    Full point group: C_inf_v

    Geometry (in Angstrom), charge = 0, multiplicity = 2:

    LI           0.000000000000     0.000000000000     1.260994386791
    BE           0.000000000000     0.000000000000    -0.981686777493

    Psi4 stopped on: Wednesday, 16 July 2025 06:28PM
    Psi4 wall time for execution: 0:00:10.48

*** Psi4 exiting successfully. Buy a developer a beer!
