                               Psi4 1.9.1 release

  ==> Input File <==

--------------------------------------------------------------------------
molecule {
0 2
Be   0.00000        0.60000        0.00000
Cl   0.00000       -0.60000        0.00000
}

set {
basis              cc-pvdz
reference          uks
maxiter            500
geom_maxiter       500
DAMPING_PERCENTAGE 1
guess              SAP
}

optimize('b3lyp')
--------------------------------------------------------------------------

    Molecular point group: c2v
  Charge       = 0
  Multiplicity = 2
  Basis Set: CC-PVDZ
    Blend: CC-PVDZ
  Basis Set: (CC-PVDZ AUX)
    Blend: CC-PVDZ-JKFIT + DEF2-UNIVERSAL-JKFIT
  @DF-UKS Final Energy:  -474.59317749782025
    Total Energy =                       -474.5931774978202498
 Dipole X            :          0.0000000            0.0000000            0.0000000
 Dipole Y            :          0.0000000            0.0000000            0.0000000
 Dipole Z            :          0.0624600           -0.6873853           -0.6249253
 Magnitude           :                                                    0.6249253
    Molecular point group: c2v
  Basis Set: CC-PVDZ
    Blend: CC-PVDZ
  Basis Set: (CC-PVDZ AUX)
    Blend: CC-PVDZ-JKFIT + DEF2-UNIVERSAL-JKFIT
  Basis Set: CC-PVDZ
    Blend: CC-PVDZ
  Basis Set: (CC-PVDZ AUX)
    Blend: CC-PVDZ-JKFIT + DEF2-UNIVERSAL-JKFIT
  @DF-UKS Final Energy:  -474.79243743076938
    Total Energy =                       -474.7924374307693824
  Basis Set: CC-PVDZ
    Blend: CC-PVDZ
  Basis Set: (CC-PVDZ AUX)
    Blend: CC-PVDZ-JKFIT + DEF2-UNIVERSAL-JKFIT
  Basis Set: CC-PVDZ
    Blend: CC-PVDZ
  @DF-UKS Final Energy:  -474.90608239316799
    Total Energy =                       -474.9060823931679920
  @DF-UKS Final Energy:  -474.95481080837186
    Total Energy =                       -474.9548108083718034
  @DF-UKS Final Energy:  -474.97294100437125
    Total Energy =                       -474.9729410043712505
  @DF-UKS Final Energy:  -474.97711188762275
    Total Energy =                       -474.9771118876227547
  @DF-UKS Final Energy:  -474.97847604347805
    Total Energy =                       -474.9784760434780537
  @DF-UKS Final Energy:  -474.97868231383762
    Total Energy =                       -474.9786823138376235
  @DF-UKS Final Energy:  -474.97871603005007
    Total Energy =                       -474.9787160300500659
  Basis Set: (CC-PVDZ AUX)
    Blend: CC-PVDZ-JKFIT + DEF2-UNIVERSAL-JKFIT
  Basis Set: CC-PVDZ
    Blend: CC-PVDZ
  Basis Set: (CC-PVDZ AUX)
    Blend: CC-PVDZ-JKFIT + DEF2-UNIVERSAL-JKFIT
  @DF-UKS Final Energy:  -474.97872248932339
    Total Energy =                       -474.9787224893233883
  Basis Set: CC-PVDZ
    Blend: CC-PVDZ
  Basis Set: (CC-PVDZ AUX)
    Blend: CC-PVDZ-JKFIT + DEF2-UNIVERSAL-JKFIT
  Charge       = 0
  Multiplicity = 2
  Basis Set: CC-PVDZ
    Blend: CC-PVDZ
  Basis Set: (CC-PVDZ AUX)
    Blend: CC-PVDZ-JKFIT + DEF2-UNIVERSAL-JKFIT

    Orbital Energies [Eh]
    ---------------------

    Alpha Occupied:

       1A1  -101.535507     2A1    -9.455757     3A1    -7.214052
       1B1    -7.210564     1B2    -7.210564     4A1    -4.107553
       5A1    -0.818938     6A1    -0.406462     2B1    -0.338899
       2B2    -0.338899     7A1    -0.222661

    Alpha Virtual:

       3B1    -0.041191     3B2    -0.041191     8A1     0.060371
       9A1     0.170191     4B2     0.173337     4B1     0.173337
      10A1     0.239677    11A1     0.415680     5B2     0.430904
       5B1     0.430904    12A1     0.438061     1A2     0.438061
       6B1     0.590366     6B2     0.590366     2A2     0.760200
      13A1     0.760202    14A1     0.773396    15A1     0.868083
       7B1     0.966042     7B2     0.966042    16A1     1.295699

    Beta Occupied:

       1A1  -101.535160     2A1    -9.455387     3A1    -7.212828
       1B1    -7.210478     1B2    -7.210478     4A1    -4.097432
       5A1    -0.816888     6A1    -0.401849     2B1    -0.338365
       2B2    -0.338365

    Beta Virtual:

       7A1    -0.093351     3B1    -0.012659     3B2    -0.012659
       8A1     0.074105     4B2     0.183736     4B1     0.183736
       9A1     0.214093    10A1     0.256119    11A1     0.442523
       1A2     0.464184    12A1     0.464185     5B2     0.474146
       5B1     0.474146     6B1     0.591834     6B2     0.591834
       2A2     0.762742    13A1     0.762744    14A1     0.785609
      15A1     0.889312     7B1     0.981024     7B2     0.981024
      16A1     1.300910

    Final Occupation by Irrep:
             A1    A2    B1    B2
    DOCC [     6,    0,    2,    2 ]
    SOCC [     1,    0,    0,    0 ]
    NA   [     7,    0,    2,    2 ]
    NB   [     6,    0,    2,    2 ]

  @DF-UKS Final Energy:  -474.97872287959700

   => Energetics <=

    Nuclear Repulsion Energy =             19.7817403976609292
    One-Electron Energy =                -694.1986582118031492
    Two-Electron Energy =                 224.5127711826325481
    DFT Exchange-Correlation Energy =     -25.0745762480872969
    Empirical Dispersion Energy =           0.0000000000000000
    VV10 Nonlocal Energy =                  0.0000000000000000
    Total Energy =                       -474.9787228795970009

  UHF NO Occupations:
  HONO-2 :    2 B2 1.9998151
  HONO-1 :    2 B1 1.9998151
  HONO-0 :    7 A1 1.0000000
  LUNO+0 :    3 B1 0.0001849
  LUNO+1 :    3 B2 0.0001849
  LUNO+2 :    8 A1 0.0000501
  LUNO+3 :    9 A1 0.0000026

Computation Completed

Properties will be evaluated at   0.000000,   0.000000,   0.000000 [a0]

Properties computed using the SCF density matrix

 Multipole Moments:

 ------------------------------------------------------------------------------------
     Multipole            Electronic (a.u.)      Nuclear  (a.u.)        Total (a.u.)
 ------------------------------------------------------------------------------------

 L = 1.  Multiply by 2.5417464519 to convert [e a0] to [Debye]
 Dipole X            :          0.0000000            0.0000000            0.0000000
 Dipole Y            :          0.0000000            0.0000000            0.0000000
 Dipole Z            :          1.3554477           -1.0419924            0.3134553
 Magnitude           :                                                    0.3134553

 ------------------------------------------------------------------------------------

*** tstop() called on Joses-MacBook-Pro-2.local at Wed Jul 16 18:46:54 2025
Module time:
	user time   =       2.83 seconds =       0.05 minutes
	system time =       3.72 seconds =       0.06 minutes
	total time  =          1 seconds =       0.02 minutes
Total time:
	user time   =      52.38 seconds =       0.87 minutes
	system time =      55.27 seconds =       0.92 minutes
	total time  =         11 seconds =       0.18 minutes

*** tstart() called on Joses-MacBook-Pro-2.local
*** at Wed Jul 16 18:46:54 2025

         ------------------------------------------------------------
                                   SCF GRAD
                          Rob Parrish, Justin Turney,
                       Andy Simmonett, and Alex Sokolov
         ------------------------------------------------------------

  ==> Geometry <==

    Molecular point group: c2v
    Full point group: C_inf_v

    Geometry (in Angstrom), charge = 0, multiplicity = 2:

       Center              X                  Y                   Z               Mass
    ------------   -----------------  -----------------  -----------------  -----------------
         BE           0.000000000000     0.000000000000     1.446310296597     9.012183065000
         CL           0.000000000000     0.000000000000    -0.372743517789    34.968852682000

  Nuclear repulsion =   19.781740397660929

  ==> Basis Set <==

  Basis Set: CC-PVDZ
    Blend: CC-PVDZ
    Number of shells: 14
    Number of basis functions: 32
    Number of Cartesian functions: 34
    Spherical Harmonics?: true
    Max angular momentum: 2

  ==> DFJKGrad: Density-Fitted SCF Gradients <==

    Gradient:                    1
    J tasked:                  Yes
    K tasked:                  Yes
    wK tasked:                  No
    OpenMP threads:              1
    Integrals threads:           1
    Memory [MiB]:              375
    Schwarz Cutoff:          1E-12
    Fitting Condition:       1E-10

   => Auxiliary Basis Set <=

  Basis Set: (CC-PVDZ AUX)
    Blend: CC-PVDZ-JKFIT + DEF2-UNIVERSAL-JKFIT
    Number of shells: 53
    Number of basis functions: 163
    Number of Cartesian functions: 190
    Spherical Harmonics?: true
    Max angular momentum: 3

  ==> DFT Potential <==

   => LibXC <=

    Version 6.2.2
    S. Lehtola, C. Steigemann, M. J.T. Oliveira, and M. A.L. Marques.,  SoftwareX 7, 1â€“5 (2018) (10.1016/j.softx.2017.11.002)

   => Composite Functional: B3LYP <=

    B3LYP Hyb-GGA Exchange-Correlation Functional

    P. J. Stephens, F. J. Devlin, C. F. Chabalowski, and M. J. Frisch.,  J. Phys. Chem. 98, 11623 (1994) (10.1021/j100096a001)

    Deriv               =              1
    GGA                 =           TRUE
    Meta                =          FALSE

    Exchange Hybrid     =           TRUE
    MP2 Hybrid          =          FALSE

   => Exchange Functionals <=

    0.0800   Slater exchange
    0.7200         Becke 88

   => Exact (HF) Exchange <=

    0.2000               HF

   => Correlation Functionals <=

    0.1900   Vosko, Wilk & Nusair (VWN5_RPA)
    0.8100   Lee, Yang & Parr

   => LibXC Density Thresholds  <==

    XC_HYB_GGA_XC_B3LYP:  1.00E-15

   => Molecular Quadrature <=

    Radial Scheme          =       TREUTLER
    Pruning Scheme         =           NONE
    Nuclear Scheme         =       TREUTLER

    Blocking Scheme        =         OCTREE
    BS radius alpha        =              1
    Pruning alpha          =              1
    Radial Points          =             75
    Spherical Points       =            302
    Total Points           =          42752
    Total Blocks           =            398
    Max Points             =            255
    Max Functions          =             32
    Weights Tolerance      =       1.00E-15

  -Total Gradient:
     Atom            X                  Y                   Z
    ------   -----------------  -----------------  -----------------
       1        0.000000000000    -0.000000000000    -0.000051439651
       2        0.000000000000     0.000000000000     0.000060184572

*** tstop() called on Joses-MacBook-Pro-2.local at Wed Jul 16 18:46:54 2025
Module time:
	user time   =       0.60 seconds =       0.01 minutes
	system time =       1.68 seconds =       0.03 minutes
	total time  =          0 seconds =       0.00 minutes
Total time:
	user time   =      52.98 seconds =       0.88 minutes
	system time =      56.95 seconds =       0.95 minutes
	total time  =         11 seconds =       0.18 minutes

    			-----------------------------------------

    			 OPTKING 3.0: for geometry optimizations

    			     By R.A. King, Bethel University

    			        with contributions from

    			    A.V. Copan, J. Cayton, A. Heide

    			-----------------------------------------

	                            ===> Fragment 1 <==

	 Z (Atomic Numbers)          Masses                          Geom
	       4.000000             9.012183          0.00000000  0.00000000  2.73313035
	      17.000000            34.968853          0.00000000  0.00000000 -0.70438316

	 - Coordinate -           - BOHR/RAD -       - ANG/DEG -
	 R(1,2)           =         3.437514           1.819054

	        --- Internal Coordinate Step in ANG or DEG, aJ/ANG or AJ/DEG ---
	-------------------------------------------------------------------------------
	           Coordinate      Previous         Force          Change          New
	           ----------      --------        ------          ------        ------
	               R(1,2)       1.81905        0.00046        0.00015       1.81920
	-------------------------------------------------------------------------------

	                                 ==> Convergence Check <==

	Measures of convergence in internal coordinates in au.

	Criteria marked as inactive (o), active & met (*), and active & unmet ( ).

	----------------------------------------------------------------------------------------------
	   Step    Total Energy     Delta E     Max Force     RMS Force      Max Disp      RMS Disp
	----------------------------------------------------------------------------------------------
	  Convergence Criteria     1.00e-06 *    3.00e-04 *             o    1.20e-03 *             o
	----------------------------------------------------------------------------------------------
	    11    -474.97872288   -3.90e-07 *    5.58e-05 *    5.58e-05 o    2.84e-04 *    2.84e-04 o  ~
	----------------------------------------------------------------------------------------------

Next Geometry in Ang
	Fragment 1 (Ang)

	   Be   0.0000000000   0.0000000000   1.4463854553
	   Cl   0.0000000000   0.0000000000  -0.3728186765

    Final optimized geometry and variables:
    Molecular point group: c2v
    Full point group: C_inf_v

    Geometry (in Angstrom), charge = 0, multiplicity = 2:

    BE           0.000000000000     0.000000000000     1.446310296597
    CL           0.000000000000     0.000000000000    -0.372743517789

    Psi4 stopped on: Wednesday, 16 July 2025 06:46PM
    Psi4 wall time for execution: 0:00:11.24

*** Psi4 exiting successfully. Buy a developer a beer!
