                               Psi4 1.9.1 release

  ==> Input File <==

--------------------------------------------------------------------------
molecule {
0 2
B   0.00000        0.60000        0.00000
Ar   0.00000       -0.60000        0.00000
}

set {
basis              cc-pvdz
reference          uks
maxiter            500
geom_maxiter       500
DAMPING_PERCENTAGE 1
guess              SAP
}

optimize('b3lyp')
--------------------------------------------------------------------------

    Molecular point group: c2v
  Charge       = 0
  Multiplicity = 2
  Basis Set: CC-PVDZ
    Blend: CC-PVDZ
  Basis Set: (CC-PVDZ AUX)
    Blend: CC-PVDZ-JKFIT
  @DF-UKS Final Energy:  -551.69107257507699
    Total Energy =                       -551.6910725750771007
 Dipole X            :          0.0000000            0.0000000            0.0000000
 Dipole Y            :          0.0000000            0.0000000            0.0000000
 Dipole Z            :         -2.5002340            0.0731583           -2.4270757
 Magnitude           :                                                    2.4270757
    Molecular point group: c2v
  Basis Set: CC-PVDZ
    Blend: CC-PVDZ
  Basis Set: (CC-PVDZ AUX)
    Blend: CC-PVDZ-JKFIT
  Basis Set: CC-PVDZ
    Blend: CC-PVDZ
  Basis Set: (CC-PVDZ AUX)
    Blend: CC-PVDZ-JKFIT
  @DF-UKS Final Energy:  -551.89987512218113
    Total Energy =                       -551.8998751221811290
  Basis Set: CC-PVDZ
    Blend: CC-PVDZ
  Basis Set: (CC-PVDZ AUX)
    Blend: CC-PVDZ-JKFIT
  Basis Set: CC-PVDZ
    Blend: CC-PVDZ
  @DF-UKS Final Energy:  -552.01917091709436
    Total Energy =                       -552.0191709170943568
  @DF-UKS Final Energy:  -552.08884822440052
    Total Energy =                       -552.0888482244005218
  @DF-UKS Final Energy:  -552.13386601625643
    Total Energy =                       -552.1338660162563201
  @DF-UKS Final Energy:  -552.16396458945144
    Total Energy =                       -552.1639645894514388
  @DF-UKS Final Energy:  -552.18294153722059
    Total Energy =                       -552.1829415372206995
  @DF-UKS Final Energy:  -552.19339439301814
    Total Energy =                       -552.1933943930181385
  @DF-UKS Final Energy:  -552.19867776957085
    Total Energy =                       -552.1986777695708497
  @DF-UKS Final Energy:  -552.20126675698816
    Total Energy =                       -552.2012667569882751
  @DF-UKS Final Energy:  -552.20249111544547
    Total Energy =                       -552.2024911154454685
  @DF-UKS Final Energy:  -552.20304473869805
    Total Energy =                       -552.2030447386979404
  @DF-UKS Final Energy:  -552.20328113247194
    Total Energy =                       -552.2032811324719432
  @DF-UKS Final Energy:  -552.20337157775862
    Total Energy =                       -552.2033715777586167
  @DF-UKS Final Energy:  -552.20339998570478
    Total Energy =                       -552.2033999857047775
  @DF-UKS Final Energy:  -552.20340523259131
    Total Energy =                       -552.2034052325913080
  Basis Set: (CC-PVDZ AUX)
    Blend: CC-PVDZ-JKFIT
  Basis Set: CC-PVDZ
    Blend: CC-PVDZ
  Basis Set: (CC-PVDZ AUX)
    Blend: CC-PVDZ-JKFIT
  @DF-UKS Final Energy:  -552.20340634566196
    Total Energy =                       -552.2034063456619606
  Basis Set: CC-PVDZ
    Blend: CC-PVDZ
  Basis Set: (CC-PVDZ AUX)
    Blend: CC-PVDZ-JKFIT
  Charge       = 0
  Multiplicity = 2
  Basis Set: CC-PVDZ
    Blend: CC-PVDZ
  Basis Set: (CC-PVDZ AUX)
    Blend: CC-PVDZ-JKFIT

    Orbital Energies [Eh]
    ---------------------

    Alpha Occupied:

       1A1  -115.103491     2A1   -11.139582     3A1    -8.689542
       1B1    -8.689409     1B2    -8.689385     4A1    -6.858445
       5A1    -0.967649     6A1    -0.427505     2B1    -0.425085
       2B2    -0.424841     7A1    -0.390820     3B2    -0.184940

    Alpha Virtual:

       3B1    -0.092802     8A1    -0.091533     4B2     0.274051
       9A1     0.297142     4B1     0.297151    10A1     0.341490
       5B1     0.581518     5B2     0.581700    11A1     0.602408
       1A2     0.685003     6B2     0.686794    12A1     0.691831
       6B1     0.704149    13A1     0.704957    14A1     0.790084
       7B1     0.832772    15A1     0.832875     2A2     0.832888
       7B2     0.832928    16A1     0.847938

    Beta Occupied:

       1A1  -115.103488     2A1   -11.139579     3A1    -8.689543
       1B1    -8.689406     1B2    -8.689373     4A1    -6.849401
       5A1    -0.967640     6A1    -0.426856     2B1    -0.425090
       2B2    -0.424818     7A1    -0.348510

    Beta Virtual:

       3B1    -0.082893     8A1    -0.081508     3B2    -0.045519
       9A1     0.301606     4B1     0.301719     4B2     0.328067
      10A1     0.360875     5B1     0.581520     5B2     0.582510
      11A1     0.605633    12A1     0.706306     6B1     0.706400
       1A2     0.735832     6B2     0.737116    13A1     0.740764
      14A1     0.795437     7B1     0.832771    15A1     0.832892
       2A2     0.832906     7B2     0.832970    16A1     0.849246

    Final Occupation by Irrep:
             A1    A2    B1    B2
    DOCC [     7,    0,    2,    2 ]
    SOCC [     0,    0,    0,    1 ]
    NA   [     7,    0,    2,    3 ]
    NB   [     7,    0,    2,    2 ]

  @DF-UKS Final Energy:  -552.20340664202183

   => Energetics <=

    Nuclear Repulsion Energy =             13.0054254922122023
    One-Electron Energy =                -786.7233512549146326
    Two-Electron Energy =                 249.5510111851073702
    DFT Exchange-Correlation Energy =     -28.0364920644266853
    Empirical Dispersion Energy =           0.0000000000000000
    VV10 Nonlocal Energy =                  0.0000000000000000
    Total Energy =                       -552.2034066420217187

  UHF NO Occupations:
  HONO-2 :    6 A1 1.9999997
  HONO-1 :    7 A1 1.9986425
  HONO-0 :    3 B2 1.0000000
  LUNO+0 :    8 A1 0.0013575
  LUNO+1 :    9 A1 0.0000003
  LUNO+2 :    4 B2 0.0000000
  LUNO+3 :   10 A1 0.0000000

Computation Completed

Properties will be evaluated at   0.000000,   0.000000,   0.000000 [a0]

Properties computed using the SCF density matrix

 Multipole Moments:

 ------------------------------------------------------------------------------------
     Multipole            Electronic (a.u.)      Nuclear  (a.u.)        Total (a.u.)
 ------------------------------------------------------------------------------------

 L = 1.  Multiply by 2.5417464519 to convert [e a0] to [Debye]
 Dipole X            :          0.0000000            0.0000000            0.0000000
 Dipole Y            :          0.0000000            0.0000000            0.0000000
 Dipole Z            :         -0.2767256            0.2232551           -0.0534705
 Magnitude           :                                                    0.0534705

 ------------------------------------------------------------------------------------

*** tstop() called on Joses-MacBook-Pro-2.local at Wed Jul 16 18:58:27 2025
Module time:
	user time   =       2.84 seconds =       0.05 minutes
	system time =       2.84 seconds =       0.05 minutes
	total time  =          1 seconds =       0.02 minutes
Total time:
	user time   =      90.85 seconds =       1.51 minutes
	system time =     102.49 seconds =       1.71 minutes
	total time  =         21 seconds =       0.35 minutes

*** tstart() called on Joses-MacBook-Pro-2.local
*** at Wed Jul 16 18:58:27 2025

         ------------------------------------------------------------
                                   SCF GRAD
                          Rob Parrish, Justin Turney,
                       Andy Simmonett, and Alex Sokolov
         ------------------------------------------------------------

  ==> Geometry <==

    Molecular point group: c2v
    Full point group: C_inf_v

    Geometry (in Angstrom), charge = 0, multiplicity = 2:

       Center              X                  Y                   Z               Mass
    ------------   -----------------  -----------------  -----------------  -----------------
         B            0.000000000000     0.000000000000     2.871054494257    11.009305360000
         AR           0.000000000000     0.000000000000    -0.790951719136    39.962383123700

  Nuclear repulsion =   13.005425492212202

  ==> Basis Set <==

  Basis Set: CC-PVDZ
    Blend: CC-PVDZ
    Number of shells: 14
    Number of basis functions: 32
    Number of Cartesian functions: 34
    Spherical Harmonics?: true
    Max angular momentum: 2

  ==> DFJKGrad: Density-Fitted SCF Gradients <==

    Gradient:                    1
    J tasked:                  Yes
    K tasked:                  Yes
    wK tasked:                  No
    OpenMP threads:              1
    Integrals threads:           1
    Memory [MiB]:              375
    Schwarz Cutoff:          1E-12
    Fitting Condition:       1E-10

   => Auxiliary Basis Set <=

  Basis Set: (CC-PVDZ AUX)
    Blend: CC-PVDZ-JKFIT
    Number of shells: 60
    Number of basis functions: 182
    Number of Cartesian functions: 211
    Spherical Harmonics?: true
    Max angular momentum: 3

  ==> DFT Potential <==

   => LibXC <=

    Version 6.2.2
    S. Lehtola, C. Steigemann, M. J.T. Oliveira, and M. A.L. Marques.,  SoftwareX 7, 1â€“5 (2018) (10.1016/j.softx.2017.11.002)

   => Composite Functional: B3LYP <=

    B3LYP Hyb-GGA Exchange-Correlation Functional

    P. J. Stephens, F. J. Devlin, C. F. Chabalowski, and M. J. Frisch.,  J. Phys. Chem. 98, 11623 (1994) (10.1021/j100096a001)

    Deriv               =              1
    GGA                 =           TRUE
    Meta                =          FALSE

    Exchange Hybrid     =           TRUE
    MP2 Hybrid          =          FALSE

   => Exchange Functionals <=

    0.0800   Slater exchange
    0.7200         Becke 88

   => Exact (HF) Exchange <=

    0.2000               HF

   => Correlation Functionals <=

    0.1900   Vosko, Wilk & Nusair (VWN5_RPA)
    0.8100   Lee, Yang & Parr

   => LibXC Density Thresholds  <==

    XC_HYB_GGA_XC_B3LYP:  1.00E-15

   => Molecular Quadrature <=

    Radial Scheme          =       TREUTLER
    Pruning Scheme         =           NONE
    Nuclear Scheme         =       TREUTLER

    Blocking Scheme        =         OCTREE
    BS radius alpha        =              1
    Pruning alpha          =              1
    Radial Points          =             75
    Spherical Points       =            302
    Total Points           =          42142
    Total Blocks           =            396
    Max Points             =            255
    Max Functions          =             32
    Weights Tolerance      =       1.00E-15

  -Total Gradient:
     Atom            X                  Y                   Z
    ------   -----------------  -----------------  -----------------
       1        0.000000000000     0.000000000000    -0.000005447178
       2       -0.000000000000     0.000000000000     0.000006941968

*** tstop() called on Joses-MacBook-Pro-2.local at Wed Jul 16 18:58:27 2025
Module time:
	user time   =       0.77 seconds =       0.01 minutes
	system time =       1.68 seconds =       0.03 minutes
	total time  =          0 seconds =       0.00 minutes
Total time:
	user time   =      91.62 seconds =       1.53 minutes
	system time =     104.18 seconds =       1.74 minutes
	total time  =         21 seconds =       0.35 minutes

    			-----------------------------------------

    			 OPTKING 3.0: for geometry optimizations

    			     By R.A. King, Bethel University

    			        with contributions from

    			    A.V. Copan, J. Cayton, A. Heide

    			-----------------------------------------

	                            ===> Fragment 1 <==

	 Z (Atomic Numbers)          Masses                          Geom
	       5.000000            11.009305          0.00000000  0.00000000  5.42550669
	      18.000000            39.962383          0.00000000  0.00000000 -1.49468213

	 - Coordinate -           - BOHR/RAD -       - ANG/DEG -
	 R(1,2)           =         6.920189           3.662006

	        --- Internal Coordinate Step in ANG or DEG, aJ/ANG or AJ/DEG ---
	-------------------------------------------------------------------------------
	           Coordinate      Previous         Force          Change          New
	           ----------      --------        ------          ------        ------
	               R(1,2)       3.66201        0.00005        0.00452       3.66653
	-------------------------------------------------------------------------------

	                                 ==> Convergence Check <==

	Measures of convergence in internal coordinates in au.

	Criteria marked as inactive (o), active & met (*), and active & unmet ( ).

	----------------------------------------------------------------------------------------------
	   Step    Total Energy     Delta E     Max Force     RMS Force      Max Disp      RMS Disp
	----------------------------------------------------------------------------------------------
	  Convergence Criteria     1.00e-06 *    3.00e-04 *             o    1.20e-03 *             o
	----------------------------------------------------------------------------------------------
	    18    -552.20340664   -2.96e-07 *    6.19e-06 *    6.19e-06 o    8.55e-03      8.55e-03 o  ~
	----------------------------------------------------------------------------------------------

Next Geometry in Ang
	Fragment 1 (Ang)

	    B   0.0000000000   0.0000000000   2.8733165705
	   Ar   0.0000000000   0.0000000000  -0.7932137954

    Final optimized geometry and variables:
    Molecular point group: c2v
    Full point group: C_inf_v

    Geometry (in Angstrom), charge = 0, multiplicity = 2:

    B            0.000000000000     0.000000000000     2.871054494257
    AR           0.000000000000     0.000000000000    -0.790951719136

    Psi4 stopped on: Wednesday, 16 July 2025 06:58PM
    Psi4 wall time for execution: 0:00:21.76

*** Psi4 exiting successfully. Buy a developer a beer!
