                               Psi4 1.9.1 release

  ==> Input File <==

--------------------------------------------------------------------------
molecule {
0 2
Be   0.00000        0.60000        0.00000
P   0.00000       -0.60000        0.00000
}

set {
basis              cc-pvdz
reference          uks
maxiter            500
geom_maxiter       500
DAMPING_PERCENTAGE 1
guess              SAP
}

optimize('b3lyp')
--------------------------------------------------------------------------

    Molecular point group: c2v
  Charge       = 0
  Multiplicity = 2
  Basis Set: CC-PVDZ
    Blend: CC-PVDZ
  Basis Set: (CC-PVDZ AUX)
    Blend: CC-PVDZ-JKFIT + DEF2-UNIVERSAL-JKFIT
  @DF-UKS Final Energy:  -355.56072021196110
    Total Energy =                       -355.5607202119610974
 Dipole X            :          0.0000000            0.0000000            0.0000000
 Dipole Y            :          0.0000000            0.0000000            0.0000000
 Dipole Z            :          1.1929508           -0.6401447            0.5528061
 Magnitude           :                                                    0.5528061
    Molecular point group: c2v
  Basis Set: CC-PVDZ
    Blend: CC-PVDZ
  Basis Set: (CC-PVDZ AUX)
    Blend: CC-PVDZ-JKFIT + DEF2-UNIVERSAL-JKFIT
  Basis Set: CC-PVDZ
    Blend: CC-PVDZ
  Basis Set: (CC-PVDZ AUX)
    Blend: CC-PVDZ-JKFIT + DEF2-UNIVERSAL-JKFIT
  @DF-UKS Final Energy:  -355.72763542739398
    Total Energy =                       -355.7276354273939205
  Basis Set: CC-PVDZ
    Blend: CC-PVDZ
  Basis Set: (CC-PVDZ AUX)
    Blend: CC-PVDZ-JKFIT + DEF2-UNIVERSAL-JKFIT
  Basis Set: CC-PVDZ
    Blend: CC-PVDZ
  @DF-UKS Final Energy:  -355.84826649287436
    Total Energy =                       -355.8482664928743588
  @DF-UKS Final Energy:  -355.89979549288091
    Total Energy =                       -355.8997954928809122
  @DF-UKS Final Energy:  -355.91856237960764
    Total Energy =                       -355.9185623796076356
  @DF-UKS Final Energy:  -355.92528231673265
    Total Energy =                       -355.9252823167326483
  @DF-UKS Final Energy:  -355.98728077469258
    Total Energy =                       -355.9872807746925787
  @DF-UKS Final Energy:  -355.99417976443891
    Total Energy =                       -355.9941797644389112
  Basis Set: (CC-PVDZ AUX)
    Blend: CC-PVDZ-JKFIT + DEF2-UNIVERSAL-JKFIT
  Basis Set: CC-PVDZ
    Blend: CC-PVDZ
  Basis Set: (CC-PVDZ AUX)
    Blend: CC-PVDZ-JKFIT + DEF2-UNIVERSAL-JKFIT
  @DF-UKS Final Energy:  -355.99436401897617
    Total Energy =                       -355.9943640189761709
  Basis Set: CC-PVDZ
    Blend: CC-PVDZ
  Basis Set: (CC-PVDZ AUX)
    Blend: CC-PVDZ-JKFIT + DEF2-UNIVERSAL-JKFIT
  Charge       = 0
  Multiplicity = 2
  Basis Set: CC-PVDZ
    Blend: CC-PVDZ
  Basis Set: (CC-PVDZ AUX)
    Blend: CC-PVDZ-JKFIT + DEF2-UNIVERSAL-JKFIT

    Orbital Energies [Eh]
    ---------------------

    Alpha Occupied:

       1A1   -77.069074     2A1    -6.537339     1B1    -4.704576
       3A1    -4.697853     1B2    -4.693492     4A1    -4.106081
       5A1    -0.560264     6A1    -0.280099     2B1    -0.236964
       2B2    -0.206645

    Alpha Virtual:

       7A1    -0.139079     3B1    -0.032101     3B2    -0.018395
       8A1     0.074601     4B1     0.166671     9A1     0.170249
       4B2     0.174233    10A1     0.221148     5B1     0.389054
      11A1     0.396587     1A2     0.406603     5B2     0.407348
      12A1     0.408118     6B1     0.478819     6B2     0.500867
      13A1     0.557991     2A2     0.565067    14A1     0.567507
       7B1     0.785885    15A1     0.787670     7B2     0.805053
      16A1     1.061359

    Beta Occupied:

       1A1   -77.065345     2A1    -6.533329     3A1    -4.694745
       1B1    -4.692937     1B2    -4.690550     4A1    -4.106544
       5A1    -0.522693     6A1    -0.265741     2B2    -0.196418

    Beta Virtual:

       7A1    -0.141112     2B1    -0.132539     3B2    -0.019561
       3B1    -0.006752     8A1     0.078831     9A1     0.167391
       4B2     0.171360     4B1     0.176693    10A1     0.237002
      11A1     0.402628     5B2     0.408957     5B1     0.416294
       1A2     0.424653    12A1     0.427102     6B2     0.507366
       6B1     0.511538    13A1     0.571636     2A2     0.592195
      14A1     0.594984    15A1     0.797522     7B2     0.807325
       7B1     0.811712    16A1     1.072554

    Final Occupation by Irrep:
             A1    A2    B1    B2
    DOCC [     6,    0,    1,    2 ]
    SOCC [     0,    0,    1,    0 ]
    NA   [     6,    0,    2,    2 ]
    NB   [     6,    0,    1,    2 ]

  @DF-UKS Final Energy:  -355.99436449218115

   => Energetics <=

    Nuclear Repulsion Energy =             16.6109865059293789
    One-Electron Energy =                -524.3870498388271244
    Two-Electron Energy =                 172.7637709929301195
    DFT Exchange-Correlation Energy =     -20.9820721522135294
    Empirical Dispersion Energy =           0.0000000000000000
    VV10 Nonlocal Energy =                  0.0000000000000000
    Total Energy =                       -355.9943644921811483

  UHF NO Occupations:
  HONO-2 :    2 B2 1.9979049
  HONO-1 :    6 A1 1.9947261
  HONO-0 :    2 B1 1.0000000
  LUNO+0 :    7 A1 0.0052739
  LUNO+1 :    3 B2 0.0020951
  LUNO+2 :    8 A1 0.0007922
  LUNO+3 :    9 A1 0.0000000

Computation Completed

Properties will be evaluated at   0.000000,   0.000000,   0.000000 [a0]

Properties computed using the SCF density matrix

 Multipole Moments:

 ------------------------------------------------------------------------------------
     Multipole            Electronic (a.u.)      Nuclear  (a.u.)        Total (a.u.)
 ------------------------------------------------------------------------------------

 L = 1.  Multiply by 2.5417464519 to convert [e a0] to [Debye]
 Dipole X            :          0.0000000            0.0000000            0.0000000
 Dipole Y            :          0.0000000            0.0000000            0.0000000
 Dipole Z            :          2.3768909           -1.0196564            1.3572345
 Magnitude           :                                                    1.3572345

 ------------------------------------------------------------------------------------

*** tstop() called on Joses-MacBook-Pro-2.local at Wed Jul 16 18:45:15 2025
Module time:
	user time   =       3.87 seconds =       0.06 minutes
	system time =       3.62 seconds =       0.06 minutes
	total time  =          1 seconds =       0.02 minutes
Total time:
	user time   =      55.50 seconds =       0.93 minutes
	system time =      61.94 seconds =       1.03 minutes
	total time  =         11 seconds =       0.18 minutes

*** tstart() called on Joses-MacBook-Pro-2.local
*** at Wed Jul 16 18:45:15 2025

         ------------------------------------------------------------
                                   SCF GRAD
                          Rob Parrish, Justin Turney,
                       Andy Simmonett, and Alex Sokolov
         ------------------------------------------------------------

  ==> Geometry <==

    Molecular point group: c2v
    Full point group: C_inf_v

    Geometry (in Angstrom), charge = 0, multiplicity = 2:

       Center              X                  Y                   Z               Mass
    ------------   -----------------  -----------------  -----------------  -----------------
         BE           0.000000000000     0.000000000000     1.480619789290     9.012183065000
         P            0.000000000000     0.000000000000    -0.430803871723    30.973761998420

  Nuclear repulsion =   16.610986505929379

  ==> Basis Set <==

  Basis Set: CC-PVDZ
    Blend: CC-PVDZ
    Number of shells: 14
    Number of basis functions: 32
    Number of Cartesian functions: 34
    Spherical Harmonics?: true
    Max angular momentum: 2

  ==> DFJKGrad: Density-Fitted SCF Gradients <==

    Gradient:                    1
    J tasked:                  Yes
    K tasked:                  Yes
    wK tasked:                  No
    OpenMP threads:              1
    Integrals threads:           1
    Memory [MiB]:              375
    Schwarz Cutoff:          1E-12
    Fitting Condition:       1E-10

   => Auxiliary Basis Set <=

  Basis Set: (CC-PVDZ AUX)
    Blend: CC-PVDZ-JKFIT + DEF2-UNIVERSAL-JKFIT
    Number of shells: 53
    Number of basis functions: 163
    Number of Cartesian functions: 190
    Spherical Harmonics?: true
    Max angular momentum: 3

  ==> DFT Potential <==

   => LibXC <=

    Version 6.2.2
    S. Lehtola, C. Steigemann, M. J.T. Oliveira, and M. A.L. Marques.,  SoftwareX 7, 1â€“5 (2018) (10.1016/j.softx.2017.11.002)

   => Composite Functional: B3LYP <=

    B3LYP Hyb-GGA Exchange-Correlation Functional

    P. J. Stephens, F. J. Devlin, C. F. Chabalowski, and M. J. Frisch.,  J. Phys. Chem. 98, 11623 (1994) (10.1021/j100096a001)

    Deriv               =              1
    GGA                 =           TRUE
    Meta                =          FALSE

    Exchange Hybrid     =           TRUE
    MP2 Hybrid          =          FALSE

   => Exchange Functionals <=

    0.0800   Slater exchange
    0.7200         Becke 88

   => Exact (HF) Exchange <=

    0.2000               HF

   => Correlation Functionals <=

    0.1900   Vosko, Wilk & Nusair (VWN5_RPA)
    0.8100   Lee, Yang & Parr

   => LibXC Density Thresholds  <==

    XC_HYB_GGA_XC_B3LYP:  1.00E-15

   => Molecular Quadrature <=

    Radial Scheme          =       TREUTLER
    Pruning Scheme         =           NONE
    Nuclear Scheme         =       TREUTLER

    Blocking Scheme        =         OCTREE
    BS radius alpha        =              1
    Pruning alpha          =              1
    Radial Points          =             75
    Spherical Points       =            302
    Total Points           =          42763
    Total Blocks           =            400
    Max Points             =            256
    Max Functions          =             32
    Weights Tolerance      =       1.00E-15

  -Total Gradient:
     Atom            X                  Y                   Z
    ------   -----------------  -----------------  -----------------
       1        0.000000000000    -0.000000000000     0.000000154791
       2        0.000000000000     0.000000000000    -0.000009406090

*** tstop() called on Joses-MacBook-Pro-2.local at Wed Jul 16 18:45:15 2025
Module time:
	user time   =       0.84 seconds =       0.01 minutes
	system time =       1.76 seconds =       0.03 minutes
	total time  =          0 seconds =       0.00 minutes
Total time:
	user time   =      56.34 seconds =       0.94 minutes
	system time =      63.70 seconds =       1.06 minutes
	total time  =         11 seconds =       0.18 minutes

    			-----------------------------------------

    			 OPTKING 3.0: for geometry optimizations

    			     By R.A. King, Bethel University

    			        with contributions from

    			    A.V. Copan, J. Cayton, A. Heide

    			-----------------------------------------

	                            ===> Fragment 1 <==

	 Z (Atomic Numbers)          Masses                          Geom
	       4.000000             9.012183          0.00000000  0.00000000  2.79796590
	      15.000000            30.973762          0.00000000  0.00000000 -0.81410133

	 - Coordinate -           - BOHR/RAD -       - ANG/DEG -
	 R(1,2)           =         3.612067           1.911424

	        --- Internal Coordinate Step in ANG or DEG, aJ/ANG or AJ/DEG ---
	-------------------------------------------------------------------------------
	           Coordinate      Previous         Force          Change          New
	           ----------      --------        ------          ------        ------
	               R(1,2)       1.91142       -0.00004       -0.00003       1.91140
	-------------------------------------------------------------------------------

	                                 ==> Convergence Check <==

	Measures of convergence in internal coordinates in au.

	Criteria marked as inactive (o), active & met (*), and active & unmet ( ).

	----------------------------------------------------------------------------------------------
	   Step    Total Energy     Delta E     Max Force     RMS Force      Max Disp      RMS Disp
	----------------------------------------------------------------------------------------------
	  Convergence Criteria     1.00e-06 *    3.00e-04 *             o    1.20e-03 *             o
	----------------------------------------------------------------------------------------------
	    10    -355.99436449   -4.73e-07 *    4.78e-06 *    4.78e-06 o    4.97e-05 *    4.97e-05 o  ~
	----------------------------------------------------------------------------------------------

Next Geometry in Ang
	Fragment 1 (Ang)

	   Be   0.0000000000   0.0000000000   1.4806066475
	    P   0.0000000000   0.0000000000  -0.4307907299

    Final optimized geometry and variables:
    Molecular point group: c2v
    Full point group: C_inf_v

    Geometry (in Angstrom), charge = 0, multiplicity = 2:

    BE           0.000000000000     0.000000000000     1.480619789290
    P            0.000000000000     0.000000000000    -0.430803871723

    Psi4 stopped on: Wednesday, 16 July 2025 06:45PM
    Psi4 wall time for execution: 0:00:12.50

*** Psi4 exiting successfully. Buy a developer a beer!
