                               Psi4 1.9.1 release

  ==> Input File <==

--------------------------------------------------------------------------
molecule {
0 2
C   0.00000        0.60000        0.00000
F   0.00000       -0.60000        0.00000
}

set {
basis              cc-pvdz
reference          uks
maxiter            500
geom_maxiter       500
DAMPING_PERCENTAGE 1
guess              SAP
}

optimize('b3lyp')
--------------------------------------------------------------------------

    Molecular point group: c2v
  Charge       = 0
  Multiplicity = 2
  Basis Set: CC-PVDZ
    Blend: CC-PVDZ
  Basis Set: (CC-PVDZ AUX)
    Blend: CC-PVDZ-JKFIT
  @DF-UKS Final Energy:  -137.78097886894059
    Total Energy =                       -137.7809788689405934
 Dipole X            :          0.0000000            0.0000000            0.0000000
 Dipole Y            :          0.0000000            0.0000000            0.0000000
 Dipole Z            :         -0.9096011            0.4382258           -0.4713752
 Magnitude           :                                                    0.4713752
    Molecular point group: c2v
  Basis Set: CC-PVDZ
    Blend: CC-PVDZ
  Basis Set: (CC-PVDZ AUX)
    Blend: CC-PVDZ-JKFIT
  Basis Set: CC-PVDZ
    Blend: CC-PVDZ
  Basis Set: (CC-PVDZ AUX)
    Blend: CC-PVDZ-JKFIT
  @DF-UKS Final Energy:  -137.78749432851549
    Total Energy =                       -137.7874943285154927
  Basis Set: CC-PVDZ
    Blend: CC-PVDZ
  Basis Set: (CC-PVDZ AUX)
    Blend: CC-PVDZ-JKFIT
  Basis Set: CC-PVDZ
    Blend: CC-PVDZ
  @DF-UKS Final Energy:  -137.78852733557576
    Total Energy =                       -137.7885273355757647
  @DF-UKS Final Energy:  -137.78859079208144
    Total Energy =                       -137.7885907920814361
  Basis Set: (CC-PVDZ AUX)
    Blend: CC-PVDZ-JKFIT
  Basis Set: CC-PVDZ
    Blend: CC-PVDZ
  Basis Set: (CC-PVDZ AUX)
    Blend: CC-PVDZ-JKFIT
  @DF-UKS Final Energy:  -137.78859506218345
    Total Energy =                       -137.7885950621834468
  Basis Set: CC-PVDZ
    Blend: CC-PVDZ
  Basis Set: (CC-PVDZ AUX)
    Blend: CC-PVDZ-JKFIT
  Charge       = 0
  Multiplicity = 2
  Basis Set: CC-PVDZ
    Blend: CC-PVDZ
  Basis Set: (CC-PVDZ AUX)
    Blend: CC-PVDZ-JKFIT

    Orbital Energies [Eh]
    ---------------------

    Alpha Occupied:

       1A1   -24.796436     2A1   -10.324925     3A1    -1.319695
       4A1    -0.687957     1B2    -0.542559     1B1    -0.530807
       5A1    -0.409689     2B2    -0.210711

    Alpha Virtual:

       2B1    -0.102945     6A1     0.158893     3B2     0.440316
       3B1     0.462453     7A1     0.492938     8A1     0.548470
       9A1     1.032174     4B2     1.089172     4B1     1.092738
       1A2     1.102984    10A1     1.109701     5B2     1.288635
       5B1     1.290873    11A1     1.702938    12A1     2.105110
       2A2     3.479513    13A1     3.479759     6B1     3.711979
       6B2     3.714290    14A1     4.028127

    Beta Occupied:

       1A1   -24.792145     2A1   -10.310246     3A1    -1.309567
       4A1    -0.667820     1B1    -0.527393     1B2    -0.508291
       5A1    -0.374171

    Beta Virtual:

       2B1    -0.086204     2B2    -0.041475     6A1     0.173332
       3B1     0.472459     3B2     0.505049     7A1     0.506478
       8A1     0.572253     9A1     1.037084     4B1     1.095201
       4B2     1.117350     1A2     1.162635    10A1     1.162911
       5B1     1.294036     5B2     1.320780    11A1     1.721496
      12A1     2.108847    13A1     3.490676     2A2     3.490724
       6B1     3.713301     6B2     3.729733    14A1     4.035467

    Final Occupation by Irrep:
             A1    A2    B1    B2
    DOCC [     5,    0,    1,    1 ]
    SOCC [     0,    0,    0,    1 ]
    NA   [     5,    0,    1,    2 ]
    NB   [     5,    0,    1,    1 ]

  @DF-UKS Final Energy:  -137.78859535747560

   => Energetics <=

    Nuclear Repulsion Energy =             22.2137506229645041
    One-Electron Energy =                -233.5538169238125192
    Two-Electron Energy =                  86.2710612026667150
    DFT Exchange-Correlation Energy =     -12.7195902592943071
    Empirical Dispersion Energy =           0.0000000000000000
    VV10 Nonlocal Energy =                  0.0000000000000000
    Total Energy =                       -137.7885953574756002

  UHF NO Occupations:
  HONO-2 :    1 B2 1.9997874
  HONO-1 :    5 A1 1.9988681
  HONO-0 :    2 B2 1.0000000
  LUNO+0 :    6 A1 0.0011319
  LUNO+1 :    3 B2 0.0002126
  LUNO+2 :    2 B1 0.0000951
  LUNO+3 :    7 A1 0.0000162

Computation Completed

Properties will be evaluated at   0.000000,   0.000000,   0.000000 [a0]

Properties computed using the SCF density matrix

 Multipole Moments:

 ------------------------------------------------------------------------------------
     Multipole            Electronic (a.u.)      Nuclear  (a.u.)        Total (a.u.)
 ------------------------------------------------------------------------------------

 L = 1.  Multiply by 2.5417464519 to convert [e a0] to [Debye]
 Dipole X            :          0.0000000            0.0000000            0.0000000
 Dipole Y            :          0.0000000            0.0000000            0.0000000
 Dipole Z            :         -0.7574923            0.4697748           -0.2877175
 Magnitude           :                                                    0.2877175

 ------------------------------------------------------------------------------------

*** tstop() called on Joses-MacBook-Pro-2.local at Wed Jul 16 19:00:09 2025
Module time:
	user time   =       2.23 seconds =       0.04 minutes
	system time =       3.39 seconds =       0.06 minutes
	total time  =          1 seconds =       0.02 minutes
Total time:
	user time   =      23.68 seconds =       0.39 minutes
	system time =      28.02 seconds =       0.47 minutes
	total time  =          5 seconds =       0.08 minutes

*** tstart() called on Joses-MacBook-Pro-2.local
*** at Wed Jul 16 19:00:09 2025

         ------------------------------------------------------------
                                   SCF GRAD
                          Rob Parrish, Justin Turney,
                       Andy Simmonett, and Alex Sokolov
         ------------------------------------------------------------

  ==> Geometry <==

    Molecular point group: c2v
    Full point group: C_inf_v

    Geometry (in Angstrom), charge = 0, multiplicity = 2:

       Center              X                  Y                   Z               Mass
    ------------   -----------------  -----------------  -----------------  -----------------
         C            0.000000000000     0.000000000000     0.788407555738    12.000000000000
         F            0.000000000000     0.000000000000    -0.497983466706    18.998403162730

  Nuclear repulsion =   22.213750622964504

  ==> Basis Set <==

  Basis Set: CC-PVDZ
    Blend: CC-PVDZ
    Number of shells: 12
    Number of basis functions: 28
    Number of Cartesian functions: 30
    Spherical Harmonics?: true
    Max angular momentum: 2

  ==> DFJKGrad: Density-Fitted SCF Gradients <==

    Gradient:                    1
    J tasked:                  Yes
    K tasked:                  Yes
    wK tasked:                  No
    OpenMP threads:              1
    Integrals threads:           1
    Memory [MiB]:              375
    Schwarz Cutoff:          1E-12
    Fitting Condition:       1E-10

   => Auxiliary Basis Set <=

  Basis Set: (CC-PVDZ AUX)
    Blend: CC-PVDZ-JKFIT
    Number of shells: 48
    Number of basis functions: 140
    Number of Cartesian functions: 162
    Spherical Harmonics?: true
    Max angular momentum: 3

  ==> DFT Potential <==

   => LibXC <=

    Version 6.2.2
    S. Lehtola, C. Steigemann, M. J.T. Oliveira, and M. A.L. Marques.,  SoftwareX 7, 1â€“5 (2018) (10.1016/j.softx.2017.11.002)

   => Composite Functional: B3LYP <=

    B3LYP Hyb-GGA Exchange-Correlation Functional

    P. J. Stephens, F. J. Devlin, C. F. Chabalowski, and M. J. Frisch.,  J. Phys. Chem. 98, 11623 (1994) (10.1021/j100096a001)

    Deriv               =              1
    GGA                 =           TRUE
    Meta                =          FALSE

    Exchange Hybrid     =           TRUE
    MP2 Hybrid          =          FALSE

   => Exchange Functionals <=

    0.0800   Slater exchange
    0.7200         Becke 88

   => Exact (HF) Exchange <=

    0.2000               HF

   => Correlation Functionals <=

    0.1900   Vosko, Wilk & Nusair (VWN5_RPA)
    0.8100   Lee, Yang & Parr

   => LibXC Density Thresholds  <==

    XC_HYB_GGA_XC_B3LYP:  1.00E-15

   => Molecular Quadrature <=

    Radial Scheme          =       TREUTLER
    Pruning Scheme         =           NONE
    Nuclear Scheme         =       TREUTLER

    Blocking Scheme        =         OCTREE
    BS radius alpha        =              1
    Pruning alpha          =              1
    Radial Points          =             75
    Spherical Points       =            302
    Total Points           =          43228
    Total Blocks           =            385
    Max Points             =            253
    Max Functions          =             28
    Weights Tolerance      =       1.00E-15

  -Total Gradient:
     Atom            X                  Y                   Z
    ------   -----------------  -----------------  -----------------
       1        0.000000000000     0.000000000000    -0.000134998272
       2        0.000000000000    -0.000000000000     0.000151417222

*** tstop() called on Joses-MacBook-Pro-2.local at Wed Jul 16 19:00:09 2025
Module time:
	user time   =       0.49 seconds =       0.01 minutes
	system time =       1.12 seconds =       0.02 minutes
	total time  =          0 seconds =       0.00 minutes
Total time:
	user time   =      24.17 seconds =       0.40 minutes
	system time =      29.14 seconds =       0.49 minutes
	total time  =          5 seconds =       0.08 minutes

    			-----------------------------------------

    			 OPTKING 3.0: for geometry optimizations

    			     By R.A. King, Bethel University

    			        with contributions from

    			    A.V. Copan, J. Cayton, A. Heide

    			-----------------------------------------

	                            ===> Fragment 1 <==

	 Z (Atomic Numbers)          Masses                          Geom
	       6.000000            12.000000          0.00000000  0.00000000  1.48987436
	       9.000000            18.998403          0.00000000  0.00000000 -0.94105237

	 - Coordinate -           - BOHR/RAD -       - ANG/DEG -
	 R(1,2)           =         2.430927           1.286391

	        --- Internal Coordinate Step in ANG or DEG, aJ/ANG or AJ/DEG ---
	-------------------------------------------------------------------------------
	           Coordinate      Previous         Force          Change          New
	           ----------      --------        ------          ------        ------
	               R(1,2)       1.28639        0.00118        0.00014       1.28654
	-------------------------------------------------------------------------------

	                                 ==> Convergence Check <==

	Measures of convergence in internal coordinates in au.

	Criteria marked as inactive (o), active & met (*), and active & unmet ( ).

	----------------------------------------------------------------------------------------------
	   Step    Total Energy     Delta E     Max Force     RMS Force      Max Disp      RMS Disp
	----------------------------------------------------------------------------------------------
	  Convergence Criteria     1.00e-06 *    3.00e-04 *             o    1.20e-03 *             o
	----------------------------------------------------------------------------------------------
	     6    -137.78859536   -2.95e-07 *    1.43e-04 *    1.43e-04 o    2.73e-04 *    2.73e-04 o  ~
	----------------------------------------------------------------------------------------------

Next Geometry in Ang
	Fragment 1 (Ang)

	    C   0.0000000000   0.0000000000   0.7884798756
	    F   0.0000000000   0.0000000000  -0.4980557866

    Final optimized geometry and variables:
    Molecular point group: c2v
    Full point group: C_inf_v

    Geometry (in Angstrom), charge = 0, multiplicity = 2:

    C            0.000000000000     0.000000000000     0.788407555738
    F            0.000000000000     0.000000000000    -0.497983466706

    Psi4 stopped on: Wednesday, 16 July 2025 07:00PM
    Psi4 wall time for execution: 0:00:05.66

*** Psi4 exiting successfully. Buy a developer a beer!
