                               Psi4 1.9.1 release

  ==> Input File <==

--------------------------------------------------------------------------
molecule {
0 2
B   0.00000        0.60000        0.00000
Ne   0.00000       -0.60000        0.00000
}

set {
basis              cc-pvdz
reference          uks
maxiter            500
geom_maxiter       500
DAMPING_PERCENTAGE 1
guess              SAP
}

optimize('b3lyp')
--------------------------------------------------------------------------

    Molecular point group: c2v
  Charge       = 0
  Multiplicity = 2
  Basis Set: CC-PVDZ
    Blend: CC-PVDZ
  Basis Set: (CC-PVDZ AUX)
    Blend: CC-PVDZ-JKFIT
  @DF-UKS Final Energy:  -153.38666571906637
    Total Energy =                       -153.3866657190663716
 Dipole X            :          0.0000000            0.0000000            0.0000000
 Dipole Y            :          0.0000000            0.0000000            0.0000000
 Dipole Z            :         -0.8030909           -0.7410371           -1.5441280
 Magnitude           :                                                    1.5441280
    Molecular point group: c2v
  Basis Set: CC-PVDZ
    Blend: CC-PVDZ
  Basis Set: (CC-PVDZ AUX)
    Blend: CC-PVDZ-JKFIT
  Basis Set: CC-PVDZ
    Blend: CC-PVDZ
  Basis Set: (CC-PVDZ AUX)
    Blend: CC-PVDZ-JKFIT
  @DF-UKS Final Energy:  -153.46824771388793
    Total Energy =                       -153.4682477138879335
  Basis Set: CC-PVDZ
    Blend: CC-PVDZ
  Basis Set: (CC-PVDZ AUX)
    Blend: CC-PVDZ-JKFIT
  Basis Set: CC-PVDZ
    Blend: CC-PVDZ
  @DF-UKS Final Energy:  -153.50997680321944
    Total Energy =                       -153.5099768032194447
  @DF-UKS Final Energy:  -153.53951510406864
    Total Energy =                       -153.5395151040686414
  @DF-UKS Final Energy:  -153.55672240166626
    Total Energy =                       -153.5567224016662635
  @DF-UKS Final Energy:  -153.56565715375038
    Total Energy =                       -153.5656571537503794
  @DF-UKS Final Energy:  -153.57002139354336
    Total Energy =                       -153.5700213935433851
  @DF-UKS Final Energy:  -153.57204861305596
    Total Energy =                       -153.5720486130559550
  @DF-UKS Final Energy:  -153.57281670446903
    Total Energy =                       -153.5728167044690338
  @DF-UKS Final Energy:  -153.57301776829703
    Total Energy =                       -153.5730177682970066
  @DF-UKS Final Energy:  -153.57304404913205
    Total Energy =                       -153.5730440491320223
  Basis Set: (CC-PVDZ AUX)
    Blend: CC-PVDZ-JKFIT
  Basis Set: CC-PVDZ
    Blend: CC-PVDZ
  Basis Set: (CC-PVDZ AUX)
    Blend: CC-PVDZ-JKFIT
  @DF-UKS Final Energy:  -153.57304812601026
    Total Energy =                       -153.5730481260102920
  Basis Set: CC-PVDZ
    Blend: CC-PVDZ
  Basis Set: (CC-PVDZ AUX)
    Blend: CC-PVDZ-JKFIT
  Charge       = 0
  Multiplicity = 2
  Basis Set: CC-PVDZ
    Blend: CC-PVDZ
  Basis Set: (CC-PVDZ AUX)
    Blend: CC-PVDZ-JKFIT

    Orbital Energies [Eh]
    ---------------------

    Alpha Occupied:

       1A1   -30.979435     2A1    -6.856099     3A1    -1.442899
       4A1    -0.554385     1B2    -0.550718     1B1    -0.550466
       5A1    -0.388947     2B1    -0.183295

    Alpha Virtual:

       2B2    -0.091356     6A1    -0.086177     3B1     0.276242
       3B2     0.299293     7A1     0.311871     8A1     0.356852
       4B1     0.685619     9A1     0.686363     1A2     0.686468
      10A1     0.698041     4B2     0.703198     5B2     1.358682
       5B1     1.359298    11A1     1.429951    12A1     1.913656
       6B2     4.713888     6B1     4.714081     2A2     4.714746
      13A1     4.714855    14A1     4.715145

    Beta Occupied:

       1A1   -30.979416     2A1    -6.847089     3A1    -1.442871
       4A1    -0.554284     1B2    -0.550715     1B1    -0.550311
       5A1    -0.346101

    Beta Virtual:

       2B2    -0.081510     6A1    -0.076039     2B1    -0.044166
       3B2     0.303833     7A1     0.316727     3B1     0.330363
       8A1     0.376572     9A1     0.697210     4B2     0.705457
       4B1     0.736332     1A2     0.737203    10A1     0.744954
       5B2     1.358679     5B1     1.359590    11A1     1.430621
      12A1     1.914302     6B2     4.713870     6B1     4.714123
       2A2     4.714809    13A1     4.714882    14A1     4.715179

    Final Occupation by Irrep:
             A1    A2    B1    B2
    DOCC [     5,    0,    1,    1 ]
    SOCC [     0,    0,    1,    0 ]
    NA   [     5,    0,    2,    1 ]
    NB   [     5,    0,    1,    1 ]

  @DF-UKS Final Energy:  -153.57304823697541

   => Energetics <=

    Nuclear Repulsion Energy =              9.4732753047509277
    One-Electron Energy =                -233.7990610494459816
    Two-Electron Energy =                  84.0114528341090931
    DFT Exchange-Correlation Energy =     -13.2587153263894511
    Empirical Dispersion Energy =           0.0000000000000000
    VV10 Nonlocal Energy =                  0.0000000000000000
    Total Energy =                       -153.5730482369754100

  UHF NO Occupations:
  HONO-2 :    4 A1 1.9999997
  HONO-1 :    5 A1 1.9986423
  HONO-0 :    2 B1 1.0000000
  LUNO+0 :    6 A1 0.0013577
  LUNO+1 :    7 A1 0.0000003
  LUNO+2 :    3 B1 0.0000000
  LUNO+3 :    2 B2 0.0000000

Computation Completed

Properties will be evaluated at   0.000000,   0.000000,   0.000000 [a0]

Properties computed using the SCF density matrix

 Multipole Moments:

 ------------------------------------------------------------------------------------
     Multipole            Electronic (a.u.)      Nuclear  (a.u.)        Total (a.u.)
 ------------------------------------------------------------------------------------

 L = 1.  Multiply by 2.5417464519 to convert [e a0] to [Debye]
 Dipole X            :          0.0000000            0.0000000            0.0000000
 Dipole Y            :          0.0000000            0.0000000            0.0000000
 Dipole Z            :          1.6203403           -1.7247641           -0.1044237
 Magnitude           :                                                    0.1044237

 ------------------------------------------------------------------------------------

*** tstop() called on Joses-MacBook-Pro-2.local at Wed Jul 16 18:51:20 2025
Module time:
	user time   =       2.10 seconds =       0.04 minutes
	system time =       3.91 seconds =       0.07 minutes
	total time  =          0 seconds =       0.00 minutes
Total time:
	user time   =      44.37 seconds =       0.74 minutes
	system time =      83.31 seconds =       1.39 minutes
	total time  =         14 seconds =       0.23 minutes

*** tstart() called on Joses-MacBook-Pro-2.local
*** at Wed Jul 16 18:51:20 2025

         ------------------------------------------------------------
                                   SCF GRAD
                          Rob Parrish, Justin Turney,
                       Andy Simmonett, and Alex Sokolov
         ------------------------------------------------------------

  ==> Geometry <==

    Molecular point group: c2v
    Full point group: C_inf_v

    Geometry (in Angstrom), charge = 0, multiplicity = 2:

       Center              X                  Y                   Z               Mass
    ------------   -----------------  -----------------  -----------------  -----------------
         B            0.000000000000     0.000000000000     1.801153126989    11.009305360000
         NE           0.000000000000     0.000000000000    -0.991847148241    19.992440176200

  Nuclear repulsion =    9.473275304750928

  ==> Basis Set <==

  Basis Set: CC-PVDZ
    Blend: CC-PVDZ
    Number of shells: 12
    Number of basis functions: 28
    Number of Cartesian functions: 30
    Spherical Harmonics?: true
    Max angular momentum: 2

  ==> DFJKGrad: Density-Fitted SCF Gradients <==

    Gradient:                    1
    J tasked:                  Yes
    K tasked:                  Yes
    wK tasked:                  No
    OpenMP threads:              1
    Integrals threads:           1
    Memory [MiB]:              375
    Schwarz Cutoff:          1E-12
    Fitting Condition:       1E-10

   => Auxiliary Basis Set <=

  Basis Set: (CC-PVDZ AUX)
    Blend: CC-PVDZ-JKFIT
    Number of shells: 48
    Number of basis functions: 140
    Number of Cartesian functions: 162
    Spherical Harmonics?: true
    Max angular momentum: 3

  ==> DFT Potential <==

   => LibXC <=

    Version 6.2.2
    S. Lehtola, C. Steigemann, M. J.T. Oliveira, and M. A.L. Marques.,  SoftwareX 7, 1â€“5 (2018) (10.1016/j.softx.2017.11.002)

   => Composite Functional: B3LYP <=

    B3LYP Hyb-GGA Exchange-Correlation Functional

    P. J. Stephens, F. J. Devlin, C. F. Chabalowski, and M. J. Frisch.,  J. Phys. Chem. 98, 11623 (1994) (10.1021/j100096a001)

    Deriv               =              1
    GGA                 =           TRUE
    Meta                =          FALSE

    Exchange Hybrid     =           TRUE
    MP2 Hybrid          =          FALSE

   => Exchange Functionals <=

    0.0800   Slater exchange
    0.7200         Becke 88

   => Exact (HF) Exchange <=

    0.2000               HF

   => Correlation Functionals <=

    0.1900   Vosko, Wilk & Nusair (VWN5_RPA)
    0.8100   Lee, Yang & Parr

   => LibXC Density Thresholds  <==

    XC_HYB_GGA_XC_B3LYP:  1.00E-15

   => Molecular Quadrature <=

    Radial Scheme          =       TREUTLER
    Pruning Scheme         =           NONE
    Nuclear Scheme         =       TREUTLER

    Blocking Scheme        =         OCTREE
    BS radius alpha        =              1
    Pruning alpha          =              1
    Radial Points          =             75
    Spherical Points       =            302
    Total Points           =          43643
    Total Blocks           =            392
    Max Points             =            254
    Max Functions          =             28
    Weights Tolerance      =       1.00E-15

  -Total Gradient:
     Atom            X                  Y                   Z
    ------   -----------------  -----------------  -----------------
       1        0.000000000000     0.000000000000    -0.000009291873
       2        0.000000000000     0.000000000000     0.000015976807

*** tstop() called on Joses-MacBook-Pro-2.local at Wed Jul 16 18:51:20 2025
Module time:
	user time   =       0.58 seconds =       0.01 minutes
	system time =       1.44 seconds =       0.02 minutes
	total time  =          0 seconds =       0.00 minutes
Total time:
	user time   =      44.95 seconds =       0.75 minutes
	system time =      84.76 seconds =       1.41 minutes
	total time  =         14 seconds =       0.23 minutes

    			-----------------------------------------

    			 OPTKING 3.0: for geometry optimizations

    			     By R.A. King, Bethel University

    			        with contributions from

    			    A.V. Copan, J. Cayton, A. Heide

    			-----------------------------------------

	                            ===> Fragment 1 <==

	 Z (Atomic Numbers)          Masses                          Geom
	       5.000000            11.009305          0.00000000  0.00000000  3.40368612
	      10.000000            19.992440          0.00000000  0.00000000 -1.87431947

	 - Coordinate -           - BOHR/RAD -       - ANG/DEG -
	 R(1,2)           =         5.278006           2.793000

	        --- Internal Coordinate Step in ANG or DEG, aJ/ANG or AJ/DEG ---
	-------------------------------------------------------------------------------
	           Coordinate      Previous         Force          Change          New
	           ----------      --------        ------          ------        ------
	               R(1,2)       2.79300        0.00010        0.00125       2.79425
	-------------------------------------------------------------------------------

	                                 ==> Convergence Check <==

	Measures of convergence in internal coordinates in au.

	Criteria marked as inactive (o), active & met (*), and active & unmet ( ).

	----------------------------------------------------------------------------------------------
	   Step    Total Energy     Delta E     Max Force     RMS Force      Max Disp      RMS Disp
	----------------------------------------------------------------------------------------------
	  Convergence Criteria     1.00e-06 *    3.00e-04 *             o    1.20e-03 *             o
	----------------------------------------------------------------------------------------------
	    13    -153.57304824   -1.11e-07 *    1.26e-05 *    1.26e-05 o    2.36e-03      2.36e-03 o  ~
	----------------------------------------------------------------------------------------------

Next Geometry in Ang
	Fragment 1 (Ang)

	    B   0.0000000000   0.0000000000   1.8017762826
	   Ne   0.0000000000   0.0000000000  -0.9924703039

    Final optimized geometry and variables:
    Molecular point group: c2v
    Full point group: C_inf_v

    Geometry (in Angstrom), charge = 0, multiplicity = 2:

    B            0.000000000000     0.000000000000     1.801153126989
    NE           0.000000000000     0.000000000000    -0.991847148241

    Psi4 stopped on: Wednesday, 16 July 2025 06:51PM
    Psi4 wall time for execution: 0:00:15.08

*** Psi4 exiting successfully. Buy a developer a beer!
