                               Psi4 1.9.1 release

  ==> Input File <==

--------------------------------------------------------------------------
molecule {
0 2
N   0.00000        0.60000        0.00000
Mg   0.00000       -0.60000        0.00000
}

set {
basis              cc-pvdz
reference          uks
maxiter            500
geom_maxiter       500
DAMPING_PERCENTAGE 1
guess              SAP
}

optimize('b3lyp')
--------------------------------------------------------------------------

    Molecular point group: c2v
  Charge       = 0
  Multiplicity = 2
  Basis Set: CC-PVDZ
    Blend: CC-PVDZ
  Basis Set: (CC-PVDZ AUX)
    Blend: CC-PVDZ-JKFIT + DEF2-UNIVERSAL-JKFIT
  @DF-UKS Final Energy:  -254.26436849900165
    Total Energy =                       -254.2643684990016482
 Dipole X            :          0.0000000            0.0000000            0.0000000
 Dipole Y            :          0.0000000            0.0000000            0.0000000
 Dipole Z            :         -1.3359326           -0.0084525           -1.3443851
 Magnitude           :                                                    1.3443851
    Molecular point group: c2v
  Basis Set: CC-PVDZ
    Blend: CC-PVDZ
  Basis Set: (CC-PVDZ AUX)
    Blend: CC-PVDZ-JKFIT + DEF2-UNIVERSAL-JKFIT
  Basis Set: CC-PVDZ
    Blend: CC-PVDZ
  Basis Set: (CC-PVDZ AUX)
    Blend: CC-PVDZ-JKFIT + DEF2-UNIVERSAL-JKFIT
  @DF-UKS Final Energy:  -254.43070735466901
    Total Energy =                       -254.4307073546690106
  Basis Set: CC-PVDZ
    Blend: CC-PVDZ
  Basis Set: (CC-PVDZ AUX)
    Blend: CC-PVDZ-JKFIT + DEF2-UNIVERSAL-JKFIT
  Basis Set: CC-PVDZ
    Blend: CC-PVDZ
  @DF-UKS Final Energy:  -254.54564266872330
    Total Energy =                       -254.5456426687233034
  @DF-UKS Final Energy:  -254.58932058395737
    Total Energy =                       -254.5893205839573739
  @DF-UKS Final Energy:  -254.60493083638511
    Total Energy =                       -254.6049308363851083
  @DF-UKS Final Energy:  -254.61093023459753
    Total Energy =                       -254.6109302345975323
  @DF-UKS Final Energy:  -254.61234073917666
    Total Energy =                       -254.6123407391766591
  @DF-UKS Final Energy:  -254.61278810405767
    Total Energy =                       -254.6127881040576710
  @DF-UKS Final Energy:  -254.61285635710064
    Total Energy =                       -254.6128563571006396
  Basis Set: (CC-PVDZ AUX)
    Blend: CC-PVDZ-JKFIT + DEF2-UNIVERSAL-JKFIT
  Basis Set: CC-PVDZ
    Blend: CC-PVDZ
  Basis Set: (CC-PVDZ AUX)
    Blend: CC-PVDZ-JKFIT + DEF2-UNIVERSAL-JKFIT
  @DF-UKS Final Energy:  -254.61286850801898
    Total Energy =                       -254.6128685080189769
  Basis Set: CC-PVDZ
    Blend: CC-PVDZ
  Basis Set: (CC-PVDZ AUX)
    Blend: CC-PVDZ-JKFIT + DEF2-UNIVERSAL-JKFIT
  Charge       = 0
  Multiplicity = 2
  Basis Set: CC-PVDZ
    Blend: CC-PVDZ
  Basis Set: (CC-PVDZ AUX)
    Blend: CC-PVDZ-JKFIT + DEF2-UNIVERSAL-JKFIT

    Orbital Energies [Eh]
    ---------------------

    Alpha Occupied:

       1A1   -46.884544     2A1   -14.291748     3A1    -3.169063
       4A1    -1.913732     1B1    -1.910998     1B2    -1.910998
       5A1    -0.652683     6A1    -0.261156     2B1    -0.188795
       2B2    -0.188795

    Alpha Virtual:

       7A1    -0.148079     3B1    -0.019485     3B2    -0.019485
       8A1     0.035307     9A1     0.079212     4B2     0.143573
       4B1     0.143573    10A1     0.223377    11A1     0.293335
       1A2     0.293335     5B1     0.368072     5B2     0.368072
      12A1     0.584742     6B1     0.873312     6B2     0.873312
      13A1     0.879925    14A1     1.453054    15A1     1.872207
       2A2     1.872223     7B2     1.930709     7B1     1.930709
      16A1     2.055722

    Beta Occupied:

       1A1   -46.882589     2A1   -14.279131     3A1    -3.165519
       4A1    -1.911187     1B1    -1.908757     1B2    -1.908757
       5A1    -0.610256     2B1    -0.171825     2B2    -0.171825

    Beta Virtual:

       6A1    -0.166011     7A1    -0.074169     3B1    -0.009088
       3B2    -0.009088     8A1     0.042457     9A1     0.088354
       4B2     0.152454     4B1     0.152454    10A1     0.247684
       1A2     0.303777    11A1     0.303777     5B1     0.387502
       5B2     0.387502    12A1     0.603650     6B1     0.884187
       6B2     0.884187    13A1     0.935521    14A1     1.482380
      15A1     1.883741     2A2     1.883757     7B2     1.974921
       7B1     1.974921    16A1     2.103125

    Final Occupation by Irrep:
             A1    A2    B1    B2
    DOCC [     5,    0,    2,    2 ]
    SOCC [     1,    0,    0,    0 ]
    NA   [     6,    0,    2,    2 ]
    NB   [     5,    0,    2,    2 ]

  @DF-UKS Final Energy:  -254.61286945968996

   => Energetics <=

    Nuclear Repulsion Energy =             25.1314225235467781
    One-Electron Energy =                -403.6362560102612065
    Two-Electron Energy =                 142.7076636213303402
    DFT Exchange-Correlation Energy =     -18.8156995943058867
    Empirical Dispersion Energy =           0.0000000000000000
    VV10 Nonlocal Energy =                  0.0000000000000000
    Total Energy =                       -254.6128694596899606

  UHF NO Occupations:
  HONO-2 :    2 B2 1.9991858
  HONO-1 :    5 A1 1.9990436
  HONO-0 :    6 A1 1.0000000
  LUNO+0 :    7 A1 0.0009564
  LUNO+1 :    3 B2 0.0008142
  LUNO+2 :    3 B1 0.0008142
  LUNO+3 :    8 A1 0.0000011

Computation Completed

Properties will be evaluated at   0.000000,   0.000000,   0.000000 [a0]

Properties computed using the SCF density matrix

 Multipole Moments:

 ------------------------------------------------------------------------------------
     Multipole            Electronic (a.u.)      Nuclear  (a.u.)        Total (a.u.)
 ------------------------------------------------------------------------------------

 L = 1.  Multiply by 2.5417464519 to convert [e a0] to [Debye]
 Dipole X            :          0.0000000            0.0000000            0.0000000
 Dipole Y            :          0.0000000            0.0000000            0.0000000
 Dipole Z            :         -2.4736085           -0.0124585           -2.4860670
 Magnitude           :                                                    2.4860670

 ------------------------------------------------------------------------------------

*** tstop() called on Joses-MacBook-Pro-2.local at Wed Jul 16 19:10:33 2025
Module time:
	user time   =       7.00 seconds =       0.12 minutes
	system time =       3.84 seconds =       0.06 minutes
	total time  =          1 seconds =       0.02 minutes
Total time:
	user time   =      92.07 seconds =       1.53 minutes
	system time =      69.27 seconds =       1.15 minutes
	total time  =         16 seconds =       0.27 minutes

*** tstart() called on Joses-MacBook-Pro-2.local
*** at Wed Jul 16 19:10:33 2025

         ------------------------------------------------------------
                                   SCF GRAD
                          Rob Parrish, Justin Turney,
                       Andy Simmonett, and Alex Sokolov
         ------------------------------------------------------------

  ==> Geometry <==

    Molecular point group: c2v
    Full point group: C_inf_v

    Geometry (in Angstrom), charge = 0, multiplicity = 2:

       Center              X                  Y                   Z               Mass
    ------------   -----------------  -----------------  -----------------  -----------------
         N            0.000000000000     0.000000000000     1.116750286946    14.003074004430
         MG           0.000000000000     0.000000000000    -0.651987063860    23.985041697000

  Nuclear repulsion =   25.131422523546778

  ==> Basis Set <==

  Basis Set: CC-PVDZ
    Blend: CC-PVDZ
    Number of shells: 14
    Number of basis functions: 32
    Number of Cartesian functions: 34
    Spherical Harmonics?: true
    Max angular momentum: 2

  ==> DFJKGrad: Density-Fitted SCF Gradients <==

    Gradient:                    1
    J tasked:                  Yes
    K tasked:                  Yes
    wK tasked:                  No
    OpenMP threads:              1
    Integrals threads:           1
    Memory [MiB]:              375
    Schwarz Cutoff:          1E-12
    Fitting Condition:       1E-10

   => Auxiliary Basis Set <=

  Basis Set: (CC-PVDZ AUX)
    Blend: CC-PVDZ-JKFIT + DEF2-UNIVERSAL-JKFIT
    Number of shells: 58
    Number of basis functions: 182
    Number of Cartesian functions: 218
    Spherical Harmonics?: true
    Max angular momentum: 4

  ==> DFT Potential <==

   => LibXC <=

    Version 6.2.2
    S. Lehtola, C. Steigemann, M. J.T. Oliveira, and M. A.L. Marques.,  SoftwareX 7, 1â€“5 (2018) (10.1016/j.softx.2017.11.002)

   => Composite Functional: B3LYP <=

    B3LYP Hyb-GGA Exchange-Correlation Functional

    P. J. Stephens, F. J. Devlin, C. F. Chabalowski, and M. J. Frisch.,  J. Phys. Chem. 98, 11623 (1994) (10.1021/j100096a001)

    Deriv               =              1
    GGA                 =           TRUE
    Meta                =          FALSE

    Exchange Hybrid     =           TRUE
    MP2 Hybrid          =          FALSE

   => Exchange Functionals <=

    0.0800   Slater exchange
    0.7200         Becke 88

   => Exact (HF) Exchange <=

    0.2000               HF

   => Correlation Functionals <=

    0.1900   Vosko, Wilk & Nusair (VWN5_RPA)
    0.8100   Lee, Yang & Parr

   => LibXC Density Thresholds  <==

    XC_HYB_GGA_XC_B3LYP:  1.00E-15

   => Molecular Quadrature <=

    Radial Scheme          =       TREUTLER
    Pruning Scheme         =           NONE
    Nuclear Scheme         =       TREUTLER

    Blocking Scheme        =         OCTREE
    BS radius alpha        =              1
    Pruning alpha          =              1
    Radial Points          =             75
    Spherical Points       =            302
    Total Points           =          43415
    Total Blocks           =            412
    Max Points             =            254
    Max Functions          =             32
    Weights Tolerance      =       1.00E-15

  -Total Gradient:
     Atom            X                  Y                   Z
    ------   -----------------  -----------------  -----------------
       1        0.000000000000    -0.000000000000    -0.000108867488
       2        0.000000000000    -0.000000000000     0.000093069464

*** tstop() called on Joses-MacBook-Pro-2.local at Wed Jul 16 19:10:34 2025
Module time:
	user time   =       1.20 seconds =       0.02 minutes
	system time =       2.03 seconds =       0.03 minutes
	total time  =          1 seconds =       0.02 minutes
Total time:
	user time   =      93.28 seconds =       1.55 minutes
	system time =      71.30 seconds =       1.19 minutes
	total time  =         17 seconds =       0.28 minutes

    			-----------------------------------------

    			 OPTKING 3.0: for geometry optimizations

    			     By R.A. King, Bethel University

    			        with contributions from

    			    A.V. Copan, J. Cayton, A. Heide

    			-----------------------------------------

	                            ===> Fragment 1 <==

	 Z (Atomic Numbers)          Masses                          Geom
	       7.000000            14.003074          0.00000000  0.00000000  2.11035219
	      12.000000            23.985042          0.00000000  0.00000000 -1.23207699

	 - Coordinate -           - BOHR/RAD -       - ANG/DEG -
	 R(1,2)           =         3.342429           1.768737

	        --- Internal Coordinate Step in ANG or DEG, aJ/ANG or AJ/DEG ---
	-------------------------------------------------------------------------------
	           Coordinate      Previous         Force          Change          New
	           ----------      --------        ------          ------        ------
	               R(1,2)       1.76874        0.00083        0.00022       1.76896
	-------------------------------------------------------------------------------

	                                 ==> Convergence Check <==

	Measures of convergence in internal coordinates in au.

	Criteria marked as inactive (o), active & met (*), and active & unmet ( ).

	----------------------------------------------------------------------------------------------
	   Step    Total Energy     Delta E     Max Force     RMS Force      Max Disp      RMS Disp
	----------------------------------------------------------------------------------------------
	  Convergence Criteria     1.00e-06 *    3.00e-04 *             o    1.20e-03 *             o
	----------------------------------------------------------------------------------------------
	    11    -254.61286946   -9.52e-07 *    1.01e-04 *    1.01e-04 o    4.20e-04 *    4.20e-04 o  ~
	----------------------------------------------------------------------------------------------

Next Geometry in Ang
	Fragment 1 (Ang)

	    N   0.0000000000   0.0000000000   1.1168615064
	   Mg   0.0000000000   0.0000000000  -0.6520982833

    Final optimized geometry and variables:
    Molecular point group: c2v
    Full point group: C_inf_v

    Geometry (in Angstrom), charge = 0, multiplicity = 2:

    N            0.000000000000     0.000000000000     1.116750286946
    MG           0.000000000000     0.000000000000    -0.651987063860

    Psi4 stopped on: Wednesday, 16 July 2025 07:10PM
    Psi4 wall time for execution: 0:00:17.67

*** Psi4 exiting successfully. Buy a developer a beer!
