                               Psi4 1.9.1 release

  ==> Input File <==

--------------------------------------------------------------------------
molecule {
0 2
Cl   0.00000        0.60000        0.00000
Ar   0.00000       -0.60000        0.00000
}

set {
basis              cc-pvdz
reference          uks
maxiter            500
geom_maxiter       500
DAMPING_PERCENTAGE 1
guess              SAP
}

optimize('b3lyp')
--------------------------------------------------------------------------

    Molecular point group: c2v
  Charge       = 0
  Multiplicity = 2
  Basis Set: CC-PVDZ
    Blend: CC-PVDZ
  Basis Set: (CC-PVDZ AUX)
    Blend: CC-PVDZ-JKFIT
  @DF-UKS Final Energy:  -986.00241942487082
    Total Energy =                       -986.0024194248708227
 Dipole X            :          0.0000000            0.0000000            0.0000000
 Dipole Y            :          0.0000000            0.0000000            0.0000000
 Dipole Z            :         -2.9904900            1.5107824           -1.4797076
 Magnitude           :                                                    1.4797076
    Molecular point group: c2v
  Basis Set: CC-PVDZ
    Blend: CC-PVDZ
  Basis Set: (CC-PVDZ AUX)
    Blend: CC-PVDZ-JKFIT
  Basis Set: CC-PVDZ
    Blend: CC-PVDZ
  Basis Set: (CC-PVDZ AUX)
    Blend: CC-PVDZ-JKFIT
  @DF-UKS Final Energy:  -986.05331970029977
    Total Energy =                       -986.0533197002997667
  Basis Set: CC-PVDZ
    Blend: CC-PVDZ
  Basis Set: (CC-PVDZ AUX)
    Blend: CC-PVDZ-JKFIT
  Basis Set: CC-PVDZ
    Blend: CC-PVDZ
  @DF-UKS Final Energy:  -986.14714430552294
    Total Energy =                       -986.1471443055229429
  @DF-UKS Final Energy:  -986.44834071774937
    Total Energy =                       -986.4483407177493746
  @DF-UKS Final Energy:  -987.05653614865162
    Total Energy =                       -987.0565361486516167
  @DF-UKS Final Energy:  -987.30654956021624
    Total Energy =                       -987.3065495602162400
  @DF-UKS Final Energy:  -987.48154614613713
    Total Energy =                       -987.4815461461371342
  @DF-UKS Final Energy:  -987.58901479550900
    Total Energy =                       -987.5890147955090015
  @DF-UKS Final Energy:  -987.64576874637316
    Total Energy =                       -987.6457687463731645
  @DF-UKS Final Energy:  -987.67419802052939
    Total Energy =                       -987.6741980205293885
  @DF-UKS Final Energy:  -987.68835875080424
    Total Energy =                       -987.6883587508042410
  @DF-UKS Final Energy:  -987.69525320849698
    Total Energy =                       -987.6952532084970926
  @DF-UKS Final Energy:  -987.69851354081356
    Total Energy =                       -987.6985135408136784
  @DF-UKS Final Energy:  -987.70000325660521
    Total Energy =                       -987.7000032566052141
  @DF-UKS Final Energy:  -987.70065407448260
    Total Energy =                       -987.7006540744825998
  @DF-UKS Final Energy:  -987.70091792726885
    Total Energy =                       -987.7009179272688471
  @DF-UKS Final Energy:  -987.70099404980863
    Total Energy =                       -987.7009940498086280
  @DF-UKS Final Energy:  -987.70102918631392
    Total Energy =                       -987.7010291863138036
  @DF-UKS Final Energy:  -987.70103906839995
    Total Energy =                       -987.7010390683999503
  Basis Set: (CC-PVDZ AUX)
    Blend: CC-PVDZ-JKFIT
  Basis Set: CC-PVDZ
    Blend: CC-PVDZ
  Basis Set: (CC-PVDZ AUX)
    Blend: CC-PVDZ-JKFIT
  @DF-UKS Final Energy:  -987.70104318878771
    Total Energy =                       -987.7010431887877075
  Basis Set: CC-PVDZ
    Blend: CC-PVDZ
  Basis Set: (CC-PVDZ AUX)
    Blend: CC-PVDZ-JKFIT
  Charge       = 0
  Multiplicity = 2
  Basis Set: CC-PVDZ
    Blend: CC-PVDZ
  Basis Set: (CC-PVDZ AUX)
    Blend: CC-PVDZ-JKFIT

    Orbital Energies [Eh]
    ---------------------

    Alpha Occupied:

       1A1  -115.107800     2A1  -101.587667     3A1   -11.143837
       4A1    -9.501729     5A1    -8.694099     1B2    -8.693563
       1B1    -8.693563     6A1    -7.275422     2B2    -7.251974
       2B1    -7.251974     7A1    -0.972070     8A1    -0.839407
       9A1    -0.436735     3B1    -0.428677     3B2    -0.428677
      10A1    -0.395079     4B2    -0.346287     4B1    -0.346287

    Alpha Virtual:

      11A1     0.443502     5B2     0.521279     5B1     0.521279
      12A1     0.550974     6B1     0.588500     6B2     0.588500
      13A1     0.629961     7B1     0.672180     7B2     0.672180
      14A1     0.682530     1A2     0.714684    15A1     0.714684
      16A1     0.791261     8B1     0.828294     8B2     0.828294
      17A1     0.829235     2A2     0.829255    18A1     0.855178

    Beta Occupied:

       1A1  -115.107621     2A1  -101.580973     3A1   -11.143666
       4A1    -9.495118     5A1    -8.693585     1B2    -8.693450
       1B1    -8.693450     6A1    -7.253590     2B2    -7.248009
       2B1    -7.248009     7A1    -0.971145     8A1    -0.786474
       9A1    -0.430372     3B2    -0.428369     3B1    -0.428369
       4B2    -0.330471     4B1    -0.330471

    Beta Virtual:

      10A1    -0.238885    11A1     0.469960     5B2     0.527298
       5B1     0.527298    12A1     0.576767     6B2     0.590297
       6B1     0.590297    13A1     0.657784     1A2     0.722944
      14A1     0.722945     7B1     0.728934     7B2     0.728934
      15A1     0.731577    16A1     0.801293     8B1     0.829302
       8B2     0.829302    17A1     0.829453     2A2     0.829473
      18A1     0.862821

    Final Occupation by Irrep:
             A1    A2    B1    B2
    DOCC [     9,    0,    4,    4 ]
    SOCC [     1,    0,    0,    0 ]
    NA   [    10,    0,    4,    4 ]
    NB   [     9,    0,    4,    4 ]

  @DF-UKS Final Energy:  -987.70104401655749

   => Energetics <=

    Nuclear Repulsion Energy =             47.7753595623249652
    One-Electron Energy =               -1458.8780590317292081
    Two-Electron Energy =                 471.0093862484400233
    DFT Exchange-Correlation Energy =     -47.6077307955931275
    Empirical Dispersion Energy =           0.0000000000000000
    VV10 Nonlocal Energy =                  0.0000000000000000
    Total Energy =                       -987.7010440165574892

  UHF NO Occupations:
  HONO-2 :    4 B1 1.9999742
  HONO-1 :    9 A1 1.9991530
  HONO-0 :   10 A1 1.0000000
  LUNO+0 :   11 A1 0.0008470
  LUNO+1 :    5 B1 0.0000258
  LUNO+2 :    5 B2 0.0000258
  LUNO+3 :   12 A1 0.0000105

Computation Completed

Properties will be evaluated at   0.000000,   0.000000,   0.000000 [a0]

Properties computed using the SCF density matrix

 Multipole Moments:

 ------------------------------------------------------------------------------------
     Multipole            Electronic (a.u.)      Nuclear  (a.u.)        Total (a.u.)
 ------------------------------------------------------------------------------------

 L = 1.  Multiply by 2.5417464519 to convert [e a0] to [Debye]
 Dipole X            :          0.0000000            0.0000000            0.0000000
 Dipole Y            :          0.0000000            0.0000000            0.0000000
 Dipole Z            :         -4.3491731            4.2671634           -0.0820097
 Magnitude           :                                                    0.0820097

 ------------------------------------------------------------------------------------

*** tstop() called on Joses-MacBook-Pro-2.local at Wed Jul 16 20:33:23 2025
Module time:
	user time   =       6.18 seconds =       0.10 minutes
	system time =       1.78 seconds =       0.03 minutes
	total time  =          0 seconds =       0.00 minutes
Total time:
	user time   =     218.26 seconds =       3.64 minutes
	system time =      67.80 seconds =       1.13 minutes
	total time  =         27 seconds =       0.45 minutes

*** tstart() called on Joses-MacBook-Pro-2.local
*** at Wed Jul 16 20:33:23 2025

         ------------------------------------------------------------
                                   SCF GRAD
                          Rob Parrish, Justin Turney,
                       Andy Simmonett, and Alex Sokolov
         ------------------------------------------------------------

  ==> Geometry <==

    Molecular point group: c2v
    Full point group: C_inf_v

    Geometry (in Angstrom), charge = 0, multiplicity = 2:

       Center              X                  Y                   Z               Mass
    ------------   -----------------  -----------------  -----------------  -----------------
         CL           0.000000000000     0.000000000000     1.807619754323    34.968852682000
         AR           0.000000000000     0.000000000000    -1.581747232099    39.962383123700

  Nuclear repulsion =   47.775359562324965

  ==> Basis Set <==

  Basis Set: CC-PVDZ
    Blend: CC-PVDZ
    Number of shells: 16
    Number of basis functions: 36
    Number of Cartesian functions: 38
    Spherical Harmonics?: true
    Max angular momentum: 2

  ==> DFJKGrad: Density-Fitted SCF Gradients <==

    Gradient:                    1
    J tasked:                  Yes
    K tasked:                  Yes
    wK tasked:                  No
    OpenMP threads:              1
    Integrals threads:           1
    Memory [MiB]:              375
    Schwarz Cutoff:          1E-12
    Fitting Condition:       1E-10

   => Auxiliary Basis Set <=

  Basis Set: (CC-PVDZ AUX)
    Blend: CC-PVDZ-JKFIT
    Number of shells: 72
    Number of basis functions: 224
    Number of Cartesian functions: 260
    Spherical Harmonics?: true
    Max angular momentum: 3

  ==> DFT Potential <==

   => LibXC <=

    Version 6.2.2
    S. Lehtola, C. Steigemann, M. J.T. Oliveira, and M. A.L. Marques.,  SoftwareX 7, 1â€“5 (2018) (10.1016/j.softx.2017.11.002)

   => Composite Functional: B3LYP <=

    B3LYP Hyb-GGA Exchange-Correlation Functional

    P. J. Stephens, F. J. Devlin, C. F. Chabalowski, and M. J. Frisch.,  J. Phys. Chem. 98, 11623 (1994) (10.1021/j100096a001)

    Deriv               =              1
    GGA                 =           TRUE
    Meta                =          FALSE

    Exchange Hybrid     =           TRUE
    MP2 Hybrid          =          FALSE

   => Exchange Functionals <=

    0.0800   Slater exchange
    0.7200         Becke 88

   => Exact (HF) Exchange <=

    0.2000               HF

   => Correlation Functionals <=

    0.1900   Vosko, Wilk & Nusair (VWN5_RPA)
    0.8100   Lee, Yang & Parr

   => LibXC Density Thresholds  <==

    XC_HYB_GGA_XC_B3LYP:  1.00E-15

   => Molecular Quadrature <=

    Radial Scheme          =       TREUTLER
    Pruning Scheme         =           NONE
    Nuclear Scheme         =       TREUTLER

    Blocking Scheme        =         OCTREE
    BS radius alpha        =              1
    Pruning alpha          =              1
    Radial Points          =             75
    Spherical Points       =            302
    Total Points           =          39836
    Total Blocks           =            368
    Max Points             =            256
    Max Functions          =             36
    Weights Tolerance      =       1.00E-15

  -Total Gradient:
     Atom            X                  Y                   Z
    ------   -----------------  -----------------  -----------------
       1        0.000000000000    -0.000000000000    -0.000024299197
       2        0.000000000000    -0.000000000000     0.000020986841

*** tstop() called on Joses-MacBook-Pro-2.local at Wed Jul 16 20:33:24 2025
Module time:
	user time   =       2.10 seconds =       0.03 minutes
	system time =       1.07 seconds =       0.02 minutes
	total time  =          1 seconds =       0.02 minutes
Total time:
	user time   =     220.36 seconds =       3.67 minutes
	system time =      68.87 seconds =       1.15 minutes
	total time  =         28 seconds =       0.47 minutes

    			-----------------------------------------

    			 OPTKING 3.0: for geometry optimizations

    			     By R.A. King, Bethel University

    			        with contributions from

    			    A.V. Copan, J. Cayton, A. Heide

    			-----------------------------------------

	                            ===> Fragment 1 <==

	 Z (Atomic Numbers)          Masses                          Geom
	      17.000000            34.968853          0.00000000  0.00000000  3.41590627
	      18.000000            39.962383          0.00000000  0.00000000 -2.98906907

	 - Coordinate -           - BOHR/RAD -       - ANG/DEG -
	 R(1,2)           =         6.404975           3.389367

	        --- Internal Coordinate Step in ANG or DEG, aJ/ANG or AJ/DEG ---
	-------------------------------------------------------------------------------
	           Coordinate      Previous         Force          Change          New
	           ----------      --------        ------          ------        ------
	               R(1,2)       3.38937        0.00019        0.00682       3.39619
	-------------------------------------------------------------------------------

	                                 ==> Convergence Check <==

	Measures of convergence in internal coordinates in au.

	Criteria marked as inactive (o), active & met (*), and active & unmet ( ).

	----------------------------------------------------------------------------------------------
	   Step    Total Energy     Delta E     Max Force     RMS Force      Max Disp      RMS Disp
	----------------------------------------------------------------------------------------------
	  Convergence Criteria     1.00e-06 *    3.00e-04 *             o    1.20e-03 *             o
	----------------------------------------------------------------------------------------------
	    21    -987.70104402   -8.28e-07 *    2.26e-05 *    2.26e-05 o    1.29e-02      1.29e-02 o  ~
	----------------------------------------------------------------------------------------------

Next Geometry in Ang
	Fragment 1 (Ang)

	   Cl   0.0000000000   0.0000000000   1.8110298234
	   Ar   0.0000000000   0.0000000000  -1.5851573011

    Final optimized geometry and variables:
    Molecular point group: c2v
    Full point group: C_inf_v

    Geometry (in Angstrom), charge = 0, multiplicity = 2:

    CL           0.000000000000     0.000000000000     1.807619754323
    AR           0.000000000000     0.000000000000    -1.581747232099

    Psi4 stopped on: Wednesday, 16 July 2025 08:33PM
    Psi4 wall time for execution: 0:00:27.81

*** Psi4 exiting successfully. Buy a developer a beer!
