                               Psi4 1.9.1 release

  ==> Input File <==

--------------------------------------------------------------------------
molecule {
0 2
Mg   0.00000        0.60000        0.00000
Al   0.00000       -0.60000        0.00000
}

set {
basis              cc-pvdz
reference          uks
maxiter            500
geom_maxiter       500
DAMPING_PERCENTAGE 1
guess              SAP
}

optimize('b3lyp')
--------------------------------------------------------------------------

    Molecular point group: c2v
  Charge       = 0
  Multiplicity = 2
  Basis Set: CC-PVDZ
    Blend: CC-PVDZ
  Basis Set: (CC-PVDZ AUX)
    Blend: CC-PVDZ-JKFIT + DEF2-UNIVERSAL-JKFIT
  @DF-UKS Final Energy:  -441.56376401181808
    Total Energy =                       -441.5637640118180798
 Dipole X            :          0.0000000            0.0000000            0.0000000
 Dipole Y            :          0.0000000            0.0000000            0.0000000
 Dipole Z            :          0.1878508            0.5327147            0.7205656
 Magnitude           :                                                    0.7205656
    Molecular point group: c2v
  Basis Set: CC-PVDZ
    Blend: CC-PVDZ
  Basis Set: (CC-PVDZ AUX)
    Blend: CC-PVDZ-JKFIT + DEF2-UNIVERSAL-JKFIT
  Basis Set: CC-PVDZ
    Blend: CC-PVDZ
  Basis Set: (CC-PVDZ AUX)
    Blend: CC-PVDZ-JKFIT + DEF2-UNIVERSAL-JKFIT
  @DF-UKS Final Energy:  -441.57226257789063
    Total Energy =                       -441.5722625778906263
  Basis Set: CC-PVDZ
    Blend: CC-PVDZ
  Basis Set: (CC-PVDZ AUX)
    Blend: CC-PVDZ-JKFIT + DEF2-UNIVERSAL-JKFIT
  Basis Set: CC-PVDZ
    Blend: CC-PVDZ
  @DF-UKS Final Energy:  -441.58872580303068
    Total Energy =                       -441.5887258030306839
  @DF-UKS Final Energy:  -441.64905450667624
    Total Energy =                       -441.6490545066762365
  @DF-UKS Final Energy:  -441.93587839726609
    Total Energy =                       -441.9358783972660945
  @DF-UKS Final Energy:  -442.14935919577579
    Total Energy =                       -442.1493591957758440
  @DF-UKS Final Energy:  -442.32892884114972
    Total Energy =                       -442.3289288411497182
  @DF-UKS Final Energy:  -442.41485867653108
    Total Energy =                       -442.4148586765310824
  @DF-UKS Final Energy:  -442.45535970412914
    Total Energy =                       -442.4553597041290800
  @DF-UKS Final Energy:  -442.47370219434839
    Total Energy =                       -442.4737021943483910
  @DF-UKS Final Energy:  -442.48142613351689
    Total Energy =                       -442.4814261335168908
  @DF-UKS Final Energy:  -442.48424692510395
    Total Energy =                       -442.4842469251039461
  @DF-UKS Final Energy:  -442.48504900819211
    Total Energy =                       -442.4850490081921066
  @DF-UKS Final Energy:  -442.48517578027565
    Total Energy =                       -442.4851757802756538
  @DF-UKS Final Energy:  -442.48520195760784
    Total Energy =                       -442.4852019576078419
  Basis Set: (CC-PVDZ AUX)
    Blend: CC-PVDZ-JKFIT + DEF2-UNIVERSAL-JKFIT
  Basis Set: CC-PVDZ
    Blend: CC-PVDZ
  Basis Set: (CC-PVDZ AUX)
    Blend: CC-PVDZ-JKFIT + DEF2-UNIVERSAL-JKFIT
  @DF-UKS Final Energy:  -442.48520393120958
    Total Energy =                       -442.4852039312095826
  Basis Set: CC-PVDZ
    Blend: CC-PVDZ
  Basis Set: (CC-PVDZ AUX)
    Blend: CC-PVDZ-JKFIT + DEF2-UNIVERSAL-JKFIT
  Charge       = 0
  Multiplicity = 2
  Basis Set: CC-PVDZ
    Blend: CC-PVDZ
  Basis Set: (CC-PVDZ AUX)
    Blend: CC-PVDZ-JKFIT + DEF2-UNIVERSAL-JKFIT

    Orbital Energies [Eh]
    ---------------------

    Alpha Occupied:

       1A1   -56.061120     2A1   -46.834976     3A1    -4.140990
       4A1    -3.115190     1B1    -2.694890     5A1    -2.693088
       1B2    -2.692281     2B1    -1.859030     2B2    -1.858524
       6A1    -1.858440     7A1    -0.329584     8A1    -0.202387
       3B2    -0.133170

    Alpha Virtual:

       3B1    -0.083453     9A1    -0.081678     4B2    -0.026205
       4B1    -0.020726    10A1     0.027565    11A1     0.089377
      12A1     0.140709     5B2     0.151536     5B1     0.153228
      13A1     0.204543     6B2     0.224920     6B1     0.232228
       7B2     0.236456     7B1     0.242633     1A2     0.254981
      14A1     0.258296    15A1     0.283373     2A2     0.322009
      16A1     0.322843    17A1     0.377486     8B2     0.421865
       8B1     0.424972    18A1     0.584193

    Beta Occupied:

       1A1   -56.059540     2A1   -46.834880     3A1    -4.139072
       4A1    -3.115089     1B1    -2.694002     5A1    -2.692024
       1B2    -2.686164     2B1    -1.859026     6A1    -1.858453
       2B2    -1.857866     7A1    -0.308272     8A1    -0.197474

    Beta Virtual:

       3B1    -0.079028     9A1    -0.078190     3B2    -0.062292
       4B1    -0.020218     4B2    -0.009630    10A1     0.030289
      11A1     0.092708    12A1     0.143792     5B1     0.152758
       5B2     0.157780    13A1     0.207896     6B1     0.232828
       7B1     0.244170     6B2     0.245981     7B2     0.259716
      14A1     0.277967     1A2     0.279569    15A1     0.292066
       2A2     0.331201    16A1     0.331521    17A1     0.383534
       8B1     0.425317     8B2     0.437512    18A1     0.589569

    Final Occupation by Irrep:
             A1    A2    B1    B2
    DOCC [     8,    0,    2,    2 ]
    SOCC [     0,    0,    0,    1 ]
    NA   [     8,    0,    2,    3 ]
    NB   [     8,    0,    2,    2 ]

  @DF-UKS Final Energy:  -442.48520407505481

   => Energetics <=

    Nuclear Repulsion Energy =             27.9682019857829935
    One-Electron Energy =                -671.9639238617885439
    Two-Electron Energy =                 229.7628892304596775
    DFT Exchange-Correlation Energy =     -28.2523714295089690
    Empirical Dispersion Energy =           0.0000000000000000
    VV10 Nonlocal Energy =                  0.0000000000000000
    Total Energy =                       -442.4852040750548099

  UHF NO Occupations:
  HONO-2 :    7 A1 1.9988120
  HONO-1 :    8 A1 1.9981843
  HONO-0 :    3 B2 1.0000000
  LUNO+0 :    9 A1 0.0018157
  LUNO+1 :   10 A1 0.0011880
  LUNO+2 :    4 B2 0.0000000
  LUNO+3 :    5 B2 0.0000000

Computation Completed

Properties will be evaluated at   0.000000,   0.000000,   0.000000 [a0]

Properties computed using the SCF density matrix

 Multipole Moments:

 ------------------------------------------------------------------------------------
     Multipole            Electronic (a.u.)      Nuclear  (a.u.)        Total (a.u.)
 ------------------------------------------------------------------------------------

 L = 1.  Multiply by 2.5417464519 to convert [e a0] to [Debye]
 Dipole X            :          0.0000000            0.0000000            0.0000000
 Dipole Y            :          0.0000000            0.0000000            0.0000000
 Dipole Z            :         -0.8216538            1.3103118            0.4886580
 Magnitude           :                                                    0.4886580

 ------------------------------------------------------------------------------------

*** tstop() called on Joses-MacBook-Pro-2.local at Wed Jul 16 19:55:04 2025
Module time:
	user time   =       6.37 seconds =       0.11 minutes
	system time =       2.48 seconds =       0.04 minutes
	total time  =          1 seconds =       0.02 minutes
Total time:
	user time   =     217.74 seconds =       3.63 minutes
	system time =      66.95 seconds =       1.12 minutes
	total time  =         27 seconds =       0.45 minutes

*** tstart() called on Joses-MacBook-Pro-2.local
*** at Wed Jul 16 19:55:04 2025

         ------------------------------------------------------------
                                   SCF GRAD
                          Rob Parrish, Justin Turney,
                       Andy Simmonett, and Alex Sokolov
         ------------------------------------------------------------

  ==> Geometry <==

    Molecular point group: c2v
    Full point group: C_inf_v

    Geometry (in Angstrom), charge = 0, multiplicity = 2:

       Center              X                  Y                   Z               Mass
    ------------   -----------------  -----------------  -----------------  -----------------
         MG           0.000000000000     0.000000000000     1.562580498107    23.985041697000
         AL           0.000000000000     0.000000000000    -1.389044526143    26.981538530000

  Nuclear repulsion =   27.968201985782994

  ==> Basis Set <==

  Basis Set: CC-PVDZ
    Blend: CC-PVDZ
    Number of shells: 16
    Number of basis functions: 36
    Number of Cartesian functions: 38
    Spherical Harmonics?: true
    Max angular momentum: 2

  ==> DFJKGrad: Density-Fitted SCF Gradients <==

    Gradient:                    1
    J tasked:                  Yes
    K tasked:                  Yes
    wK tasked:                  No
    OpenMP threads:              1
    Integrals threads:           1
    Memory [MiB]:              375
    Schwarz Cutoff:          1E-12
    Fitting Condition:       1E-10

   => Auxiliary Basis Set <=

  Basis Set: (CC-PVDZ AUX)
    Blend: CC-PVDZ-JKFIT + DEF2-UNIVERSAL-JKFIT
    Number of shells: 70
    Number of basis functions: 224
    Number of Cartesian functions: 267
    Spherical Harmonics?: true
    Max angular momentum: 4

  ==> DFT Potential <==

   => LibXC <=

    Version 6.2.2
    S. Lehtola, C. Steigemann, M. J.T. Oliveira, and M. A.L. Marques.,  SoftwareX 7, 1â€“5 (2018) (10.1016/j.softx.2017.11.002)

   => Composite Functional: B3LYP <=

    B3LYP Hyb-GGA Exchange-Correlation Functional

    P. J. Stephens, F. J. Devlin, C. F. Chabalowski, and M. J. Frisch.,  J. Phys. Chem. 98, 11623 (1994) (10.1021/j100096a001)

    Deriv               =              1
    GGA                 =           TRUE
    Meta                =          FALSE

    Exchange Hybrid     =           TRUE
    MP2 Hybrid          =          FALSE

   => Exchange Functionals <=

    0.0800   Slater exchange
    0.7200         Becke 88

   => Exact (HF) Exchange <=

    0.2000               HF

   => Correlation Functionals <=

    0.1900   Vosko, Wilk & Nusair (VWN5_RPA)
    0.8100   Lee, Yang & Parr

   => LibXC Density Thresholds  <==

    XC_HYB_GGA_XC_B3LYP:  1.00E-15

   => Molecular Quadrature <=

    Radial Scheme          =       TREUTLER
    Pruning Scheme         =           NONE
    Nuclear Scheme         =       TREUTLER

    Blocking Scheme        =         OCTREE
    BS radius alpha        =              1
    Pruning alpha          =              1
    Radial Points          =             75
    Spherical Points       =            302
    Total Points           =          42941
    Total Blocks           =            422
    Max Points             =            256
    Max Functions          =             36
    Weights Tolerance      =       1.00E-15

  -Total Gradient:
     Atom            X                  Y                   Z
    ------   -----------------  -----------------  -----------------
       1        0.000000000000     0.000000000000    -0.000017883686
       2        0.000000000000    -0.000000000000     0.000026053504

*** tstop() called on Joses-MacBook-Pro-2.local at Wed Jul 16 19:55:05 2025
Module time:
	user time   =       3.21 seconds =       0.05 minutes
	system time =       1.56 seconds =       0.03 minutes
	total time  =          1 seconds =       0.02 minutes
Total time:
	user time   =     220.96 seconds =       3.68 minutes
	system time =      68.51 seconds =       1.14 minutes
	total time  =         28 seconds =       0.47 minutes

    			-----------------------------------------

    			 OPTKING 3.0: for geometry optimizations

    			     By R.A. King, Bethel University

    			        with contributions from

    			    A.V. Copan, J. Cayton, A. Heide

    			-----------------------------------------

	                            ===> Fragment 1 <==

	 Z (Atomic Numbers)          Masses                          Geom
	      12.000000            23.985042          0.00000000  0.00000000  2.95284919
	      13.000000            26.981539          0.00000000  0.00000000 -2.62491373

	 - Coordinate -           - BOHR/RAD -       - ANG/DEG -
	 R(1,2)           =         5.577763           2.951625

	        --- Internal Coordinate Step in ANG or DEG, aJ/ANG or AJ/DEG ---
	-------------------------------------------------------------------------------
	           Coordinate      Previous         Force          Change          New
	           ----------      --------        ------          ------        ------
	               R(1,2)       2.95163        0.00018        0.00067       2.95229
	-------------------------------------------------------------------------------

	                                 ==> Convergence Check <==

	Measures of convergence in internal coordinates in au.

	Criteria marked as inactive (o), active & met (*), and active & unmet ( ).

	----------------------------------------------------------------------------------------------
	   Step    Total Energy     Delta E     Max Force     RMS Force      Max Disp      RMS Disp
	----------------------------------------------------------------------------------------------
	  Convergence Criteria     1.00e-06 *    3.00e-04 *             o    1.20e-03 *             o
	----------------------------------------------------------------------------------------------
	    17    -442.48520408   -1.44e-07 *    2.20e-05 *    2.20e-05 o    1.26e-03      1.26e-03 o  ~
	----------------------------------------------------------------------------------------------

Next Geometry in Ang
	Fragment 1 (Ang)

	   Mg   0.0000000000   0.0000000000   1.5629143488
	   Al   0.0000000000   0.0000000000  -1.3893783769

    Final optimized geometry and variables:
    Molecular point group: c2v
    Full point group: C_inf_v

    Geometry (in Angstrom), charge = 0, multiplicity = 2:

    MG           0.000000000000     0.000000000000     1.562580498107
    AL           0.000000000000     0.000000000000    -1.389044526143

    Psi4 stopped on: Wednesday, 16 July 2025 07:55PM
    Psi4 wall time for execution: 0:00:28.35

*** Psi4 exiting successfully. Buy a developer a beer!
