                               Psi4 1.9.1 release

  ==> Input File <==

--------------------------------------------------------------------------
molecule {
0 2
Al   0.00000        0.60000        0.00000
Ar   0.00000       -0.60000        0.00000
}

set {
basis              cc-pvdz
reference          uks
maxiter            500
geom_maxiter       500
DAMPING_PERCENTAGE 1
guess              SAP
}

optimize('b3lyp')
--------------------------------------------------------------------------

    Molecular point group: c2v
  Charge       = 0
  Multiplicity = 2
  Basis Set: CC-PVDZ
    Blend: CC-PVDZ
  Basis Set: (CC-PVDZ AUX)
    Blend: CC-PVDZ-JKFIT
  @DF-UKS Final Energy:  -768.52766893261992
    Total Energy =                       -768.5276689326199175
 Dipole X            :          0.0000000            0.0000000            0.0000000
 Dipole Y            :          0.0000000            0.0000000            0.0000000
 Dipole Z            :         -3.3065552            1.1464141           -2.1601411
 Magnitude           :                                                    2.1601411
    Molecular point group: c2v
  Basis Set: CC-PVDZ
    Blend: CC-PVDZ
  Basis Set: (CC-PVDZ AUX)
    Blend: CC-PVDZ-JKFIT
  Basis Set: CC-PVDZ
    Blend: CC-PVDZ
  Basis Set: (CC-PVDZ AUX)
    Blend: CC-PVDZ-JKFIT
  @DF-UKS Final Energy:  -768.56423213566859
    Total Energy =                       -768.5642321356685898
  Basis Set: CC-PVDZ
    Blend: CC-PVDZ
  Basis Set: (CC-PVDZ AUX)
    Blend: CC-PVDZ-JKFIT
  Basis Set: CC-PVDZ
    Blend: CC-PVDZ
  @DF-UKS Final Energy:  -768.63263543562209
    Total Energy =                       -768.6326354356220918
  @DF-UKS Final Energy:  -768.85991856629209
    Total Energy =                       -768.8599185662920945
  @DF-UKS Final Energy:  -769.40090346468855
    Total Energy =                       -769.4009034646886676
  @DF-UKS Final Energy:  -769.59583981988840
    Total Energy =                       -769.5958398198883970
  @DF-UKS Final Energy:  -769.72838925412316
    Total Energy =                       -769.7283892541231580
  @DF-UKS Final Energy:  -769.81331788658315
    Total Energy =                       -769.8133178865831496
  @DF-UKS Final Energy:  -769.86136275240801
    Total Energy =                       -769.8613627524080130
  @DF-UKS Final Energy:  -769.88980258091783
    Total Energy =                       -769.8898025809177170
  @DF-UKS Final Energy:  -769.90622077469732
    Total Energy =                       -769.9062207746973172
  @DF-UKS Final Energy:  -769.91542492317512
    Total Energy =                       -769.9154249231750100
  @DF-UKS Final Energy:  -769.92041163901069
    Total Energy =                       -769.9204116390106947
  @DF-UKS Final Energy:  -769.92303553224826
    Total Energy =                       -769.9230355322482637
  @DF-UKS Final Energy:  -769.92436536660193
    Total Energy =                       -769.9243653666018190
  @DF-UKS Final Energy:  -769.92500621484294
    Total Energy =                       -769.9250062148429379
  @DF-UKS Final Energy:  -769.92529336562416
    Total Energy =                       -769.9252933656241566
  @DF-UKS Final Energy:  -769.92540852325919
    Total Energy =                       -769.9254085232591933
  @DF-UKS Final Energy:  -769.92544632954446
    Total Energy =                       -769.9254463295444566
  @DF-UKS Final Energy:  -769.92545357246172
    Total Energy =                       -769.9254535724617199
  Basis Set: (CC-PVDZ AUX)
    Blend: CC-PVDZ-JKFIT
  Basis Set: CC-PVDZ
    Blend: CC-PVDZ
  Basis Set: (CC-PVDZ AUX)
    Blend: CC-PVDZ-JKFIT
  @DF-UKS Final Energy:  -769.92545543174992
    Total Energy =                       -769.9254554317498105
  Basis Set: CC-PVDZ
    Blend: CC-PVDZ
  Basis Set: (CC-PVDZ AUX)
    Blend: CC-PVDZ-JKFIT
  Charge       = 0
  Multiplicity = 2
  Basis Set: CC-PVDZ
    Blend: CC-PVDZ
  Basis Set: (CC-PVDZ AUX)
    Blend: CC-PVDZ-JKFIT

    Orbital Energies [Eh]
    ---------------------

    Alpha Occupied:

       1A1  -115.105956     2A1   -56.070820     3A1   -11.142041
       4A1    -8.692020     1B1    -8.691862     1B2    -8.691832
       5A1    -4.150625     6A1    -2.704154     2B1    -2.704144
       2B2    -2.701018     7A1    -0.970092     8A1    -0.429023
       3B1    -0.427459     3B2    -0.427148     9A1    -0.318353
       4B2    -0.130582

    Alpha Virtual:

       4B1    -0.074116    10A1    -0.072460    11A1     0.163291
       5B2     0.213270     5B1     0.222611    12A1     0.227293
       6B2     0.257921     1A2     0.258240    13A1     0.258925
      14A1     0.267280     6B1     0.270433     7B1     0.580841
       7B2     0.581491    15A1     0.618234    16A1     0.769270
       8B1     0.830208     8B2     0.830404    17A1     0.830554
       2A2     0.830565    18A1     0.836280

    Beta Occupied:

       1A1  -115.105949     2A1   -56.068946     3A1   -11.142035
       4A1    -8.692015     1B1    -8.691856     1B2    -8.691813
       5A1    -4.148381     6A1    -2.703122     2B1    -2.703113
       2B2    -2.693547     7A1    -0.970065     8A1    -0.429021
       3B1    -0.427460     3B2    -0.427112     9A1    -0.293406

    Beta Virtual:

       4B1    -0.068476    10A1    -0.066595     4B2    -0.043677
      11A1     0.172644     5B1     0.224465    12A1     0.229259
       5B2     0.243524    13A1     0.266982     6B1     0.271110
       6B2     0.292727     1A2     0.293013    14A1     0.299730
       7B1     0.580787     7B2     0.581581    15A1     0.618558
      16A1     0.769731     8B1     0.830216     8B2     0.830450
      17A1     0.830584     2A2     0.830595    18A1     0.836396

    Final Occupation by Irrep:
             A1    A2    B1    B2
    DOCC [     9,    0,    3,    3 ]
    SOCC [     0,    0,    0,    1 ]
    NA   [     9,    0,    3,    4 ]
    NB   [     9,    0,    3,    3 ]

  @DF-UKS Final Energy:  -769.92545561259726

   => Energetics <=

    Nuclear Repulsion Energy =             30.4020065267813742
    One-Electron Energy =               -1125.7562632368812956
    Two-Electron Energy =                 365.2882994538803132
    DFT Exchange-Correlation Energy =     -39.8594983563776708
    Empirical Dispersion Energy =           0.0000000000000000
    VV10 Nonlocal Energy =                  0.0000000000000000
    Total Energy =                       -769.9254556125972613

  UHF NO Occupations:
  HONO-2 :    8 A1 2.0000000
  HONO-1 :    9 A1 1.9980020
  HONO-0 :    4 B2 1.0000000
  LUNO+0 :   10 A1 0.0019980
  LUNO+1 :   11 A1 0.0000000
  LUNO+2 :    5 B2 0.0000000
  LUNO+3 :    4 B1 0.0000000

Computation Completed

Properties will be evaluated at   0.000000,   0.000000,   0.000000 [a0]

Properties computed using the SCF density matrix

 Multipole Moments:

 ------------------------------------------------------------------------------------
     Multipole            Electronic (a.u.)      Nuclear  (a.u.)        Total (a.u.)
 ------------------------------------------------------------------------------------

 L = 1.  Multiply by 2.5417464519 to convert [e a0] to [Debye]
 Dipole X            :          0.0000000            0.0000000            0.0000000
 Dipole Y            :          0.0000000            0.0000000            0.0000000
 Dipole Z            :         -3.9542138            3.8911233           -0.0630905
 Magnitude           :                                                    0.0630905

 ------------------------------------------------------------------------------------

*** tstop() called on Joses-MacBook-Pro-2.local at Wed Jul 16 20:11:42 2025
Module time:
	user time   =       5.56 seconds =       0.09 minutes
	system time =       1.39 seconds =       0.02 minutes
	total time  =          1 seconds =       0.02 minutes
Total time:
	user time   =     240.82 seconds =       4.01 minutes
	system time =      69.87 seconds =       1.16 minutes
	total time  =         29 seconds =       0.48 minutes

*** tstart() called on Joses-MacBook-Pro-2.local
*** at Wed Jul 16 20:11:42 2025

         ------------------------------------------------------------
                                   SCF GRAD
                          Rob Parrish, Justin Turney,
                       Andy Simmonett, and Alex Sokolov
         ------------------------------------------------------------

  ==> Geometry <==

    Molecular point group: c2v
    Full point group: C_inf_v

    Geometry (in Angstrom), charge = 0, multiplicity = 2:

       Center              X                  Y                   Z               Mass
    ------------   -----------------  -----------------  -----------------  -----------------
         AL           0.000000000000     0.000000000000     2.431391931325    26.981538530000
         AR           0.000000000000     0.000000000000    -1.641611184035    39.962383123700

  Nuclear repulsion =   30.402006526781374

  ==> Basis Set <==

  Basis Set: CC-PVDZ
    Blend: CC-PVDZ
    Number of shells: 16
    Number of basis functions: 36
    Number of Cartesian functions: 38
    Spherical Harmonics?: true
    Max angular momentum: 2

  ==> DFJKGrad: Density-Fitted SCF Gradients <==

    Gradient:                    1
    J tasked:                  Yes
    K tasked:                  Yes
    wK tasked:                  No
    OpenMP threads:              1
    Integrals threads:           1
    Memory [MiB]:              375
    Schwarz Cutoff:          1E-12
    Fitting Condition:       1E-10

   => Auxiliary Basis Set <=

  Basis Set: (CC-PVDZ AUX)
    Blend: CC-PVDZ-JKFIT
    Number of shells: 72
    Number of basis functions: 224
    Number of Cartesian functions: 260
    Spherical Harmonics?: true
    Max angular momentum: 3

  ==> DFT Potential <==

   => LibXC <=

    Version 6.2.2
    S. Lehtola, C. Steigemann, M. J.T. Oliveira, and M. A.L. Marques.,  SoftwareX 7, 1â€“5 (2018) (10.1016/j.softx.2017.11.002)

   => Composite Functional: B3LYP <=

    B3LYP Hyb-GGA Exchange-Correlation Functional

    P. J. Stephens, F. J. Devlin, C. F. Chabalowski, and M. J. Frisch.,  J. Phys. Chem. 98, 11623 (1994) (10.1021/j100096a001)

    Deriv               =              1
    GGA                 =           TRUE
    Meta                =          FALSE

    Exchange Hybrid     =           TRUE
    MP2 Hybrid          =          FALSE

   => Exchange Functionals <=

    0.0800   Slater exchange
    0.7200         Becke 88

   => Exact (HF) Exchange <=

    0.2000               HF

   => Correlation Functionals <=

    0.1900   Vosko, Wilk & Nusair (VWN5_RPA)
    0.8100   Lee, Yang & Parr

   => LibXC Density Thresholds  <==

    XC_HYB_GGA_XC_B3LYP:  1.00E-15

   => Molecular Quadrature <=

    Radial Scheme          =       TREUTLER
    Pruning Scheme         =           NONE
    Nuclear Scheme         =       TREUTLER

    Blocking Scheme        =         OCTREE
    BS radius alpha        =              1
    Pruning alpha          =              1
    Radial Points          =             75
    Spherical Points       =            302
    Total Points           =          42805
    Total Blocks           =            431
    Max Points             =            256
    Max Functions          =             36
    Weights Tolerance      =       1.00E-15

  -Total Gradient:
     Atom            X                  Y                   Z
    ------   -----------------  -----------------  -----------------
       1        0.000000000000    -0.000000000000    -0.000010074775
       2        0.000000000000    -0.000000000000     0.000001969249

*** tstop() called on Joses-MacBook-Pro-2.local at Wed Jul 16 20:11:43 2025
Module time:
	user time   =       2.09 seconds =       0.03 minutes
	system time =       1.96 seconds =       0.03 minutes
	total time  =          1 seconds =       0.02 minutes
Total time:
	user time   =     242.92 seconds =       4.05 minutes
	system time =      71.83 seconds =       1.20 minutes
	total time  =         30 seconds =       0.50 minutes

    			-----------------------------------------

    			 OPTKING 3.0: for geometry optimizations

    			     By R.A. King, Bethel University

    			        with contributions from

    			    A.V. Copan, J. Cayton, A. Heide

    			-----------------------------------------

	                            ===> Fragment 1 <==

	 Z (Atomic Numbers)          Masses                          Geom
	      13.000000            26.981539          0.00000000  0.00000000  4.59466485
	      18.000000            39.962383          0.00000000  0.00000000 -3.10219554

	 - Coordinate -           - BOHR/RAD -       - ANG/DEG -
	 R(1,2)           =         7.696860           4.073003

	        --- Internal Coordinate Step in ANG or DEG, aJ/ANG or AJ/DEG ---
	-------------------------------------------------------------------------------
	           Coordinate      Previous         Force          Change          New
	           ----------      --------        ------          ------        ------
	               R(1,2)       4.07300        0.00005        0.00493       4.07793
	-------------------------------------------------------------------------------

	                                 ==> Convergence Check <==

	Measures of convergence in internal coordinates in au.

	Criteria marked as inactive (o), active & met (*), and active & unmet ( ).

	----------------------------------------------------------------------------------------------
	   Step    Total Energy     Delta E     Max Force     RMS Force      Max Disp      RMS Disp
	----------------------------------------------------------------------------------------------
	  Convergence Criteria     1.00e-06 *    3.00e-04 *             o    1.20e-03 *             o
	----------------------------------------------------------------------------------------------
	    22    -769.92545561   -1.81e-07 *    6.02e-06 *    6.02e-06 o    9.32e-03      9.32e-03 o  ~
	----------------------------------------------------------------------------------------------

Next Geometry in Ang
	Fragment 1 (Ang)

	   Al   0.0000000000   0.0000000000   2.4338570684
	   Ar   0.0000000000   0.0000000000  -1.6440763212

    Final optimized geometry and variables:
    Molecular point group: c2v
    Full point group: C_inf_v

    Geometry (in Angstrom), charge = 0, multiplicity = 2:

    AL           0.000000000000     0.000000000000     2.431391931325
    AR           0.000000000000     0.000000000000    -1.641611184035

    Psi4 stopped on: Wednesday, 16 July 2025 08:11PM
    Psi4 wall time for execution: 0:00:30.49

*** Psi4 exiting successfully. Buy a developer a beer!
