                               Psi4 1.9.1 release

  ==> Input File <==

--------------------------------------------------------------------------
molecule {
0 2
Na   0.00000        0.60000        0.00000
Ar   0.00000       -0.60000        0.00000
}

set {
basis              cc-pvdz
reference          uks
maxiter            500
geom_maxiter       500
DAMPING_PERCENTAGE 1
guess              SAP
}

optimize('b3lyp')
--------------------------------------------------------------------------

    Molecular point group: c2v
  Charge       = 0
  Multiplicity = 2
  Basis Set: CC-PVDZ
    Blend: CC-PVDZ
  Basis Set: (CC-PVDZ AUX)
    Blend: CC-PVDZ-JKFIT + DEF2-UNIVERSAL-JKFIT
  @DF-UKS Final Energy:  -688.61183762180235
    Total Energy =                       -688.6118376218023514
 Dipole X            :          0.0000000            0.0000000            0.0000000
 Dipole Y            :          0.0000000            0.0000000            0.0000000
 Dipole Z            :         -1.5640783            0.9283038           -0.6357745
 Magnitude           :                                                    0.6357745
    Molecular point group: c2v
  Basis Set: CC-PVDZ
    Blend: CC-PVDZ
  Basis Set: (CC-PVDZ AUX)
    Blend: CC-PVDZ-JKFIT + DEF2-UNIVERSAL-JKFIT
  Basis Set: CC-PVDZ
    Blend: CC-PVDZ
  Basis Set: (CC-PVDZ AUX)
    Blend: CC-PVDZ-JKFIT + DEF2-UNIVERSAL-JKFIT
  @DF-UKS Final Energy:  -688.63535680248503
    Total Energy =                       -688.6353568024851484
  Basis Set: CC-PVDZ
    Blend: CC-PVDZ
  Basis Set: (CC-PVDZ AUX)
    Blend: CC-PVDZ-JKFIT + DEF2-UNIVERSAL-JKFIT
  Basis Set: CC-PVDZ
    Blend: CC-PVDZ
  @DF-UKS Final Energy:  -688.68038731990930
    Total Energy =                       -688.6803873199093005
  @DF-UKS Final Energy:  -688.83963159954442
    Total Energy =                       -688.8396315995444183
  @DF-UKS Final Energy:  -689.41146581613521
    Total Energy =                       -689.4114658161352054
  @DF-UKS Final Energy:  -689.61099883049451
    Total Energy =                       -689.6109988304945091
  @DF-UKS Final Energy:  -689.71641607748347
    Total Energy =                       -689.7164160774833590
  @DF-UKS Final Energy:  -689.76947053944036
    Total Energy =                       -689.7694705394401353
  @DF-UKS Final Energy:  -689.79755939185247
    Total Energy =                       -689.7975593918524737
  @DF-UKS Final Energy:  -689.81271910729765
    Total Energy =                       -689.8127191072975393
  @DF-UKS Final Energy:  -689.82114505203356
    Total Energy =                       -689.8211450520335575
  @DF-UKS Final Energy:  -689.82595917977619
    Total Energy =                       -689.8259591797761914
  @DF-UKS Final Energy:  -689.82882339155685
    Total Energy =                       -689.8288233915568526
  @DF-UKS Final Energy:  -689.83060696532937
    Total Energy =                       -689.8306069653294799
  @DF-UKS Final Energy:  -689.83175879887153
    Total Energy =                       -689.8317587988715331
  @DF-UKS Final Energy:  -689.83248754632905
    Total Energy =                       -689.8324875463289345
  @DF-UKS Final Energy:  -689.83290342879934
    Total Energy =                       -689.8329034287993409
  @DF-UKS Final Energy:  -689.83310897018032
    Total Energy =                       -689.8331089701804331
  @DF-UKS Final Energy:  -689.83319840860690
    Total Energy =                       -689.8331984086067905
  @DF-UKS Final Energy:  -689.83323296239564
    Total Energy =                       -689.8332329623957548
  @DF-UKS Final Energy:  -689.83324045741892
    Total Energy =                       -689.8332404574189241
  Basis Set: (CC-PVDZ AUX)
    Blend: CC-PVDZ-JKFIT + DEF2-UNIVERSAL-JKFIT
  Basis Set: CC-PVDZ
    Blend: CC-PVDZ
  Basis Set: (CC-PVDZ AUX)
    Blend: CC-PVDZ-JKFIT + DEF2-UNIVERSAL-JKFIT
  @DF-UKS Final Energy:  -689.83324287195182
    Total Energy =                       -689.8332428719518248
  Basis Set: CC-PVDZ
    Blend: CC-PVDZ
  Basis Set: (CC-PVDZ AUX)
    Blend: CC-PVDZ-JKFIT + DEF2-UNIVERSAL-JKFIT
  Charge       = 0
  Multiplicity = 2
  Basis Set: CC-PVDZ
    Blend: CC-PVDZ
  Basis Set: (CC-PVDZ AUX)
    Blend: CC-PVDZ-JKFIT + DEF2-UNIVERSAL-JKFIT

    Orbital Energies [Eh]
    ---------------------

    Alpha Occupied:

       1A1  -115.100981     2A1   -38.479303     3A1   -11.137026
       4A1    -8.686953     1B1    -8.686860     1B2    -8.686860
       5A1    -2.224020     6A1    -1.154870     2B1    -1.154848
       2B2    -1.154848     7A1    -0.965120     8A1    -0.423176
       3B2    -0.422607     3B1    -0.422607     9A1    -0.127784

    Alpha Virtual:

       4B2    -0.020721     4B1    -0.020721    10A1    -0.019061
      11A1     0.053414    12A1     0.074502     5B2     0.076262
       5B1     0.076262    13A1     0.159095    14A1     0.159328
       1A2     0.159328     6B2     0.159378     6B1     0.159378
       7B2     0.586006     7B1     0.586006    15A1     0.606871
      16A1     0.781343     8B2     0.835216     8B1     0.835216
       2A2     0.835238    17A1     0.835319    18A1     0.836715

    Beta Occupied:

       1A1  -115.100944     2A1   -38.477840     3A1   -11.136987
       4A1    -8.686869     1B1    -8.686831     1B2    -8.686831
       5A1    -2.221082     6A1    -1.152959     2B1    -1.152934
       2B2    -1.152934     7A1    -0.964964     8A1    -0.423016
       3B2    -0.422568     3B1    -0.422568

    Beta Virtual:

       9A1    -0.064634    10A1    -0.000021     4B2     0.001342
       4B1     0.001342    11A1     0.066195    12A1     0.092301
       5B2     0.094231     5B1     0.094231    13A1     0.185031
      14A1     0.188876     1A2     0.188876     6B1     0.188963
       6B2     0.188963     7B2     0.586023     7B1     0.586023
      15A1     0.607839    16A1     0.782072     2A2     0.835290
       8B1     0.835355     8B2     0.835355    17A1     0.835370
      18A1     0.836962

    Final Occupation by Irrep:
             A1    A2    B1    B2
    DOCC [     8,    0,    3,    3 ]
    SOCC [     1,    0,    0,    0 ]
    NA   [     9,    0,    3,    3 ]
    NB   [     8,    0,    3,    3 ]

  @DF-UKS Final Energy:  -689.83324394361080

   => Energetics <=

    Nuclear Repulsion Energy =             22.6864949625158232
    One-Electron Energy =               -1001.5304839643471269
    Two-Electron Energy =                 325.5387118318332114
    DFT Exchange-Correlation Energy =     -36.5279667736126541
    Empirical Dispersion Energy =           0.0000000000000000
    VV10 Nonlocal Energy =                  0.0000000000000000
    Total Energy =                       -689.8332439436107961

  UHF NO Occupations:
  HONO-2 :    3 B2 1.9999988
  HONO-1 :    8 A1 1.9999986
  HONO-0 :    9 A1 1.0000000
  LUNO+0 :   10 A1 0.0000014
  LUNO+1 :    4 B1 0.0000012
  LUNO+2 :    4 B2 0.0000012
  LUNO+3 :   11 A1 0.0000007

Computation Completed

Properties will be evaluated at   0.000000,   0.000000,   0.000000 [a0]

Properties computed using the SCF density matrix

 Multipole Moments:

 ------------------------------------------------------------------------------------
     Multipole            Electronic (a.u.)      Nuclear  (a.u.)        Total (a.u.)
 ------------------------------------------------------------------------------------

 L = 1.  Multiply by 2.5417464519 to convert [e a0] to [Debye]
 Dipole X            :          0.0000000            0.0000000            0.0000000
 Dipole Y            :          0.0000000            0.0000000            0.0000000
 Dipole Z            :         -3.6491605            3.5727926           -0.0763678
 Magnitude           :                                                    0.0763678

 ------------------------------------------------------------------------------------

*** tstop() called on Joses-MacBook-Pro-2.local at Wed Jul 16 19:52:20 2025
Module time:
	user time   =       4.95 seconds =       0.08 minutes
	system time =       2.57 seconds =       0.04 minutes
	total time  =          1 seconds =       0.02 minutes
Total time:
	user time   =     252.23 seconds =       4.20 minutes
	system time =      93.84 seconds =       1.56 minutes
	total time  =         33 seconds =       0.55 minutes

*** tstart() called on Joses-MacBook-Pro-2.local
*** at Wed Jul 16 19:52:20 2025

         ------------------------------------------------------------
                                   SCF GRAD
                          Rob Parrish, Justin Turney,
                       Andy Simmonett, and Alex Sokolov
         ------------------------------------------------------------

  ==> Geometry <==

    Molecular point group: c2v
    Full point group: C_inf_v

    Geometry (in Angstrom), charge = 0, multiplicity = 2:

       Center              X                  Y                   Z               Mass
    ------------   -----------------  -----------------  -----------------  -----------------
         NA           0.000000000000     0.000000000000     2.931836284367    22.989769282000
         AR           0.000000000000     0.000000000000    -1.686642148982    39.962383123700

  Nuclear repulsion =   22.686494962515823

  ==> Basis Set <==

  Basis Set: CC-PVDZ
    Blend: CC-PVDZ
    Number of shells: 16
    Number of basis functions: 36
    Number of Cartesian functions: 38
    Spherical Harmonics?: true
    Max angular momentum: 2

  ==> DFJKGrad: Density-Fitted SCF Gradients <==

    Gradient:                    1
    J tasked:                  Yes
    K tasked:                  Yes
    wK tasked:                  No
    OpenMP threads:              1
    Integrals threads:           1
    Memory [MiB]:              375
    Schwarz Cutoff:          1E-12
    Fitting Condition:       1E-10

   => Auxiliary Basis Set <=

  Basis Set: (CC-PVDZ AUX)
    Blend: CC-PVDZ-JKFIT + DEF2-UNIVERSAL-JKFIT
    Number of shells: 70
    Number of basis functions: 224
    Number of Cartesian functions: 267
    Spherical Harmonics?: true
    Max angular momentum: 4

  ==> DFT Potential <==

   => LibXC <=

    Version 6.2.2
    S. Lehtola, C. Steigemann, M. J.T. Oliveira, and M. A.L. Marques.,  SoftwareX 7, 1â€“5 (2018) (10.1016/j.softx.2017.11.002)

   => Composite Functional: B3LYP <=

    B3LYP Hyb-GGA Exchange-Correlation Functional

    P. J. Stephens, F. J. Devlin, C. F. Chabalowski, and M. J. Frisch.,  J. Phys. Chem. 98, 11623 (1994) (10.1021/j100096a001)

    Deriv               =              1
    GGA                 =           TRUE
    Meta                =          FALSE

    Exchange Hybrid     =           TRUE
    MP2 Hybrid          =          FALSE

   => Exchange Functionals <=

    0.0800   Slater exchange
    0.7200         Becke 88

   => Exact (HF) Exchange <=

    0.2000               HF

   => Correlation Functionals <=

    0.1900   Vosko, Wilk & Nusair (VWN5_RPA)
    0.8100   Lee, Yang & Parr

   => LibXC Density Thresholds  <==

    XC_HYB_GGA_XC_B3LYP:  1.00E-15

   => Molecular Quadrature <=

    Radial Scheme          =       TREUTLER
    Pruning Scheme         =           NONE
    Nuclear Scheme         =       TREUTLER

    Blocking Scheme        =         OCTREE
    BS radius alpha        =              1
    Pruning alpha          =              1
    Radial Points          =             75
    Spherical Points       =            302
    Total Points           =          43915
    Total Blocks           =            464
    Max Points             =            255
    Max Functions          =             36
    Weights Tolerance      =       1.00E-15

  -Total Gradient:
     Atom            X                  Y                   Z
    ------   -----------------  -----------------  -----------------
       1        0.000000000000     0.000000000000    -0.000005521213
       2        0.000000000000    -0.000000000000    -0.000005839842

*** tstop() called on Joses-MacBook-Pro-2.local at Wed Jul 16 19:52:20 2025
Module time:
	user time   =       1.93 seconds =       0.03 minutes
	system time =       1.61 seconds =       0.03 minutes
	total time  =          0 seconds =       0.00 minutes
Total time:
	user time   =     254.16 seconds =       4.24 minutes
	system time =      95.46 seconds =       1.59 minutes
	total time  =         33 seconds =       0.55 minutes

    			-----------------------------------------

    			 OPTKING 3.0: for geometry optimizations

    			     By R.A. King, Bethel University

    			        with contributions from

    			    A.V. Copan, J. Cayton, A. Heide

    			-----------------------------------------

	                            ===> Fragment 1 <==

	 Z (Atomic Numbers)          Masses                          Geom
	      11.000000            22.989769          0.00000000  0.00000000  5.54036762
	      18.000000            39.962383          0.00000000  0.00000000 -3.18729173

	 - Coordinate -           - BOHR/RAD -       - ANG/DEG -
	 R(1,2)           =         8.727659           4.618478

	        --- Internal Coordinate Step in ANG or DEG, aJ/ANG or AJ/DEG ---
	-------------------------------------------------------------------------------
	           Coordinate      Previous         Force          Change          New
	           ----------      --------        ------          ------        ------
	               R(1,2)       4.61848       -0.00000       -0.00049       4.61799
	-------------------------------------------------------------------------------

	                                 ==> Convergence Check <==

	Measures of convergence in internal coordinates in au.

	Criteria marked as inactive (o), active & met (*), and active & unmet ( ).

	----------------------------------------------------------------------------------------------
	   Step    Total Energy     Delta E     Max Force     RMS Force      Max Disp      RMS Disp
	----------------------------------------------------------------------------------------------
	  Convergence Criteria     1.00e-06 *    3.00e-04 *             o    1.20e-03 *             o
	----------------------------------------------------------------------------------------------
	    23    -689.83324394   -1.07e-06      1.59e-07 *    1.59e-07 o    9.32e-04 *    9.32e-04 o  ~
	----------------------------------------------------------------------------------------------

Next Geometry in Ang
	Fragment 1 (Ang)

	   Na   0.0000000000   0.0000000000   2.9315896930
	   Ar   0.0000000000   0.0000000000  -1.6863955576

    Final optimized geometry and variables:
    Molecular point group: c2v
    Full point group: C_inf_v

    Geometry (in Angstrom), charge = 0, multiplicity = 2:

    NA           0.000000000000     0.000000000000     2.931836284367
    AR           0.000000000000     0.000000000000    -1.686642148982

    Psi4 stopped on: Wednesday, 16 July 2025 07:52PM
    Psi4 wall time for execution: 0:00:34.30

*** Psi4 exiting successfully. Buy a developer a beer!
