                               Psi4 1.9.1 release

  ==> Input File <==

--------------------------------------------------------------------------
molecule {
0 2
Be   0.00000        0.60000        0.00000
Na   0.00000       -0.60000        0.00000
}

set {
basis              cc-pvdz
reference          uks
maxiter            500
geom_maxiter       500
DAMPING_PERCENTAGE 1
guess              SAP
}

optimize('b3lyp')
--------------------------------------------------------------------------

    Molecular point group: c2v
  Charge       = 0
  Multiplicity = 2
  Basis Set: CC-PVDZ
    Blend: CC-PVDZ
  Basis Set: (CC-PVDZ AUX)
    Blend: DEF2-UNIVERSAL-JKFIT
  @DF-UKS Final Energy:  -176.61783576465535
    Total Energy =                       -176.6178357646553536
 Dipole X            :          0.0000000            0.0000000            0.0000000
 Dipole Y            :          0.0000000            0.0000000            0.0000000
 Dipole Z            :         -0.9423512           -0.5084189           -1.4507701
 Magnitude           :                                                    1.4507701
    Molecular point group: c2v
  Basis Set: CC-PVDZ
    Blend: CC-PVDZ
  Basis Set: (CC-PVDZ AUX)
    Blend: DEF2-UNIVERSAL-JKFIT
  Basis Set: CC-PVDZ
    Blend: CC-PVDZ
  Basis Set: (CC-PVDZ AUX)
    Blend: DEF2-UNIVERSAL-JKFIT
  @DF-UKS Final Energy:  -176.67031793699903
    Total Energy =                       -176.6703179369990266
  Basis Set: CC-PVDZ
    Blend: CC-PVDZ
  Basis Set: (CC-PVDZ AUX)
    Blend: DEF2-UNIVERSAL-JKFIT
  Basis Set: CC-PVDZ
    Blend: CC-PVDZ
  @DF-UKS Final Energy:  -176.73500255114232
    Total Energy =                       -176.7350025511423155
  @DF-UKS Final Energy:  -176.82688073418299
    Total Energy =                       -176.8268807341829927
  @DF-UKS Final Energy:  -176.88967275420885
    Total Energy =                       -176.8896727542088172
  @DF-UKS Final Energy:  -176.92178466797674
    Total Energy =                       -176.9217846679767376
  @DF-UKS Final Energy:  -176.93423660156611
    Total Energy =                       -176.9342366015661128
  @DF-UKS Final Energy:  -176.93812325313638
    Total Energy =                       -176.9381232531364105
  @DF-UKS Final Energy:  -176.93894276441685
    Total Energy =                       -176.9389427644168507
  @DF-UKS Final Energy:  -176.93901624069113
    Total Energy =                       -176.9390162406911031
  Basis Set: (CC-PVDZ AUX)
    Blend: DEF2-UNIVERSAL-JKFIT
  Basis Set: CC-PVDZ
    Blend: CC-PVDZ
  Basis Set: (CC-PVDZ AUX)
    Blend: DEF2-UNIVERSAL-JKFIT
  @DF-UKS Final Energy:  -176.93902295804082
    Total Energy =                       -176.9390229580408231
  Basis Set: CC-PVDZ
    Blend: CC-PVDZ
  Basis Set: (CC-PVDZ AUX)
    Blend: DEF2-UNIVERSAL-JKFIT
  Charge       = 0
  Multiplicity = 2
  Basis Set: CC-PVDZ
    Blend: CC-PVDZ
  Basis Set: (CC-PVDZ AUX)
    Blend: DEF2-UNIVERSAL-JKFIT

    Orbital Energies [Eh]
    ---------------------

    Alpha Occupied:

       1A1   -38.510761     2A1    -4.033010     3A1    -2.255899
       1B1    -1.187536     4A1    -1.187130     1B2    -1.186695
       5A1    -0.222188     2B2    -0.092701

    Alpha Virtual:

       6A1    -0.081676     2B1    -0.040566     7A1    -0.023160
       3B2    -0.001010     3B1     0.014826     8A1     0.023631
       9A1     0.049865     4B2     0.072699     4B1     0.079911
      10A1     0.150975     1A2     0.157962    11A1     0.162363
       5B2     0.196045     5B1     0.203963    12A1     0.214307
       6B2     0.230924     6B1     0.246478    13A1     0.335880
      14A1     0.443491     2A2     0.515194    15A1     0.520782
       7B2     0.607942     7B1     0.620804    16A1     0.724674

    Beta Occupied:

       1A1   -38.510650     2A1    -4.029835     3A1    -2.255755
       1B1    -1.187559     4A1    -1.187184     1B2    -1.185861
       5A1    -0.200646

    Beta Virtual:

       6A1    -0.078631     2B1    -0.038529     2B2    -0.027903
       7A1    -0.020807     3B1     0.015355     3B2     0.024914
       8A1     0.026177     9A1     0.049298     4B1     0.077211
       4B2     0.079362    10A1     0.152120     1A2     0.164984
      11A1     0.166240     5B1     0.200794     5B2     0.207366
      12A1     0.217104     6B1     0.247314     6B2     0.262312
      13A1     0.345157    14A1     0.448662     2A2     0.546750
      15A1     0.547045     7B1     0.619772     7B2     0.636517
      16A1     0.730563

    Final Occupation by Irrep:
             A1    A2    B1    B2
    DOCC [     5,    0,    1,    1 ]
    SOCC [     0,    0,    0,    1 ]
    NA   [     5,    0,    1,    2 ]
    NB   [     5,    0,    1,    1 ]

  @DF-UKS Final Energy:  -176.93902358743409

   => Energetics <=

    Nuclear Repulsion Energy =              9.2715015584026101
    One-Electron Energy =                -265.2184028747442426
    Two-Electron Energy =                  92.9246577114479066
    DFT Exchange-Correlation Energy =     -13.9167799825403673
    Empirical Dispersion Energy =           0.0000000000000000
    VV10 Nonlocal Energy =                  0.0000000000000000
    Total Energy =                       -176.9390235874340931

  UHF NO Occupations:
  HONO-2 :    4 A1 1.9999998
  HONO-1 :    5 A1 1.9966483
  HONO-0 :    2 B2 1.0000000
  LUNO+0 :    6 A1 0.0033517
  LUNO+1 :    7 A1 0.0000002
  LUNO+2 :    2 B1 0.0000001
  LUNO+3 :    8 A1 0.0000001

Computation Completed

Properties will be evaluated at   0.000000,   0.000000,   0.000000 [a0]

Properties computed using the SCF density matrix

 Multipole Moments:

 ------------------------------------------------------------------------------------
     Multipole            Electronic (a.u.)      Nuclear  (a.u.)        Total (a.u.)
 ------------------------------------------------------------------------------------

 L = 1.  Multiply by 2.5417464519 to convert [e a0] to [Debye]
 Dipole X            :          0.0000000            0.0000000            0.0000000
 Dipole Y            :          0.0000000            0.0000000            0.0000000
 Dipole Z            :         -0.9360596           -1.0640063           -2.0000659
 Magnitude           :                                                    2.0000659

 ------------------------------------------------------------------------------------

*** tstop() called on Joses-MacBook-Pro-2.local at Wed Jul 16 18:42:30 2025
Module time:
	user time   =       4.29 seconds =       0.07 minutes
	system time =       2.54 seconds =       0.04 minutes
	total time  =          1 seconds =       0.02 minutes
Total time:
	user time   =      61.82 seconds =       1.03 minutes
	system time =      63.63 seconds =       1.06 minutes
	total time  =         12 seconds =       0.20 minutes

*** tstart() called on Joses-MacBook-Pro-2.local
*** at Wed Jul 16 18:42:30 2025

         ------------------------------------------------------------
                                   SCF GRAD
                          Rob Parrish, Justin Turney,
                       Andy Simmonett, and Alex Sokolov
         ------------------------------------------------------------

  ==> Geometry <==

    Molecular point group: c2v
    Full point group: C_inf_v

    Geometry (in Angstrom), charge = 0, multiplicity = 2:

       Center              X                  Y                   Z               Mass
    ------------   -----------------  -----------------  -----------------  -----------------
         BE           0.000000000000     0.000000000000     1.804105258105     9.012183065000
         NA           0.000000000000     0.000000000000    -0.707224446454    22.989769282000

  Nuclear repulsion =    9.271501558402610

  ==> Basis Set <==

  Basis Set: CC-PVDZ
    Blend: CC-PVDZ
    Number of shells: 14
    Number of basis functions: 32
    Number of Cartesian functions: 34
    Spherical Harmonics?: true
    Max angular momentum: 2

  ==> DFJKGrad: Density-Fitted SCF Gradients <==

    Gradient:                    1
    J tasked:                  Yes
    K tasked:                  Yes
    wK tasked:                  No
    OpenMP threads:              1
    Integrals threads:           1
    Memory [MiB]:              375
    Schwarz Cutoff:          1E-12
    Fitting Condition:       1E-10

   => Auxiliary Basis Set <=

  Basis Set: (CC-PVDZ AUX)
    Blend: DEF2-UNIVERSAL-JKFIT
    Number of shells: 51
    Number of basis functions: 163
    Number of Cartesian functions: 197
    Spherical Harmonics?: true
    Max angular momentum: 4

  ==> DFT Potential <==

   => LibXC <=

    Version 6.2.2
    S. Lehtola, C. Steigemann, M. J.T. Oliveira, and M. A.L. Marques.,  SoftwareX 7, 1â€“5 (2018) (10.1016/j.softx.2017.11.002)

   => Composite Functional: B3LYP <=

    B3LYP Hyb-GGA Exchange-Correlation Functional

    P. J. Stephens, F. J. Devlin, C. F. Chabalowski, and M. J. Frisch.,  J. Phys. Chem. 98, 11623 (1994) (10.1021/j100096a001)

    Deriv               =              1
    GGA                 =           TRUE
    Meta                =          FALSE

    Exchange Hybrid     =           TRUE
    MP2 Hybrid          =          FALSE

   => Exchange Functionals <=

    0.0800   Slater exchange
    0.7200         Becke 88

   => Exact (HF) Exchange <=

    0.2000               HF

   => Correlation Functionals <=

    0.1900   Vosko, Wilk & Nusair (VWN5_RPA)
    0.8100   Lee, Yang & Parr

   => LibXC Density Thresholds  <==

    XC_HYB_GGA_XC_B3LYP:  1.00E-15

   => Molecular Quadrature <=

    Radial Scheme          =       TREUTLER
    Pruning Scheme         =           NONE
    Nuclear Scheme         =       TREUTLER

    Blocking Scheme        =         OCTREE
    BS radius alpha        =              1
    Pruning alpha          =              1
    Radial Points          =             75
    Spherical Points       =            302
    Total Points           =          43841
    Total Blocks           =            444
    Max Points             =            256
    Max Functions          =             32
    Weights Tolerance      =       1.00E-15

  -Total Gradient:
     Atom            X                  Y                   Z
    ------   -----------------  -----------------  -----------------
       1        0.000000000000    -0.000000000000    -0.000066852512
       2        0.000000000000    -0.000000000000     0.000058938281

*** tstop() called on Joses-MacBook-Pro-2.local at Wed Jul 16 18:42:30 2025
Module time:
	user time   =       0.85 seconds =       0.01 minutes
	system time =       2.10 seconds =       0.03 minutes
	total time  =          0 seconds =       0.00 minutes
Total time:
	user time   =      62.69 seconds =       1.04 minutes
	system time =      65.73 seconds =       1.10 minutes
	total time  =         12 seconds =       0.20 minutes

    			-----------------------------------------

    			 OPTKING 3.0: for geometry optimizations

    			     By R.A. King, Bethel University

    			        with contributions from

    			    A.V. Copan, J. Cayton, A. Heide

    			-----------------------------------------

	                            ===> Fragment 1 <==

	 Z (Atomic Numbers)          Masses                          Geom
	       4.000000             9.012183          0.00000000  0.00000000  3.40926484
	      11.000000            22.989769          0.00000000  0.00000000 -1.33646051

	 - Coordinate -           - BOHR/RAD -       - ANG/DEG -
	 R(1,2)           =         4.745725           2.511330

	        --- Internal Coordinate Step in ANG or DEG, aJ/ANG or AJ/DEG ---
	-------------------------------------------------------------------------------
	           Coordinate      Previous         Force          Change          New
	           ----------      --------        ------          ------        ------
	               R(1,2)       2.51133        0.00052        0.00096       2.51229
	-------------------------------------------------------------------------------

	                                 ==> Convergence Check <==

	Measures of convergence in internal coordinates in au.

	Criteria marked as inactive (o), active & met (*), and active & unmet ( ).

	----------------------------------------------------------------------------------------------
	   Step    Total Energy     Delta E     Max Force     RMS Force      Max Disp      RMS Disp
	----------------------------------------------------------------------------------------------
	  Convergence Criteria     1.00e-06 *    3.00e-04 *             o    1.20e-03 *             o
	----------------------------------------------------------------------------------------------
	    12    -176.93902359   -6.29e-07 *    6.29e-05 *    6.29e-05 o    1.82e-03      1.82e-03 o  ~
	----------------------------------------------------------------------------------------------

Next Geometry in Ang
	Fragment 1 (Ang)

	   Be   0.0000000000   0.0000000000   1.8045876287
	   Na   0.0000000000   0.0000000000  -0.7077068170

    Final optimized geometry and variables:
    Molecular point group: c2v
    Full point group: C_inf_v

    Geometry (in Angstrom), charge = 0, multiplicity = 2:

    BE           0.000000000000     0.000000000000     1.804105258105
    NA           0.000000000000     0.000000000000    -0.707224446454

    Psi4 stopped on: Wednesday, 16 July 2025 06:42PM
    Psi4 wall time for execution: 0:00:13.22

*** Psi4 exiting successfully. Buy a developer a beer!
