                               Psi4 1.9.1 release

  ==> Input File <==

--------------------------------------------------------------------------
molecule {
0 2
N   0.00000        0.60000        0.00000
Si   0.00000       -0.60000        0.00000
}

set {
basis              cc-pvdz
reference          uks
maxiter            500
geom_maxiter       500
DAMPING_PERCENTAGE 1
guess              SAP
}

optimize('b3lyp')
--------------------------------------------------------------------------

    Molecular point group: c2v
  Charge       = 0
  Multiplicity = 2
  Basis Set: CC-PVDZ
    Blend: CC-PVDZ
  Basis Set: (CC-PVDZ AUX)
    Blend: CC-PVDZ-JKFIT
  @DF-UKS Final Energy:  -343.86883731610351
    Total Energy =                       -343.8688373161035656
 Dipole X            :          0.0000000            0.0000000            0.0000000
 Dipole Y            :          0.0000000            0.0000000            0.0000000
 Dipole Z            :         -0.5711163           -0.0110494           -0.5821657
 Magnitude           :                                                    0.5821657
    Molecular point group: c2v
  Basis Set: CC-PVDZ
    Blend: CC-PVDZ
  Basis Set: (CC-PVDZ AUX)
    Blend: CC-PVDZ-JKFIT
  Basis Set: CC-PVDZ
    Blend: CC-PVDZ
  Basis Set: (CC-PVDZ AUX)
    Blend: CC-PVDZ-JKFIT
  @DF-UKS Final Energy:  -344.03890199487893
    Total Energy =                       -344.0389019948789269
  Basis Set: CC-PVDZ
    Blend: CC-PVDZ
  Basis Set: (CC-PVDZ AUX)
    Blend: CC-PVDZ-JKFIT
  Basis Set: CC-PVDZ
    Blend: CC-PVDZ
  @DF-UKS Final Energy:  -344.10682835249048
    Total Energy =                       -344.1068283524905382
  @DF-UKS Final Energy:  -344.12523487445412
    Total Energy =                       -344.1252348744540654
  @DF-UKS Final Energy:  -344.13287316324164
    Total Energy =                       -344.1328731632416407
  @DF-UKS Final Energy:  -344.13453138669865
    Total Energy =                       -344.1345313866986544
  @DF-UKS Final Energy:  -344.13493553607253
    Total Energy =                       -344.1349355360725326
  @DF-UKS Final Energy:  -344.13506095978801
    Total Energy =                       -344.1350609597880066
  Basis Set: (CC-PVDZ AUX)
    Blend: CC-PVDZ-JKFIT
  Basis Set: CC-PVDZ
    Blend: CC-PVDZ
  Basis Set: (CC-PVDZ AUX)
    Blend: CC-PVDZ-JKFIT
  @DF-UKS Final Energy:  -344.13507746240919
    Total Energy =                       -344.1350774624091855
  Basis Set: CC-PVDZ
    Blend: CC-PVDZ
  Basis Set: (CC-PVDZ AUX)
    Blend: CC-PVDZ-JKFIT
  Charge       = 0
  Multiplicity = 2
  Basis Set: CC-PVDZ
    Blend: CC-PVDZ
  Basis Set: (CC-PVDZ AUX)
    Blend: CC-PVDZ-JKFIT

    Orbital Energies [Eh]
    ---------------------

    Alpha Occupied:

       1A1   -66.178232     2A1   -14.362699     3A1    -5.323827
       4A1    -3.683907     1B2    -3.680729     1B1    -3.680729
       5A1    -0.798313     6A1    -0.439811     7A1    -0.317933
       2B2    -0.294680     2B1    -0.294680

    Alpha Virtual:

       3B2    -0.062901     3B1    -0.062901     8A1     0.058797
       9A1     0.243326     4B2     0.304517     4B1     0.304517
      10A1     0.354738     1A2     0.360262    11A1     0.360262
       5B2     0.443687     5B1     0.443687    12A1     0.607965
       6B2     0.797268     6B1     0.797268    13A1     0.915692
      14A1     1.226543     2A2     1.787602    15A1     1.787607
       7B2     1.929955     7B1     1.929955    16A1     2.336133

    Beta Occupied:

       1A1   -66.177319     2A1   -14.344138     3A1    -5.322917
       1B2    -3.681232     1B1    -3.681232     4A1    -3.678167
       5A1    -0.747099     6A1    -0.383202     2B2    -0.274193
       2B1    -0.274193

    Beta Virtual:

       7A1    -0.177289     3B2    -0.051078     3B1    -0.051078
       8A1     0.071006     9A1     0.251611     4B2     0.302821
       4B1     0.302821     1A2     0.353798    10A1     0.353798
      11A1     0.381260     5B2     0.460072     5B1     0.460072
      12A1     0.636934     6B2     0.816283     6B1     0.816283
      13A1     0.968868    14A1     1.261993     2A2     1.809533
      15A1     1.809538     7B2     1.986719     7B1     1.986719
      16A1     2.394962

    Final Occupation by Irrep:
             A1    A2    B1    B2
    DOCC [     6,    0,    2,    2 ]
    SOCC [     1,    0,    0,    0 ]
    NA   [     7,    0,    2,    2 ]
    NB   [     6,    0,    2,    2 ]

  @DF-UKS Final Energy:  -344.13507842972905

   => Energetics <=

    Nuclear Repulsion Energy =             32.6409723999671186
    One-Electron Energy =                -539.9735229764542055
    Two-Electron Energy =                 185.5369989955921426
    DFT Exchange-Correlation Energy =     -22.3395268488340371
    Empirical Dispersion Energy =           0.0000000000000000
    VV10 Nonlocal Energy =                  0.0000000000000000
    Total Energy =                       -344.1350784297290488

  UHF NO Occupations:
  HONO-2 :    2 B2 1.9950381
  HONO-1 :    2 B1 1.9950381
  HONO-0 :    7 A1 1.0000000
  LUNO+0 :    3 B2 0.0049619
  LUNO+1 :    3 B1 0.0049619
  LUNO+2 :    8 A1 0.0024612
  LUNO+3 :    9 A1 0.0003283

Computation Completed

Properties will be evaluated at   0.000000,   0.000000,   0.000000 [a0]

Properties computed using the SCF density matrix

 Multipole Moments:

 ------------------------------------------------------------------------------------
     Multipole            Electronic (a.u.)      Nuclear  (a.u.)        Total (a.u.)
 ------------------------------------------------------------------------------------

 L = 1.  Multiply by 2.5417464519 to convert [e a0] to [Debye]
 Dipole X            :          0.0000000            0.0000000            0.0000000
 Dipole Y            :          0.0000000            0.0000000            0.0000000
 Dipole Z            :         -0.9246521           -0.0146292           -0.9392813
 Magnitude           :                                                    0.9392813

 ------------------------------------------------------------------------------------

*** tstop() called on Joses-MacBook-Pro-2.local at Wed Jul 16 19:12:20 2025
Module time:
	user time   =       4.87 seconds =       0.08 minutes
	system time =       3.60 seconds =       0.06 minutes
	total time  =          1 seconds =       0.02 minutes
Total time:
	user time   =      78.14 seconds =       1.30 minutes
	system time =      60.24 seconds =       1.00 minutes
	total time  =         14 seconds =       0.23 minutes

*** tstart() called on Joses-MacBook-Pro-2.local
*** at Wed Jul 16 19:12:20 2025

         ------------------------------------------------------------
                                   SCF GRAD
                          Rob Parrish, Justin Turney,
                       Andy Simmonett, and Alex Sokolov
         ------------------------------------------------------------

  ==> Geometry <==

    Molecular point group: c2v
    Full point group: C_inf_v

    Geometry (in Angstrom), charge = 0, multiplicity = 2:

       Center              X                  Y                   Z               Mass
    ------------   -----------------  -----------------  -----------------  -----------------
         N            0.000000000000     0.000000000000     1.058818894947    14.003074004430
         SI           0.000000000000     0.000000000000    -0.529962407589    27.976926534650

  Nuclear repulsion =   32.640972399967119

  ==> Basis Set <==

  Basis Set: CC-PVDZ
    Blend: CC-PVDZ
    Number of shells: 14
    Number of basis functions: 32
    Number of Cartesian functions: 34
    Spherical Harmonics?: true
    Max angular momentum: 2

  ==> DFJKGrad: Density-Fitted SCF Gradients <==

    Gradient:                    1
    J tasked:                  Yes
    K tasked:                  Yes
    wK tasked:                  No
    OpenMP threads:              1
    Integrals threads:           1
    Memory [MiB]:              375
    Schwarz Cutoff:          1E-12
    Fitting Condition:       1E-10

   => Auxiliary Basis Set <=

  Basis Set: (CC-PVDZ AUX)
    Blend: CC-PVDZ-JKFIT
    Number of shells: 60
    Number of basis functions: 182
    Number of Cartesian functions: 211
    Spherical Harmonics?: true
    Max angular momentum: 3

  ==> DFT Potential <==

   => LibXC <=

    Version 6.2.2
    S. Lehtola, C. Steigemann, M. J.T. Oliveira, and M. A.L. Marques.,  SoftwareX 7, 1â€“5 (2018) (10.1016/j.softx.2017.11.002)

   => Composite Functional: B3LYP <=

    B3LYP Hyb-GGA Exchange-Correlation Functional

    P. J. Stephens, F. J. Devlin, C. F. Chabalowski, and M. J. Frisch.,  J. Phys. Chem. 98, 11623 (1994) (10.1021/j100096a001)

    Deriv               =              1
    GGA                 =           TRUE
    Meta                =          FALSE

    Exchange Hybrid     =           TRUE
    MP2 Hybrid          =          FALSE

   => Exchange Functionals <=

    0.0800   Slater exchange
    0.7200         Becke 88

   => Exact (HF) Exchange <=

    0.2000               HF

   => Correlation Functionals <=

    0.1900   Vosko, Wilk & Nusair (VWN5_RPA)
    0.8100   Lee, Yang & Parr

   => LibXC Density Thresholds  <==

    XC_HYB_GGA_XC_B3LYP:  1.00E-15

   => Molecular Quadrature <=

    Radial Scheme          =       TREUTLER
    Pruning Scheme         =           NONE
    Nuclear Scheme         =       TREUTLER

    Blocking Scheme        =         OCTREE
    BS radius alpha        =              1
    Pruning alpha          =              1
    Radial Points          =             75
    Spherical Points       =            302
    Total Points           =          42630
    Total Blocks           =            395
    Max Points             =            256
    Max Functions          =             32
    Weights Tolerance      =       1.00E-15

  -Total Gradient:
     Atom            X                  Y                   Z
    ------   -----------------  -----------------  -----------------
       1        0.000000000000    -0.000000000000    -0.000130983556
       2        0.000000000000    -0.000000000000     0.000109975114

*** tstop() called on Joses-MacBook-Pro-2.local at Wed Jul 16 19:12:21 2025
Module time:
	user time   =       1.03 seconds =       0.02 minutes
	system time =       1.72 seconds =       0.03 minutes
	total time  =          1 seconds =       0.02 minutes
Total time:
	user time   =      79.19 seconds =       1.32 minutes
	system time =      61.96 seconds =       1.03 minutes
	total time  =         15 seconds =       0.25 minutes

    			-----------------------------------------

    			 OPTKING 3.0: for geometry optimizations

    			     By R.A. King, Bethel University

    			        with contributions from

    			    A.V. Copan, J. Cayton, A. Heide

    			-----------------------------------------

	                            ===> Fragment 1 <==

	 Z (Atomic Numbers)          Masses                          Geom
	       7.000000            14.003074          0.00000000  0.00000000  2.00087773
	      14.000000            27.976927          0.00000000  0.00000000 -1.00148381

	 - Coordinate -           - BOHR/RAD -       - ANG/DEG -
	 R(1,2)           =         3.002362           1.588781

	        --- Internal Coordinate Step in ANG or DEG, aJ/ANG or AJ/DEG ---
	-------------------------------------------------------------------------------
	           Coordinate      Previous         Force          Change          New
	           ----------      --------        ------          ------        ------
	               R(1,2)       1.58878        0.00099        0.00013       1.58891
	-------------------------------------------------------------------------------

	                                 ==> Convergence Check <==

	Measures of convergence in internal coordinates in au.

	Criteria marked as inactive (o), active & met (*), and active & unmet ( ).

	----------------------------------------------------------------------------------------------
	   Step    Total Energy     Delta E     Max Force     RMS Force      Max Disp      RMS Disp
	----------------------------------------------------------------------------------------------
	  Convergence Criteria     1.00e-06 *    3.00e-04 *             o    1.20e-03 *             o
	----------------------------------------------------------------------------------------------
	    10    -344.13507843   -9.67e-07 *    1.20e-04 *    1.20e-04 o    2.45e-04 *    2.45e-04 o  ~
	----------------------------------------------------------------------------------------------

Next Geometry in Ang
	Fragment 1 (Ang)

	    N   0.0000000000   0.0000000000   1.0588837104
	   Si   0.0000000000   0.0000000000  -0.5300272230

    Final optimized geometry and variables:
    Molecular point group: c2v
    Full point group: C_inf_v

    Geometry (in Angstrom), charge = 0, multiplicity = 2:

    N            0.000000000000     0.000000000000     1.058818894947
    SI           0.000000000000     0.000000000000    -0.529962407589

    Psi4 stopped on: Wednesday, 16 July 2025 07:12PM
    Psi4 wall time for execution: 0:00:15.07

*** Psi4 exiting successfully. Buy a developer a beer!
