                               Psi4 1.9.1 release

  ==> Input File <==

--------------------------------------------------------------------------
molecule {
0 2
Li   0.00000        0.60000        0.00000
S   0.00000       -0.60000        0.00000
}

set {
basis              cc-pvdz
reference          uks
maxiter            500
geom_maxiter       500
DAMPING_PERCENTAGE 1
guess              SAP
}

optimize('b3lyp')
--------------------------------------------------------------------------

    Molecular point group: c2v
  Charge       = 0
  Multiplicity = 2
  Basis Set: CC-PVDZ
    Blend: CC-PVDZ
  Basis Set: (CC-PVDZ AUX)
    Blend: CC-PVDZ-JKFIT + DEF2-UNIVERSAL-JKFIT
  @DF-UKS Final Energy:  -405.31166061816930
    Total Energy =                       -405.3116606181692987
 Dipole X            :          0.0000000            0.0000000            0.0000000
 Dipole Y            :          0.0000000            0.0000000            0.0000000
 Dipole Z            :          2.1194506           -0.9503775            1.1690730
 Magnitude           :                                                    1.1690730
    Molecular point group: c2v
  Basis Set: CC-PVDZ
    Blend: CC-PVDZ
  Basis Set: (CC-PVDZ AUX)
    Blend: CC-PVDZ-JKFIT + DEF2-UNIVERSAL-JKFIT
  Basis Set: CC-PVDZ
    Blend: CC-PVDZ
  Basis Set: (CC-PVDZ AUX)
    Blend: CC-PVDZ-JKFIT + DEF2-UNIVERSAL-JKFIT
  @DF-UKS Final Energy:  -405.43998417034379
    Total Energy =                       -405.4399841703437914
  Basis Set: CC-PVDZ
    Blend: CC-PVDZ
  Basis Set: (CC-PVDZ AUX)
    Blend: CC-PVDZ-JKFIT + DEF2-UNIVERSAL-JKFIT
  Basis Set: CC-PVDZ
    Blend: CC-PVDZ
  @DF-UKS Final Energy:  -405.55973296452822
    Total Energy =                       -405.5597329645282798
  @DF-UKS Final Energy:  -405.64271098558208
    Total Energy =                       -405.6427109855821413
  @DF-UKS Final Energy:  -405.68274500721589
    Total Energy =                       -405.6827450072158285
  @DF-UKS Final Energy:  -405.69877964683366
    Total Energy =                       -405.6987796468336569
  @DF-UKS Final Energy:  -405.70418612895156
    Total Energy =                       -405.7041861289515623
  @DF-UKS Final Energy:  -405.70521287406530
    Total Energy =                       -405.7052128740653529
  @DF-UKS Final Energy:  -405.70546477727720
    Total Energy =                       -405.7054647772772569
  @DF-UKS Final Energy:  -405.70548885350593
    Total Energy =                       -405.7054888535059831
  Basis Set: (CC-PVDZ AUX)
    Blend: CC-PVDZ-JKFIT + DEF2-UNIVERSAL-JKFIT
  Basis Set: CC-PVDZ
    Blend: CC-PVDZ
  Basis Set: (CC-PVDZ AUX)
    Blend: CC-PVDZ-JKFIT + DEF2-UNIVERSAL-JKFIT
  @DF-UKS Final Energy:  -405.70549120635798
    Total Energy =                       -405.7054912063579195
  Basis Set: CC-PVDZ
    Blend: CC-PVDZ
  Basis Set: (CC-PVDZ AUX)
    Blend: CC-PVDZ-JKFIT + DEF2-UNIVERSAL-JKFIT
  Charge       = 0
  Multiplicity = 2
  Basis Set: CC-PVDZ
    Blend: CC-PVDZ
  Basis Set: (CC-PVDZ AUX)
    Blend: CC-PVDZ-JKFIT + DEF2-UNIVERSAL-JKFIT

    Orbital Energies [Eh]
    ---------------------

    Alpha Occupied:

       1A1   -88.821876     2A1    -7.882972     3A1    -5.855847
       1B2    -5.838072     1B1    -5.838072     4A1    -2.073157
       5A1    -0.625258     6A1    -0.279681     2B1    -0.212267
       2B2    -0.212267

    Alpha Virtual:

       7A1    -0.065905     3B1    -0.001306     3B2    -0.001306
       8A1     0.028144     4B2     0.072290     4B1     0.072290
       9A1     0.078683    10A1     0.182974     1A2     0.223952
      11A1     0.223952     5B1     0.259690     5B2     0.259690
      12A1     0.377283     6B1     0.582528     6B2     0.582528
      13A1     0.601557    14A1     0.633890     2A2     0.689449
      15A1     0.689452     7B1     0.769175     7B2     0.769175
      16A1     1.194213

    Beta Occupied:

       1A1   -88.816970     2A1    -7.877894     3A1    -5.839697
       1B2    -5.834966     1B1    -5.834966     4A1    -2.070501
       5A1    -0.580311     2B1    -0.199281     2B2    -0.199281

    Beta Virtual:

       6A1    -0.148988     7A1    -0.062657     3B1     0.000972
       3B2     0.000972     8A1     0.029594     4B2     0.075248
       4B1     0.075248     9A1     0.079322    10A1     0.197037
       1A2     0.226724    11A1     0.226724     5B1     0.269984
       5B2     0.269984    12A1     0.393824     6B1     0.592920
       6B2     0.592920    13A1     0.642419    14A1     0.684171
       2A2     0.696605    15A1     0.696609     7B1     0.806236
       7B2     0.806236    16A1     1.208880

    Final Occupation by Irrep:
             A1    A2    B1    B2
    DOCC [     5,    0,    2,    2 ]
    SOCC [     1,    0,    0,    0 ]
    NA   [     6,    0,    2,    2 ]
    NB   [     5,    0,    2,    2 ]

  @DF-UKS Final Energy:  -405.70549143541740

   => Energetics <=

    Nuclear Repulsion Energy =             12.0511122773248083
    One-Electron Energy =                -584.7942904702172200
    Two-Electron Energy =                 189.2618379480371971
    DFT Exchange-Correlation Energy =     -22.2241511905622424
    Empirical Dispersion Energy =           0.0000000000000000
    VV10 Nonlocal Energy =                  0.0000000000000000
    Total Energy =                       -405.7054914354174571

  UHF NO Occupations:
  HONO-2 :    2 B2 1.9998442
  HONO-1 :    5 A1 1.9990744
  HONO-0 :    6 A1 1.0000000
  LUNO+0 :    7 A1 0.0009256
  LUNO+1 :    3 B1 0.0001558
  LUNO+2 :    3 B2 0.0001558
  LUNO+3 :    8 A1 0.0000002

Computation Completed

Properties will be evaluated at   0.000000,   0.000000,   0.000000 [a0]

Properties computed using the SCF density matrix

 Multipole Moments:

 ------------------------------------------------------------------------------------
     Multipole            Electronic (a.u.)      Nuclear  (a.u.)        Total (a.u.)
 ------------------------------------------------------------------------------------

 L = 1.  Multiply by 2.5417464519 to convert [e a0] to [Debye]
 Dipole X            :          0.0000000            0.0000000            0.0000000
 Dipole Y            :          0.0000000            0.0000000            0.0000000
 Dipole Z            :          4.0774420           -1.6692837            2.4081583
 Magnitude           :                                                    2.4081583

 ------------------------------------------------------------------------------------

*** tstop() called on Joses-MacBook-Pro-2.local at Wed Jul 16 18:36:23 2025
Module time:
	user time   =       2.62 seconds =       0.04 minutes
	system time =       4.26 seconds =       0.07 minutes
	total time  =          1 seconds =       0.02 minutes
Total time:
	user time   =      56.39 seconds =       0.94 minutes
	system time =      68.22 seconds =       1.14 minutes
	total time  =         12 seconds =       0.20 minutes

*** tstart() called on Joses-MacBook-Pro-2.local
*** at Wed Jul 16 18:36:23 2025

         ------------------------------------------------------------
                                   SCF GRAD
                          Rob Parrish, Justin Turney,
                       Andy Simmonett, and Alex Sokolov
         ------------------------------------------------------------

  ==> Geometry <==

    Molecular point group: c2v
    Full point group: C_inf_v

    Geometry (in Angstrom), charge = 0, multiplicity = 2:

       Center              X                  Y                   Z               Mass
    ------------   -----------------  -----------------  -----------------  -----------------
         LI           0.000000000000     0.000000000000     1.728439648778     7.016003436600
         S            0.000000000000     0.000000000000    -0.379291615161    31.972071174400

  Nuclear repulsion =   12.051112277324808

  ==> Basis Set <==

  Basis Set: CC-PVDZ
    Blend: CC-PVDZ
    Number of shells: 14
    Number of basis functions: 32
    Number of Cartesian functions: 34
    Spherical Harmonics?: true
    Max angular momentum: 2

  ==> DFJKGrad: Density-Fitted SCF Gradients <==

    Gradient:                    1
    J tasked:                  Yes
    K tasked:                  Yes
    wK tasked:                  No
    OpenMP threads:              1
    Integrals threads:           1
    Memory [MiB]:              375
    Schwarz Cutoff:          1E-12
    Fitting Condition:       1E-10

   => Auxiliary Basis Set <=

  Basis Set: (CC-PVDZ AUX)
    Blend: CC-PVDZ-JKFIT + DEF2-UNIVERSAL-JKFIT
    Number of shells: 53
    Number of basis functions: 163
    Number of Cartesian functions: 190
    Spherical Harmonics?: true
    Max angular momentum: 3

  ==> DFT Potential <==

   => LibXC <=

    Version 6.2.2
    S. Lehtola, C. Steigemann, M. J.T. Oliveira, and M. A.L. Marques.,  SoftwareX 7, 1â€“5 (2018) (10.1016/j.softx.2017.11.002)

   => Composite Functional: B3LYP <=

    B3LYP Hyb-GGA Exchange-Correlation Functional

    P. J. Stephens, F. J. Devlin, C. F. Chabalowski, and M. J. Frisch.,  J. Phys. Chem. 98, 11623 (1994) (10.1021/j100096a001)

    Deriv               =              1
    GGA                 =           TRUE
    Meta                =          FALSE

    Exchange Hybrid     =           TRUE
    MP2 Hybrid          =          FALSE

   => Exchange Functionals <=

    0.0800   Slater exchange
    0.7200         Becke 88

   => Exact (HF) Exchange <=

    0.2000               HF

   => Correlation Functionals <=

    0.1900   Vosko, Wilk & Nusair (VWN5_RPA)
    0.8100   Lee, Yang & Parr

   => LibXC Density Thresholds  <==

    XC_HYB_GGA_XC_B3LYP:  1.00E-15

   => Molecular Quadrature <=

    Radial Scheme          =       TREUTLER
    Pruning Scheme         =           NONE
    Nuclear Scheme         =       TREUTLER

    Blocking Scheme        =         OCTREE
    BS radius alpha        =              1
    Pruning alpha          =              1
    Radial Points          =             75
    Spherical Points       =            302
    Total Points           =          44329
    Total Blocks           =            437
    Max Points             =            256
    Max Functions          =             32
    Weights Tolerance      =       1.00E-15

  -Total Gradient:
     Atom            X                  Y                   Z
    ------   -----------------  -----------------  -----------------
       1        0.000000000000    -0.000000000000    -0.000027924244
       2        0.000000000000     0.000000000000     0.000036795512

*** tstop() called on Joses-MacBook-Pro-2.local at Wed Jul 16 18:36:23 2025
Module time:
	user time   =       0.93 seconds =       0.02 minutes
	system time =       1.44 seconds =       0.02 minutes
	total time  =          0 seconds =       0.00 minutes
Total time:
	user time   =      57.33 seconds =       0.96 minutes
	system time =      69.66 seconds =       1.16 minutes
	total time  =         12 seconds =       0.20 minutes

    			-----------------------------------------

    			 OPTKING 3.0: for geometry optimizations

    			     By R.A. King, Bethel University

    			        with contributions from

    			    A.V. Copan, J. Cayton, A. Heide

    			-----------------------------------------

	                            ===> Fragment 1 <==

	 Z (Atomic Numbers)          Masses                          Geom
	       3.000000             7.016003          0.00000000  0.00000000  3.26627756
	      16.000000            31.972071          0.00000000  0.00000000 -0.71675727

	 - Coordinate -           - BOHR/RAD -       - ANG/DEG -
	 R(1,2)           =         3.983035           2.107731

	        --- Internal Coordinate Step in ANG or DEG, aJ/ANG or AJ/DEG ---
	-------------------------------------------------------------------------------
	           Coordinate      Previous         Force          Change          New
	           ----------      --------        ------          ------        ------
	               R(1,2)       2.10773        0.00027        0.00023       2.10796
	-------------------------------------------------------------------------------

	                                 ==> Convergence Check <==

	Measures of convergence in internal coordinates in au.

	Criteria marked as inactive (o), active & met (*), and active & unmet ( ).

	----------------------------------------------------------------------------------------------
	   Step    Total Energy     Delta E     Max Force     RMS Force      Max Disp      RMS Disp
	----------------------------------------------------------------------------------------------
	  Convergence Criteria     1.00e-06 *    3.00e-04 *             o    1.20e-03 *             o
	----------------------------------------------------------------------------------------------
	    12    -405.70549144   -2.29e-07 *    3.24e-05 *    3.24e-05 o    4.31e-04 *    4.31e-04 o  ~
	----------------------------------------------------------------------------------------------

Next Geometry in Ang
	Fragment 1 (Ang)

	   Li   0.0000000000   0.0000000000   1.7285537528
	    S   0.0000000000   0.0000000000  -0.3794057191

    Final optimized geometry and variables:
    Molecular point group: c2v
    Full point group: C_inf_v

    Geometry (in Angstrom), charge = 0, multiplicity = 2:

    LI           0.000000000000     0.000000000000     1.728439648778
    S            0.000000000000     0.000000000000    -0.379291615161

    Psi4 stopped on: Wednesday, 16 July 2025 06:36PM
    Psi4 wall time for execution: 0:00:13.01

*** Psi4 exiting successfully. Buy a developer a beer!
