                               Psi4 1.9.1 release

  ==> Input File <==

--------------------------------------------------------------------------
molecule {
0 2
Al   0.00000        0.60000        0.00000
S   0.00000       -0.60000        0.00000
}

set {
basis              cc-pvdz
reference          uks
maxiter            500
geom_maxiter       500
DAMPING_PERCENTAGE 1
guess              SAP
}

optimize('b3lyp')
--------------------------------------------------------------------------

    Molecular point group: c2v
  Charge       = 0
  Multiplicity = 2
  Basis Set: CC-PVDZ
    Blend: CC-PVDZ
  Basis Set: (CC-PVDZ AUX)
    Blend: CC-PVDZ-JKFIT
  @DF-UKS Final Energy:  -639.52916845548839
    Total Energy =                       -639.5291684554883886
 Dipole X            :          0.0000000            0.0000000            0.0000000
 Dipole Y            :          0.0000000            0.0000000            0.0000000
 Dipole Z            :          0.8466122           -0.6180494            0.2285628
 Magnitude           :                                                    0.2285628
    Molecular point group: c2v
  Basis Set: CC-PVDZ
    Blend: CC-PVDZ
  Basis Set: (CC-PVDZ AUX)
    Blend: CC-PVDZ-JKFIT
  Basis Set: CC-PVDZ
    Blend: CC-PVDZ
  Basis Set: (CC-PVDZ AUX)
    Blend: CC-PVDZ-JKFIT
  @DF-UKS Final Energy:  -639.55493114014610
    Total Energy =                       -639.5549311401462091
  Basis Set: CC-PVDZ
    Blend: CC-PVDZ
  Basis Set: (CC-PVDZ AUX)
    Blend: CC-PVDZ-JKFIT
  Basis Set: CC-PVDZ
    Blend: CC-PVDZ
  @DF-UKS Final Energy:  -639.60410285013802
    Total Energy =                       -639.6041028501380197
  @DF-UKS Final Energy:  -639.77642197925218
    Total Energy =                       -639.7764219792521772
  @DF-UKS Final Energy:  -640.34569932466536
    Total Energy =                       -640.3456993246653610
  @DF-UKS Final Energy:  -640.52656182568478
    Total Energy =                       -640.5265618256847802
  @DF-UKS Final Energy:  -640.60887723508006
    Total Energy =                       -640.6088772350800582
  @DF-UKS Final Energy:  -640.63978758882467
    Total Energy =                       -640.6397875888246745
  @DF-UKS Final Energy:  -640.64924619060048
    Total Energy =                       -640.6492461906004792
  @DF-UKS Final Energy:  -640.65088794026519
    Total Energy =                       -640.6508879402650791
  @DF-UKS Final Energy:  -640.65122389946896
    Total Energy =                       -640.6512238994688460
  @DF-UKS Final Energy:  -640.65131245853308
    Total Energy =                       -640.6513124585331980
  Basis Set: (CC-PVDZ AUX)
    Blend: CC-PVDZ-JKFIT
  Basis Set: CC-PVDZ
    Blend: CC-PVDZ
  Basis Set: (CC-PVDZ AUX)
    Blend: CC-PVDZ-JKFIT
  @DF-UKS Final Energy:  -640.65132140651838
    Total Energy =                       -640.6513214065182638
  Basis Set: CC-PVDZ
    Blend: CC-PVDZ
  Basis Set: (CC-PVDZ AUX)
    Blend: CC-PVDZ-JKFIT
  Charge       = 0
  Multiplicity = 2
  Basis Set: CC-PVDZ
    Blend: CC-PVDZ
  Basis Set: (CC-PVDZ AUX)
    Blend: CC-PVDZ-JKFIT

    Orbital Energies [Eh]
    ---------------------

    Alpha Occupied:

       1A1   -88.847892     2A1   -56.104924     3A1    -7.910279
       4A1    -5.876547     1B2    -5.867573     1B1    -5.867573
       5A1    -4.186969     6A1    -2.739478     2B1    -2.739213
       2B2    -2.739213     7A1    -0.667909     8A1    -0.370681
       9A1    -0.260307     3B1    -0.251735     3B2    -0.251735

    Alpha Virtual:

       4B2    -0.066415     4B1    -0.066415    10A1     0.027314
      11A1     0.143295     5B2     0.196126     5B1     0.196126
      12A1     0.213232     1A2     0.242753    13A1     0.242753
       6B1     0.260122     6B2     0.260122    14A1     0.321822
       7B1     0.551619     7B2     0.551619    15A1     0.630876
       2A2     0.654769    16A1     0.654772    17A1     0.693472
       8B2     0.779166     8B1     0.779166    18A1     1.100799

    Beta Occupied:

       1A1   -88.845628     2A1   -56.102691     3A1    -7.908012
       4A1    -5.868766     1B2    -5.866272     1B1    -5.866272
       5A1    -4.183774     2B1    -2.737330     2B2    -2.737330
       6A1    -2.733401     7A1    -0.649094     8A1    -0.337415
       3B1    -0.247165     3B2    -0.247165

    Beta Virtual:

       9A1    -0.168980     4B2    -0.050734     4B1    -0.050734
      10A1     0.041434    11A1     0.156012     5B2     0.199510
       5B1     0.199510    12A1     0.239200     1A2     0.252532
      13A1     0.252533     6B1     0.286879     6B2     0.286879
      14A1     0.339524     7B1     0.555689     7B2     0.555689
      15A1     0.650840     2A2     0.657468    16A1     0.657472
      17A1     0.707316     8B2     0.796983     8B1     0.796983
      18A1     1.113256

    Final Occupation by Irrep:
             A1    A2    B1    B2
    DOCC [     8,    0,    3,    3 ]
    SOCC [     1,    0,    0,    0 ]
    NA   [     9,    0,    3,    3 ]
    NB   [     8,    0,    3,    3 ]

  @DF-UKS Final Energy:  -640.65132242367429

   => Energetics <=

    Nuclear Repulsion Energy =             53.1690246273098666
    One-Electron Energy =                -993.1988455392906872
    Two-Electron Energy =                 335.0900738190713355
    DFT Exchange-Correlation Energy =     -35.7115753307648873
    Empirical Dispersion Energy =           0.0000000000000000
    VV10 Nonlocal Energy =                  0.0000000000000000
    Total Energy =                       -640.6513224236742872

  UHF NO Occupations:
  HONO-2 :    7 A1 1.9998201
  HONO-1 :    8 A1 1.9977159
  HONO-0 :    9 A1 1.0000000
  LUNO+0 :   10 A1 0.0022841
  LUNO+1 :   11 A1 0.0001799
  LUNO+2 :    4 B2 0.0000850
  LUNO+3 :    4 B1 0.0000850

Computation Completed

Properties will be evaluated at   0.000000,   0.000000,   0.000000 [a0]

Properties computed using the SCF density matrix

 Multipole Moments:

 ------------------------------------------------------------------------------------
     Multipole            Electronic (a.u.)      Nuclear  (a.u.)        Total (a.u.)
 ------------------------------------------------------------------------------------

 L = 1.  Multiply by 2.5417464519 to convert [e a0] to [Debye]
 Dipole X            :          0.0000000            0.0000000            0.0000000
 Dipole Y            :          0.0000000            0.0000000            0.0000000
 Dipole Z            :          2.4773240           -1.0662222            1.4111018
 Magnitude           :                                                    1.4111018

 ------------------------------------------------------------------------------------

*** tstop() called on Joses-MacBook-Pro-2.local at Wed Jul 16 20:08:29 2025
Module time:
	user time   =       7.67 seconds =       0.13 minutes
	system time =       2.25 seconds =       0.04 minutes
	total time  =          1 seconds =       0.02 minutes
Total time:
	user time   =     170.23 seconds =       2.84 minutes
	system time =      44.12 seconds =       0.74 minutes
	total time  =         20 seconds =       0.33 minutes

*** tstart() called on Joses-MacBook-Pro-2.local
*** at Wed Jul 16 20:08:29 2025

         ------------------------------------------------------------
                                   SCF GRAD
                          Rob Parrish, Justin Turney,
                       Andy Simmonett, and Alex Sokolov
         ------------------------------------------------------------

  ==> Geometry <==

    Molecular point group: c2v
    Full point group: C_inf_v

    Geometry (in Angstrom), charge = 0, multiplicity = 2:

       Center              X                  Y                   Z               Mass
    ------------   -----------------  -----------------  -----------------  -----------------
         AL           0.000000000000     0.000000000000     1.122706258351    26.981538530000
         S            0.000000000000     0.000000000000    -0.947462615178    31.972071174400

  Nuclear repulsion =   53.169024627309867

  ==> Basis Set <==

  Basis Set: CC-PVDZ
    Blend: CC-PVDZ
    Number of shells: 16
    Number of basis functions: 36
    Number of Cartesian functions: 38
    Spherical Harmonics?: true
    Max angular momentum: 2

  ==> DFJKGrad: Density-Fitted SCF Gradients <==

    Gradient:                    1
    J tasked:                  Yes
    K tasked:                  Yes
    wK tasked:                  No
    OpenMP threads:              1
    Integrals threads:           1
    Memory [MiB]:              375
    Schwarz Cutoff:          1E-12
    Fitting Condition:       1E-10

   => Auxiliary Basis Set <=

  Basis Set: (CC-PVDZ AUX)
    Blend: CC-PVDZ-JKFIT
    Number of shells: 72
    Number of basis functions: 224
    Number of Cartesian functions: 260
    Spherical Harmonics?: true
    Max angular momentum: 3

  ==> DFT Potential <==

   => LibXC <=

    Version 6.2.2
    S. Lehtola, C. Steigemann, M. J.T. Oliveira, and M. A.L. Marques.,  SoftwareX 7, 1â€“5 (2018) (10.1016/j.softx.2017.11.002)

   => Composite Functional: B3LYP <=

    B3LYP Hyb-GGA Exchange-Correlation Functional

    P. J. Stephens, F. J. Devlin, C. F. Chabalowski, and M. J. Frisch.,  J. Phys. Chem. 98, 11623 (1994) (10.1021/j100096a001)

    Deriv               =              1
    GGA                 =           TRUE
    Meta                =          FALSE

    Exchange Hybrid     =           TRUE
    MP2 Hybrid          =          FALSE

   => Exchange Functionals <=

    0.0800   Slater exchange
    0.7200         Becke 88

   => Exact (HF) Exchange <=

    0.2000               HF

   => Correlation Functionals <=

    0.1900   Vosko, Wilk & Nusair (VWN5_RPA)
    0.8100   Lee, Yang & Parr

   => LibXC Density Thresholds  <==

    XC_HYB_GGA_XC_B3LYP:  1.00E-15

   => Molecular Quadrature <=

    Radial Scheme          =       TREUTLER
    Pruning Scheme         =           NONE
    Nuclear Scheme         =       TREUTLER

    Blocking Scheme        =         OCTREE
    BS radius alpha        =              1
    Pruning alpha          =              1
    Radial Points          =             75
    Spherical Points       =            302
    Total Points           =          42653
    Total Blocks           =            398
    Max Points             =            256
    Max Functions          =             36
    Weights Tolerance      =       1.00E-15

  -Total Gradient:
     Atom            X                  Y                   Z
    ------   -----------------  -----------------  -----------------
       1        0.000000000000     0.000000000000    -0.000090692045
       2        0.000000000000     0.000000000000     0.000114910271

*** tstop() called on Joses-MacBook-Pro-2.local at Wed Jul 16 20:08:30 2025
Module time:
	user time   =       2.42 seconds =       0.04 minutes
	system time =       0.97 seconds =       0.02 minutes
	total time  =          1 seconds =       0.02 minutes
Total time:
	user time   =     172.65 seconds =       2.88 minutes
	system time =      45.09 seconds =       0.75 minutes
	total time  =         21 seconds =       0.35 minutes

    			-----------------------------------------

    			 OPTKING 3.0: for geometry optimizations

    			     By R.A. King, Bethel University

    			        with contributions from

    			    A.V. Copan, J. Cayton, A. Heide

    			-----------------------------------------

	                            ===> Fragment 1 <==

	 Z (Atomic Numbers)          Masses                          Geom
	      13.000000            26.981539          0.00000000  0.00000000  2.12160735
	      16.000000            31.972071          0.00000000  0.00000000 -1.79044486

	 - Coordinate -           - BOHR/RAD -       - ANG/DEG -
	 R(1,2)           =         3.912052           2.070169

	        --- Internal Coordinate Step in ANG or DEG, aJ/ANG or AJ/DEG ---
	-------------------------------------------------------------------------------
	           Coordinate      Previous         Force          Change          New
	           ----------      --------        ------          ------        ------
	               R(1,2)       2.07017        0.00085        0.00027       2.07044
	-------------------------------------------------------------------------------

	                                 ==> Convergence Check <==

	Measures of convergence in internal coordinates in au.

	Criteria marked as inactive (o), active & met (*), and active & unmet ( ).

	----------------------------------------------------------------------------------------------
	   Step    Total Energy     Delta E     Max Force     RMS Force      Max Disp      RMS Disp
	----------------------------------------------------------------------------------------------
	  Convergence Criteria     1.00e-06 *    3.00e-04 *             o    1.20e-03 *             o
	----------------------------------------------------------------------------------------------
	    14    -640.65132242   -1.02e-06      1.03e-04 *    1.03e-04 o    5.08e-04 *    5.08e-04 o  ~
	----------------------------------------------------------------------------------------------

Next Geometry in Ang
	Fragment 1 (Ang)

	   Al   0.0000000000   0.0000000000   1.1228407595
	    S   0.0000000000   0.0000000000  -0.9475971163

    Final optimized geometry and variables:
    Molecular point group: c2v
    Full point group: C_inf_v

    Geometry (in Angstrom), charge = 0, multiplicity = 2:

    AL           0.000000000000     0.000000000000     1.122706258351
    S            0.000000000000     0.000000000000    -0.947462615178

    Psi4 stopped on: Wednesday, 16 July 2025 08:08PM
    Psi4 wall time for execution: 0:00:21.23

*** Psi4 exiting successfully. Buy a developer a beer!
