                               Psi4 1.9.1 release

  ==> Input File <==

--------------------------------------------------------------------------
molecule {
0 2
He   0.00000        0.60000        0.00000
Li   0.00000       -0.60000        0.00000
}

set {
basis              cc-pvdz
reference          uks
maxiter            500
geom_maxiter       500
DAMPING_PERCENTAGE 1
guess              SAP
}

optimize('b3lyp')
--------------------------------------------------------------------------

    Molecular point group: c2v
  Charge       = 0
  Multiplicity = 2
  Basis Set: CC-PVDZ
    Blend: CC-PVDZ
  Basis Set: (CC-PVDZ AUX)
    Blend: DEF2-UNIVERSAL-JKFIT
  @DF-UKS Final Energy:   -10.34119973789676
    Total Energy =                        -10.3411997378967566
 Dipole X            :          0.0000000            0.0000000            0.0000000
 Dipole Y            :          0.0000000            0.0000000            0.0000000
 Dipole Z            :          0.8176196            0.4165875            1.2342071
 Magnitude           :                                                    1.2342071
    Molecular point group: c2v
  Basis Set: CC-PVDZ
    Blend: CC-PVDZ
  Basis Set: (CC-PVDZ AUX)
    Blend: DEF2-UNIVERSAL-JKFIT
  Basis Set: CC-PVDZ
    Blend: CC-PVDZ
  Basis Set: (CC-PVDZ AUX)
    Blend: DEF2-UNIVERSAL-JKFIT
  @DF-UKS Final Energy:   -10.37302481684752
    Total Energy =                        -10.3730248168475185
  Basis Set: CC-PVDZ
    Blend: CC-PVDZ
  Basis Set: (CC-PVDZ AUX)
    Blend: DEF2-UNIVERSAL-JKFIT
  Basis Set: CC-PVDZ
    Blend: CC-PVDZ
  @DF-UKS Final Energy:   -10.38023754569267
    Total Energy =                        -10.3802375456926654
  @DF-UKS Final Energy:   -10.38589198786193
    Total Energy =                        -10.3858919878619265
  @DF-UKS Final Energy:   -10.38907148579574
    Total Energy =                        -10.3890714857957356
  @DF-UKS Final Energy:   -10.39150432449875
    Total Energy =                        -10.3915043244987473
  @DF-UKS Final Energy:   -10.39382173637252
    Total Energy =                        -10.3938217363725176
  @DF-UKS Final Energy:   -10.39407961109394
    Total Energy =                        -10.3940796110939395
  @DF-UKS Final Energy:   -10.39649083399490
    Total Energy =                        -10.3964908339949034
  @DF-UKS Final Energy:   -10.39663081031108
    Total Energy =                        -10.3966308103110805
  @DF-UKS Final Energy:   -10.39789442861020
    Total Energy =                        -10.3978944286102006
  @DF-UKS Final Energy:   -10.39794460342580
    Total Energy =                        -10.3979446034258043
  @DF-UKS Final Energy:   -10.39851111681150
    Total Energy =                        -10.3985111168114965
  @DF-UKS Final Energy:   -10.39852496298353
    Total Energy =                        -10.3985249629835295
  @DF-UKS Final Energy:   -10.39876158622571
    Total Energy =                        -10.3987615862257066
  @DF-UKS Final Energy:   -10.39876454904804
    Total Energy =                        -10.3987645490480389
  @DF-UKS Final Energy:   -10.39876740421244
    Total Energy =                        -10.3987674042124389
  @DF-UKS Final Energy:   -10.39884428934612
    Total Energy =                        -10.3988442893461226
  @DF-UKS Final Energy:   -10.39886145245372
    Total Energy =                        -10.3988614524537208
  Basis Set: (CC-PVDZ AUX)
    Blend: DEF2-UNIVERSAL-JKFIT
  Basis Set: CC-PVDZ
    Blend: CC-PVDZ
  Basis Set: (CC-PVDZ AUX)
    Blend: DEF2-UNIVERSAL-JKFIT
  @DF-UKS Final Energy:   -10.39886509155816
    Total Energy =                        -10.3988650915581573
  Basis Set: CC-PVDZ
    Blend: CC-PVDZ
  Basis Set: (CC-PVDZ AUX)
    Blend: DEF2-UNIVERSAL-JKFIT
  Charge       = 0
  Multiplicity = 2
  Basis Set: CC-PVDZ
    Blend: CC-PVDZ
  Basis Set: (CC-PVDZ AUX)
    Blend: DEF2-UNIVERSAL-JKFIT

    Orbital Energies [Eh]
    ---------------------

    Alpha Occupied:

       1A1    -2.032365     2A1    -0.653610     3A1    -0.134297

    Alpha Virtual:

       1B1    -0.032092     1B2    -0.032092     4A1    -0.030013
       2B2     0.071170     2B1     0.071170     5A1     0.074038
       6A1     0.086592     7A1     0.218022     1A2     0.218022
       3B1     0.218152     3B2     0.218152     8A1     0.218255
       9A1     1.155754     4B1     2.186205     4B2     2.186205
      10A1     2.187924

    Beta Occupied:

       1A1    -2.025082     2A1    -0.653459

    Beta Virtual:

       3A1    -0.053520     4A1     0.001812     1B2     0.003604
       1B1     0.003604     2B2     0.090347     2B1     0.090347
       5A1     0.090707     6A1     0.106977     7A1     0.265400
       3B1     0.266675     3B2     0.266675     1A2     0.266687
       8A1     0.266704     9A1     1.156177     4B2     2.186295
       4B1     2.186295    10A1     2.188041

    Final Occupation by Irrep:
             A1    A2    B1    B2
    DOCC [     2,    0,    0,    0 ]
    SOCC [     1,    0,    0,    0 ]
    NA   [     3,    0,    0,    0 ]
    NB   [     2,    0,    0,    0 ]

  @DF-UKS Final Energy:   -10.39886514837958

   => Energetics <=

    Nuclear Repulsion Energy =              0.7339551329749118
    One-Electron Energy =                 -15.0624011789372236
    Two-Electron Energy =                   6.2843258440659060
    DFT Exchange-Correlation Energy =      -2.3547449464831791
    Empirical Dispersion Energy =           0.0000000000000000
    VV10 Nonlocal Energy =                  0.0000000000000000
    Total Energy =                        -10.3988651483795849

  UHF NO Occupations:
  HONO-2 :    1 A1 1.9999999
  HONO-1 :    2 A1 1.9999997
  HONO-0 :    3 A1 1.0000000
  LUNO+0 :    4 A1 0.0000003
  LUNO+1 :    5 A1 0.0000001
  LUNO+2 :    6 A1 0.0000000
  LUNO+3 :    7 A1 0.0000000

Computation Completed

Properties will be evaluated at   0.000000,   0.000000,   0.000000 [a0]

Properties computed using the SCF density matrix

 Multipole Moments:

 ------------------------------------------------------------------------------------
     Multipole            Electronic (a.u.)      Nuclear  (a.u.)        Total (a.u.)
 ------------------------------------------------------------------------------------

 L = 1.  Multiply by 2.5417464519 to convert [e a0] to [Debye]
 Dipole X            :          0.0000000            0.0000000            0.0000000
 Dipole Y            :          0.0000000            0.0000000            0.0000000
 Dipole Z            :         -1.4506701            1.5017853            0.0511153
 Magnitude           :                                                    0.0511153

 ------------------------------------------------------------------------------------

*** tstop() called on Joses-MacBook-Pro-2.local at Wed Jul 16 18:18:53 2025
Module time:
	user time   =       0.60 seconds =       0.01 minutes
	system time =       3.27 seconds =       0.05 minutes
	total time  =          1 seconds =       0.02 minutes
Total time:
	user time   =      24.84 seconds =       0.41 minutes
	system time =      86.92 seconds =       1.45 minutes
	total time  =         11 seconds =       0.18 minutes

*** tstart() called on Joses-MacBook-Pro-2.local
*** at Wed Jul 16 18:18:53 2025

         ------------------------------------------------------------
                                   SCF GRAD
                          Rob Parrish, Justin Turney,
                       Andy Simmonett, and Alex Sokolov
         ------------------------------------------------------------

  ==> Geometry <==

    Molecular point group: c2v
    Full point group: C_inf_v

    Geometry (in Angstrom), charge = 0, multiplicity = 2:

       Center              X                  Y                   Z               Mass
    ------------   -----------------  -----------------  -----------------  -----------------
         HE           0.000000000000     0.000000000000     2.754520335513     4.002603254130
         LI           0.000000000000     0.000000000000    -1.571443366315     7.016003436600

  Nuclear repulsion =    0.733955132974912

  ==> Basis Set <==

  Basis Set: CC-PVDZ
    Blend: CC-PVDZ
    Number of shells: 9
    Number of basis functions: 19
    Number of Cartesian functions: 20
    Spherical Harmonics?: true
    Max angular momentum: 2

  ==> DFJKGrad: Density-Fitted SCF Gradients <==

    Gradient:                    1
    J tasked:                  Yes
    K tasked:                  Yes
    wK tasked:                  No
    OpenMP threads:              1
    Integrals threads:           1
    Memory [MiB]:              375
    Schwarz Cutoff:          1E-12
    Fitting Condition:       1E-10

   => Auxiliary Basis Set <=

  Basis Set: (CC-PVDZ AUX)
    Blend: DEF2-UNIVERSAL-JKFIT
    Number of shells: 26
    Number of basis functions: 74
    Number of Cartesian functions: 85
    Spherical Harmonics?: true
    Max angular momentum: 3

  ==> DFT Potential <==

   => LibXC <=

    Version 6.2.2
    S. Lehtola, C. Steigemann, M. J.T. Oliveira, and M. A.L. Marques.,  SoftwareX 7, 1â€“5 (2018) (10.1016/j.softx.2017.11.002)

   => Composite Functional: B3LYP <=

    B3LYP Hyb-GGA Exchange-Correlation Functional

    P. J. Stephens, F. J. Devlin, C. F. Chabalowski, and M. J. Frisch.,  J. Phys. Chem. 98, 11623 (1994) (10.1021/j100096a001)

    Deriv               =              1
    GGA                 =           TRUE
    Meta                =          FALSE

    Exchange Hybrid     =           TRUE
    MP2 Hybrid          =          FALSE

   => Exchange Functionals <=

    0.0800   Slater exchange
    0.7200         Becke 88

   => Exact (HF) Exchange <=

    0.2000               HF

   => Correlation Functionals <=

    0.1900   Vosko, Wilk & Nusair (VWN5_RPA)
    0.8100   Lee, Yang & Parr

   => LibXC Density Thresholds  <==

    XC_HYB_GGA_XC_B3LYP:  1.00E-15

   => Molecular Quadrature <=

    Radial Scheme          =       TREUTLER
    Pruning Scheme         =           NONE
    Nuclear Scheme         =       TREUTLER

    Blocking Scheme        =         OCTREE
    BS radius alpha        =              1
    Pruning alpha          =              1
    Radial Points          =             75
    Spherical Points       =            302
    Total Points           =          44421
    Total Blocks           =            432
    Max Points             =            256
    Max Functions          =             19
    Weights Tolerance      =       1.00E-15

  -Total Gradient:
     Atom            X                  Y                   Z
    ------   -----------------  -----------------  -----------------
       1        0.000000000000     0.000000000000    -0.000004428012
       2       -0.000000000000    -0.000000000000    -0.000000424021

*** tstop() called on Joses-MacBook-Pro-2.local at Wed Jul 16 18:18:53 2025
Module time:
	user time   =       0.31 seconds =       0.01 minutes
	system time =       0.72 seconds =       0.01 minutes
	total time  =          0 seconds =       0.00 minutes
Total time:
	user time   =      25.15 seconds =       0.42 minutes
	system time =      87.64 seconds =       1.46 minutes
	total time  =         11 seconds =       0.18 minutes

    			-----------------------------------------

    			 OPTKING 3.0: for geometry optimizations

    			     By R.A. King, Bethel University

    			        with contributions from

    			    A.V. Copan, J. Cayton, A. Heide

    			-----------------------------------------

	                            ===> Fragment 1 <==

	 Z (Atomic Numbers)          Masses                          Geom
	       2.000000             4.002603          0.00000000  0.00000000  5.20528904
	       3.000000             7.016003          0.00000000  0.00000000 -2.96959758

	 - Coordinate -           - BOHR/RAD -       - ANG/DEG -
	 R(1,2)           =         8.174887           4.325964

	        --- Internal Coordinate Step in ANG or DEG, aJ/ANG or AJ/DEG ---
	-------------------------------------------------------------------------------
	           Coordinate      Previous         Force          Change          New
	           ----------      --------        ------          ------        ------
	               R(1,2)       4.32596        0.00002        0.00511       4.33108
	-------------------------------------------------------------------------------

	                                 ==> Convergence Check <==

	Measures of convergence in internal coordinates in au.

	Criteria marked as inactive (o), active & met (*), and active & unmet ( ).

	----------------------------------------------------------------------------------------------
	   Step    Total Energy     Delta E     Max Force     RMS Force      Max Disp      RMS Disp
	----------------------------------------------------------------------------------------------
	  Convergence Criteria     1.00e-06 *    3.00e-04 *             o    1.20e-03 *             o
	----------------------------------------------------------------------------------------------
	    21     -10.39886515   -5.68e-08 *    2.00e-06 *    2.00e-06 o    9.66e-03      9.66e-03 o  ~
	----------------------------------------------------------------------------------------------

Next Geometry in Ang
	Fragment 1 (Ang)

	   He   0.0000000000   0.0000000000   2.7570772536
	   Li   0.0000000000   0.0000000000  -1.5740002845

    Final optimized geometry and variables:
    Molecular point group: c2v
    Full point group: C_inf_v

    Geometry (in Angstrom), charge = 0, multiplicity = 2:

    HE           0.000000000000     0.000000000000     2.754520335513
    LI           0.000000000000     0.000000000000    -1.571443366315

    Psi4 stopped on: Wednesday, 16 July 2025 06:18PM
    Psi4 wall time for execution: 0:00:11.99

*** Psi4 exiting successfully. Buy a developer a beer!
