                               Psi4 1.9.1 release

  ==> Input File <==

--------------------------------------------------------------------------
molecule {
0 2
He   0.00000        0.60000        0.00000
P   0.00000       -0.60000        0.00000
}

set {
basis              cc-pvdz
reference          uks
maxiter            500
geom_maxiter       500
DAMPING_PERCENTAGE 1
guess              SAP
}

optimize('b3lyp')
--------------------------------------------------------------------------

    Molecular point group: c2v
  Charge       = 0
  Multiplicity = 2
  Basis Set: CC-PVDZ
    Blend: CC-PVDZ
  Basis Set: (CC-PVDZ AUX)
    Blend: CC-PVDZ-JKFIT + DEF2-UNIVERSAL-JKFIT
  @DF-UKS Final Energy:  -344.00593331397528
    Total Energy =                       -344.0059333139752198
 Dipole X            :          0.0000000            0.0000000            0.0000000
 Dipole Y            :          0.0000000            0.0000000            0.0000000
 Dipole Z            :          0.7656985            0.1237348            0.8894333
 Magnitude           :                                                    0.8894333
    Molecular point group: c2v
  Basis Set: CC-PVDZ
    Blend: CC-PVDZ
  Basis Set: (CC-PVDZ AUX)
    Blend: CC-PVDZ-JKFIT + DEF2-UNIVERSAL-JKFIT
  Basis Set: CC-PVDZ
    Blend: CC-PVDZ
  Basis Set: (CC-PVDZ AUX)
    Blend: CC-PVDZ-JKFIT + DEF2-UNIVERSAL-JKFIT
  @DF-UKS Final Energy:  -344.08477772451067
    Total Energy =                       -344.0847777245106727
  Basis Set: CC-PVDZ
    Blend: CC-PVDZ
  Basis Set: (CC-PVDZ AUX)
    Blend: CC-PVDZ-JKFIT + DEF2-UNIVERSAL-JKFIT
  Basis Set: CC-PVDZ
    Blend: CC-PVDZ
  @DF-UKS Final Energy:  -344.09784652793661
    Total Energy =                       -344.0978465279365537
  @DF-UKS Final Energy:  -344.10974301860114
    Total Energy =                       -344.1097430186011366
  @DF-UKS Final Energy:  -344.11534977401737
    Total Energy =                       -344.1153497740173748
  @DF-UKS Final Energy:  -344.11826427138681
    Total Energy =                       -344.1182642713868631
  @DF-UKS Final Energy:  -344.11958216476927
    Total Energy =                       -344.1195821647692696
  @DF-UKS Final Energy:  -344.12012008893100
    Total Energy =                       -344.1201200889309462
  @DF-UKS Final Energy:  -344.12030149962010
    Total Energy =                       -344.1203014996201546
  @DF-UKS Final Energy:  -344.12033961164639
    Total Energy =                       -344.1203396116463864
  @DF-UKS Final Energy:  -344.12035103123168
    Total Energy =                       -344.1203510312316780
  Basis Set: (CC-PVDZ AUX)
    Blend: CC-PVDZ-JKFIT + DEF2-UNIVERSAL-JKFIT
  Basis Set: CC-PVDZ
    Blend: CC-PVDZ
  Basis Set: (CC-PVDZ AUX)
    Blend: CC-PVDZ-JKFIT + DEF2-UNIVERSAL-JKFIT
  @DF-UKS Final Energy:  -344.12035249108231
    Total Energy =                       -344.1203524910823148
  Basis Set: CC-PVDZ
    Blend: CC-PVDZ
  Basis Set: (CC-PVDZ AUX)
    Blend: CC-PVDZ-JKFIT + DEF2-UNIVERSAL-JKFIT
  Charge       = 0
  Multiplicity = 2
  Basis Set: CC-PVDZ
    Blend: CC-PVDZ
  Basis Set: (CC-PVDZ AUX)
    Blend: CC-PVDZ-JKFIT + DEF2-UNIVERSAL-JKFIT

    Orbital Energies [Eh]
    ---------------------

    Alpha Occupied:

       1A1   -77.131246     2A1    -6.595120     3A1    -4.765436
       1B2    -4.760445     1B1    -4.744276     4A1    -0.695973
       5A1    -0.560321     2B2    -0.250548     2B1    -0.207855

    Alpha Virtual:

       6A1    -0.168320     7A1     0.348629     3B2     0.401138
       8A1     0.426472     3B1     0.429691     4B2     0.437635
       9A1     0.446225     1A2     0.466347     4B1     0.471619
      10A1     0.481841    11A1     1.196631     5B2     2.151134
       5B1     2.151745    12A1     2.203489

    Beta Occupied:

       1A1   -77.127131     2A1    -6.590744     3A1    -4.763134
       1B2    -4.745866     1B1    -4.741757     4A1    -0.695659
       5A1    -0.520045     2B1    -0.196568

    Beta Virtual:

       6A1    -0.155888     2B2    -0.122308     7A1     0.363567
       3B1     0.435217     8A1     0.436550     3B2     0.441822
       9A1     0.474352     4B1     0.476785     4B2     0.490087
       1A2     0.511272    10A1     0.516987    11A1     1.197393
       5B2     2.151189     5B1     2.151702    12A1     2.203782

    Final Occupation by Irrep:
             A1    A2    B1    B2
    DOCC [     5,    0,    2,    1 ]
    SOCC [     0,    0,    0,    1 ]
    NA   [     5,    0,    2,    2 ]
    NB   [     5,    0,    2,    1 ]

  @DF-UKS Final Energy:  -344.12035265370633

   => Energetics <=

    Nuclear Repulsion Energy =              6.3191822054960411
    One-Electron Energy =                -487.8724765366320639
    Two-Electron Energy =                 156.9578311840124343
    DFT Exchange-Correlation Energy =     -19.5248895065827348
    Empirical Dispersion Energy =           0.0000000000000000
    VV10 Nonlocal Energy =                  0.0000000000000000
    Total Energy =                       -344.1203526537063340

  UHF NO Occupations:
  HONO-2 :    2 B1 1.9999771
  HONO-1 :    5 A1 1.9987340
  HONO-0 :    2 B2 1.0000000
  LUNO+0 :    6 A1 0.0012660
  LUNO+1 :    3 B1 0.0000229
  LUNO+2 :    7 A1 0.0000007
  LUNO+3 :    3 B2 0.0000000

Computation Completed

Properties will be evaluated at   0.000000,   0.000000,   0.000000 [a0]

Properties computed using the SCF density matrix

 Multipole Moments:

 ------------------------------------------------------------------------------------
     Multipole            Electronic (a.u.)      Nuclear  (a.u.)        Total (a.u.)
 ------------------------------------------------------------------------------------

 L = 1.  Multiply by 2.5417464519 to convert [e a0] to [Debye]
 Dipole X            :          0.0000000            0.0000000            0.0000000
 Dipole Y            :          0.0000000            0.0000000            0.0000000
 Dipole Z            :         -0.1779534            0.2590432            0.0810898
 Magnitude           :                                                    0.0810898

 ------------------------------------------------------------------------------------

*** tstop() called on Joses-MacBook-Pro-2.local at Wed Jul 16 18:24:54 2025
Module time:
	user time   =       2.66 seconds =       0.04 minutes
	system time =       2.79 seconds =       0.05 minutes
	total time  =          1 seconds =       0.02 minutes
Total time:
	user time   =      51.04 seconds =       0.85 minutes
	system time =      58.43 seconds =       0.97 minutes
	total time  =         11 seconds =       0.18 minutes

*** tstart() called on Joses-MacBook-Pro-2.local
*** at Wed Jul 16 18:24:54 2025

         ------------------------------------------------------------
                                   SCF GRAD
                          Rob Parrish, Justin Turney,
                       Andy Simmonett, and Alex Sokolov
         ------------------------------------------------------------

  ==> Geometry <==

    Molecular point group: c2v
    Full point group: C_inf_v

    Geometry (in Angstrom), charge = 0, multiplicity = 2:

       Center              X                  Y                   Z               Mass
    ------------   -----------------  -----------------  -----------------  -----------------
         HE           0.000000000000     0.000000000000     2.224747825622     4.002603254130
         P            0.000000000000     0.000000000000    -0.287494392412    30.973761998420

  Nuclear repulsion =    6.319182205496041

  ==> Basis Set <==

  Basis Set: CC-PVDZ
    Blend: CC-PVDZ
    Number of shells: 11
    Number of basis functions: 23
    Number of Cartesian functions: 24
    Spherical Harmonics?: true
    Max angular momentum: 2

  ==> DFJKGrad: Density-Fitted SCF Gradients <==

    Gradient:                    1
    J tasked:                  Yes
    K tasked:                  Yes
    wK tasked:                  No
    OpenMP threads:              1
    Integrals threads:           1
    Memory [MiB]:              375
    Schwarz Cutoff:          1E-12
    Fitting Condition:       1E-10

   => Auxiliary Basis Set <=

  Basis Set: (CC-PVDZ AUX)
    Blend: CC-PVDZ-JKFIT + DEF2-UNIVERSAL-JKFIT
    Number of shells: 45
    Number of basis functions: 135
    Number of Cartesian functions: 155
    Spherical Harmonics?: true
    Max angular momentum: 3

  ==> DFT Potential <==

   => LibXC <=

    Version 6.2.2
    S. Lehtola, C. Steigemann, M. J.T. Oliveira, and M. A.L. Marques.,  SoftwareX 7, 1â€“5 (2018) (10.1016/j.softx.2017.11.002)

   => Composite Functional: B3LYP <=

    B3LYP Hyb-GGA Exchange-Correlation Functional

    P. J. Stephens, F. J. Devlin, C. F. Chabalowski, and M. J. Frisch.,  J. Phys. Chem. 98, 11623 (1994) (10.1021/j100096a001)

    Deriv               =              1
    GGA                 =           TRUE
    Meta                =          FALSE

    Exchange Hybrid     =           TRUE
    MP2 Hybrid          =          FALSE

   => Exchange Functionals <=

    0.0800   Slater exchange
    0.7200         Becke 88

   => Exact (HF) Exchange <=

    0.2000               HF

   => Correlation Functionals <=

    0.1900   Vosko, Wilk & Nusair (VWN5_RPA)
    0.8100   Lee, Yang & Parr

   => LibXC Density Thresholds  <==

    XC_HYB_GGA_XC_B3LYP:  1.00E-15

   => Molecular Quadrature <=

    Radial Scheme          =       TREUTLER
    Pruning Scheme         =           NONE
    Nuclear Scheme         =       TREUTLER

    Blocking Scheme        =         OCTREE
    BS radius alpha        =              1
    Pruning alpha          =              1
    Radial Points          =             75
    Spherical Points       =            302
    Total Points           =          42771
    Total Blocks           =            381
    Max Points             =            255
    Max Functions          =             23
    Weights Tolerance      =       1.00E-15

  -Total Gradient:
     Atom            X                  Y                   Z
    ------   -----------------  -----------------  -----------------
       1        0.000000000000    -0.000000000000    -0.000017607018
       2        0.000000000000     0.000000000000     0.000013447528

*** tstop() called on Joses-MacBook-Pro-2.local at Wed Jul 16 18:24:54 2025
Module time:
	user time   =       0.65 seconds =       0.01 minutes
	system time =       1.23 seconds =       0.02 minutes
	total time  =          0 seconds =       0.00 minutes
Total time:
	user time   =      51.69 seconds =       0.86 minutes
	system time =      59.66 seconds =       0.99 minutes
	total time  =         11 seconds =       0.18 minutes

    			-----------------------------------------

    			 OPTKING 3.0: for geometry optimizations

    			     By R.A. King, Bethel University

    			        with contributions from

    			    A.V. Copan, J. Cayton, A. Heide

    			-----------------------------------------

	                            ===> Fragment 1 <==

	 Z (Atomic Numbers)          Masses                          Geom
	       2.000000             4.002603          0.00000000  0.00000000  4.20416409
	      15.000000            30.973762          0.00000000  0.00000000 -0.54328566

	 - Coordinate -           - BOHR/RAD -       - ANG/DEG -
	 R(1,2)           =         4.747450           2.512242

	        --- Internal Coordinate Step in ANG or DEG, aJ/ANG or AJ/DEG ---
	-------------------------------------------------------------------------------
	           Coordinate      Previous         Force          Change          New
	           ----------      --------        ------          ------        ------
	               R(1,2)       2.51224        0.00013        0.00273       2.51498
	-------------------------------------------------------------------------------

	                                 ==> Convergence Check <==

	Measures of convergence in internal coordinates in au.

	Criteria marked as inactive (o), active & met (*), and active & unmet ( ).

	----------------------------------------------------------------------------------------------
	   Step    Total Energy     Delta E     Max Force     RMS Force      Max Disp      RMS Disp
	----------------------------------------------------------------------------------------------
	  Convergence Criteria     1.00e-06 *    3.00e-04 *             o    1.20e-03 *             o
	----------------------------------------------------------------------------------------------
	    13    -344.12035265   -1.63e-07 *    1.55e-05 *    1.55e-05 o    5.17e-03      5.17e-03 o  ~
	----------------------------------------------------------------------------------------------

Next Geometry in Ang
	Fragment 1 (Ang)

	   He   0.0000000000   0.0000000000   2.2261152189
	    P   0.0000000000   0.0000000000  -0.2888617857

    Final optimized geometry and variables:
    Molecular point group: c2v
    Full point group: C_inf_v

    Geometry (in Angstrom), charge = 0, multiplicity = 2:

    HE           0.000000000000     0.000000000000     2.224747825622
    P            0.000000000000     0.000000000000    -0.287494392412

    Psi4 stopped on: Wednesday, 16 July 2025 06:24PM
    Psi4 wall time for execution: 0:00:11.28

*** Psi4 exiting successfully. Buy a developer a beer!
