                               Psi4 1.9.1 release

  ==> Input File <==

--------------------------------------------------------------------------
molecule {
0 2
Li   0.00000        0.60000        0.00000
Mg   0.00000       -0.60000        0.00000
}

set {
basis              cc-pvdz
reference          uks
maxiter            500
geom_maxiter       500
DAMPING_PERCENTAGE 1
guess              SAP
}

optimize('b3lyp')
--------------------------------------------------------------------------

    Molecular point group: c2v
  Charge       = 0
  Multiplicity = 2
  Basis Set: CC-PVDZ
    Blend: CC-PVDZ
  Basis Set: (CC-PVDZ AUX)
    Blend: DEF2-UNIVERSAL-JKFIT
  @DF-UKS Final Energy:  -207.24007572803524
    Total Energy =                       -207.2400757280352366
 Dipole X            :          0.0000000            0.0000000            0.0000000
 Dipole Y            :          0.0000000            0.0000000            0.0000000
 Dipole Z            :          1.1948448           -0.8951087            0.2997362
 Magnitude           :                                                    0.2997362
    Molecular point group: c2v
  Basis Set: CC-PVDZ
    Blend: CC-PVDZ
  Basis Set: (CC-PVDZ AUX)
    Blend: DEF2-UNIVERSAL-JKFIT
  Basis Set: CC-PVDZ
    Blend: CC-PVDZ
  Basis Set: (CC-PVDZ AUX)
    Blend: DEF2-UNIVERSAL-JKFIT
  @DF-UKS Final Energy:  -207.28807649824486
    Total Energy =                       -207.2880764982448341
  Basis Set: CC-PVDZ
    Blend: CC-PVDZ
  Basis Set: (CC-PVDZ AUX)
    Blend: DEF2-UNIVERSAL-JKFIT
  Basis Set: CC-PVDZ
    Blend: CC-PVDZ
  @DF-UKS Final Energy:  -207.34900742341284
    Total Energy =                       -207.3490074234128429
  @DF-UKS Final Energy:  -207.44101833794528
    Total Energy =                       -207.4410183379452803
  @DF-UKS Final Energy:  -207.50374438176567
    Total Energy =                       -207.5037443817656708
  @DF-UKS Final Energy:  -207.53743964398370
    Total Energy =                       -207.5374396439837028
  @DF-UKS Final Energy:  -207.55153798863978
    Total Energy =                       -207.5515379886397795
  @DF-UKS Final Energy:  -207.55642274073759
    Total Energy =                       -207.5564227407376166
  @DF-UKS Final Energy:  -207.55758699259758
    Total Energy =                       -207.5575869925975780
  @DF-UKS Final Energy:  -207.55772869895515
    Total Energy =                       -207.5577286989551453
  Basis Set: (CC-PVDZ AUX)
    Blend: DEF2-UNIVERSAL-JKFIT
  Basis Set: CC-PVDZ
    Blend: CC-PVDZ
  Basis Set: (CC-PVDZ AUX)
    Blend: DEF2-UNIVERSAL-JKFIT
  @DF-UKS Final Energy:  -207.55773390883687
    Total Energy =                       -207.5577339088368660
  Basis Set: CC-PVDZ
    Blend: CC-PVDZ
  Basis Set: (CC-PVDZ AUX)
    Blend: DEF2-UNIVERSAL-JKFIT
  Charge       = 0
  Multiplicity = 2
  Basis Set: CC-PVDZ
    Blend: CC-PVDZ
  Basis Set: (CC-PVDZ AUX)
    Blend: DEF2-UNIVERSAL-JKFIT

    Orbital Energies [Eh]
    ---------------------

    Alpha Occupied:

       1A1   -46.817899     2A1    -3.099015     3A1    -2.047577
       4A1    -1.843101     1B1    -1.842925     1B2    -1.841613
       5A1    -0.215700     2B2    -0.093657

    Alpha Virtual:

       6A1    -0.080054     2B1    -0.047746     7A1    -0.031081
       3B2    -0.001295     3B1     0.013542     8A1     0.028584
       4B2     0.057773     4B1     0.072612     9A1     0.083298
      10A1     0.112662     5B2     0.174095    11A1     0.181825
       5B1     0.182080     1A2     0.205733    12A1     0.211382
      13A1     0.224911     6B2     0.232008     6B1     0.247216
       2A2     0.344846    14A1     0.347551    15A1     0.390459
       7B2     0.460283     7B1     0.469483    16A1     0.676093

    Beta Occupied:

       1A1   -46.817493     2A1    -3.098538     3A1    -2.046344
       4A1    -1.842913     1B1    -1.842812     1B2    -1.839464
       5A1    -0.202956

    Beta Virtual:

       6A1    -0.071829     2B1    -0.046101     2B2    -0.035962
       7A1    -0.028066     3B1     0.012983     3B2     0.017382
       8A1     0.031893     4B1     0.071044     4B2     0.075504
       9A1     0.082791    10A1     0.116858     5B1     0.180557
      11A1     0.183626     5B2     0.188359    12A1     0.225591
       1A2     0.227701    13A1     0.232166     6B1     0.244744
       6B2     0.253130     2A2     0.357691    14A1     0.357945
      15A1     0.394086     7B1     0.466735     7B2     0.476778
      16A1     0.677926

    Final Occupation by Irrep:
             A1    A2    B1    B2
    DOCC [     5,    0,    1,    1 ]
    SOCC [     0,    0,    0,    1 ]
    NA   [     5,    0,    1,    2 ]
    NB   [     5,    0,    1,    1 ]

  @DF-UKS Final Energy:  -207.55773411081881

   => Energetics <=

    Nuclear Repulsion Energy =              7.3322988307185231
    One-Electron Energy =                -303.7239011260264192
    Two-Electron Energy =                 103.6058385822559273
    DFT Exchange-Correlation Energy =     -14.7719703977668360
    Empirical Dispersion Energy =           0.0000000000000000
    VV10 Nonlocal Energy =                  0.0000000000000000
    Total Energy =                       -207.5577341108188136

  UHF NO Occupations:
  HONO-2 :    4 A1 1.9999998
  HONO-1 :    5 A1 1.9965143
  HONO-0 :    2 B2 1.0000000
  LUNO+0 :    6 A1 0.0034857
  LUNO+1 :    7 A1 0.0000002
  LUNO+2 :    2 B1 0.0000000
  LUNO+3 :    3 B2 0.0000000

Computation Completed

Properties will be evaluated at   0.000000,   0.000000,   0.000000 [a0]

Properties computed using the SCF density matrix

 Multipole Moments:

 ------------------------------------------------------------------------------------
     Multipole            Electronic (a.u.)      Nuclear  (a.u.)        Total (a.u.)
 ------------------------------------------------------------------------------------

 L = 1.  Multiply by 2.5417464519 to convert [e a0] to [Debye]
 Dipole X            :          0.0000000            0.0000000            0.0000000
 Dipole Y            :          0.0000000            0.0000000            0.0000000
 Dipole Z            :          2.6893789           -1.9380188            0.7513601
 Magnitude           :                                                    0.7513601

 ------------------------------------------------------------------------------------

*** tstop() called on Joses-MacBook-Pro-2.local at Wed Jul 16 18:33:09 2025
Module time:
	user time   =       2.99 seconds =       0.05 minutes
	system time =       3.75 seconds =       0.06 minutes
	total time  =          1 seconds =       0.02 minutes
Total time:
	user time   =      63.15 seconds =       1.05 minutes
	system time =      63.09 seconds =       1.05 minutes
	total time  =         13 seconds =       0.22 minutes

*** tstart() called on Joses-MacBook-Pro-2.local
*** at Wed Jul 16 18:33:09 2025

         ------------------------------------------------------------
                                   SCF GRAD
                          Rob Parrish, Justin Turney,
                       Andy Simmonett, and Alex Sokolov
         ------------------------------------------------------------

  ==> Geometry <==

    Molecular point group: c2v
    Full point group: C_inf_v

    Geometry (in Angstrom), charge = 0, multiplicity = 2:

       Center              X                  Y                   Z               Mass
    ------------   -----------------  -----------------  -----------------  -----------------
         LI           0.000000000000     0.000000000000     2.010146080627     7.016003436600
         MG           0.000000000000     0.000000000000    -0.587999470166    23.985041697000

  Nuclear repulsion =    7.332298830718523

  ==> Basis Set <==

  Basis Set: CC-PVDZ
    Blend: CC-PVDZ
    Number of shells: 14
    Number of basis functions: 32
    Number of Cartesian functions: 34
    Spherical Harmonics?: true
    Max angular momentum: 2

  ==> DFJKGrad: Density-Fitted SCF Gradients <==

    Gradient:                    1
    J tasked:                  Yes
    K tasked:                  Yes
    wK tasked:                  No
    OpenMP threads:              1
    Integrals threads:           1
    Memory [MiB]:              375
    Schwarz Cutoff:          1E-12
    Fitting Condition:       1E-10

   => Auxiliary Basis Set <=

  Basis Set: (CC-PVDZ AUX)
    Blend: DEF2-UNIVERSAL-JKFIT
    Number of shells: 51
    Number of basis functions: 163
    Number of Cartesian functions: 197
    Spherical Harmonics?: true
    Max angular momentum: 4

  ==> DFT Potential <==

   => LibXC <=

    Version 6.2.2
    S. Lehtola, C. Steigemann, M. J.T. Oliveira, and M. A.L. Marques.,  SoftwareX 7, 1â€“5 (2018) (10.1016/j.softx.2017.11.002)

   => Composite Functional: B3LYP <=

    B3LYP Hyb-GGA Exchange-Correlation Functional

    P. J. Stephens, F. J. Devlin, C. F. Chabalowski, and M. J. Frisch.,  J. Phys. Chem. 98, 11623 (1994) (10.1021/j100096a001)

    Deriv               =              1
    GGA                 =           TRUE
    Meta                =          FALSE

    Exchange Hybrid     =           TRUE
    MP2 Hybrid          =          FALSE

   => Exchange Functionals <=

    0.0800   Slater exchange
    0.7200         Becke 88

   => Exact (HF) Exchange <=

    0.2000               HF

   => Correlation Functionals <=

    0.1900   Vosko, Wilk & Nusair (VWN5_RPA)
    0.8100   Lee, Yang & Parr

   => LibXC Density Thresholds  <==

    XC_HYB_GGA_XC_B3LYP:  1.00E-15

   => Molecular Quadrature <=

    Radial Scheme          =       TREUTLER
    Pruning Scheme         =           NONE
    Nuclear Scheme         =       TREUTLER

    Blocking Scheme        =         OCTREE
    BS radius alpha        =              1
    Pruning alpha          =              1
    Radial Points          =             75
    Spherical Points       =            302
    Total Points           =          43826
    Total Blocks           =            451
    Max Points             =            254
    Max Functions          =             32
    Weights Tolerance      =       1.00E-15

  -Total Gradient:
     Atom            X                  Y                   Z
    ------   -----------------  -----------------  -----------------
       1       -0.000000000000     0.000000000000    -0.000021834835
       2        0.000000000000     0.000000000000     0.000016788167

*** tstop() called on Joses-MacBook-Pro-2.local at Wed Jul 16 18:33:09 2025
Module time:
	user time   =       1.01 seconds =       0.02 minutes
	system time =       1.70 seconds =       0.03 minutes
	total time  =          0 seconds =       0.00 minutes
Total time:
	user time   =      64.16 seconds =       1.07 minutes
	system time =      64.79 seconds =       1.08 minutes
	total time  =         13 seconds =       0.22 minutes

    			-----------------------------------------

    			 OPTKING 3.0: for geometry optimizations

    			     By R.A. King, Bethel University

    			        with contributions from

    			    A.V. Copan, J. Cayton, A. Heide

    			-----------------------------------------

	                            ===> Fragment 1 <==

	 Z (Atomic Numbers)          Masses                          Geom
	       3.000000             7.016003          0.00000000  0.00000000  3.79862556
	      12.000000            23.985042          0.00000000  0.00000000 -1.11115796

	 - Coordinate -           - BOHR/RAD -       - ANG/DEG -
	 R(1,2)           =         4.909784           2.598146

	        --- Internal Coordinate Step in ANG or DEG, aJ/ANG or AJ/DEG ---
	-------------------------------------------------------------------------------
	           Coordinate      Previous         Force          Change          New
	           ----------      --------        ------          ------        ------
	               R(1,2)       2.59815        0.00016        0.00034       2.59849
	-------------------------------------------------------------------------------

	                                 ==> Convergence Check <==

	Measures of convergence in internal coordinates in au.

	Criteria marked as inactive (o), active & met (*), and active & unmet ( ).

	----------------------------------------------------------------------------------------------
	   Step    Total Energy     Delta E     Max Force     RMS Force      Max Disp      RMS Disp
	----------------------------------------------------------------------------------------------
	  Convergence Criteria     1.00e-06 *    3.00e-04 *             o    1.20e-03 *             o
	----------------------------------------------------------------------------------------------
	    12    -207.55773411   -2.02e-07 *    1.93e-05 *    1.93e-05 o    6.42e-04 *    6.42e-04 o  ~
	----------------------------------------------------------------------------------------------

Next Geometry in Ang
	Fragment 1 (Ang)

	   Li   0.0000000000   0.0000000000   2.0103159124
	   Mg   0.0000000000   0.0000000000  -0.5881693019

    Final optimized geometry and variables:
    Molecular point group: c2v
    Full point group: C_inf_v

    Geometry (in Angstrom), charge = 0, multiplicity = 2:

    LI           0.000000000000     0.000000000000     2.010146080627
    MG           0.000000000000     0.000000000000    -0.587999470166

    Psi4 stopped on: Wednesday, 16 July 2025 06:33PM
    Psi4 wall time for execution: 0:00:13.36

*** Psi4 exiting successfully. Buy a developer a beer!
