                               Psi4 1.9.1 release

  ==> Input File <==

--------------------------------------------------------------------------
molecule {
0 2
He   0.00000        0.60000        0.00000
Al   0.00000       -0.60000        0.00000
}

set {
basis              cc-pvdz
reference          uks
maxiter            500
geom_maxiter       500
DAMPING_PERCENTAGE 1
guess              SAP
}

optimize('b3lyp')
--------------------------------------------------------------------------

    Molecular point group: c2v
  Charge       = 0
  Multiplicity = 2
  Basis Set: CC-PVDZ
    Blend: CC-PVDZ
  Basis Set: (CC-PVDZ AUX)
    Blend: CC-PVDZ-JKFIT + DEF2-UNIVERSAL-JKFIT
  @DF-UKS Final Energy:  -245.10617211499931
    Total Energy =                       -245.1061721149993105
 Dipole X            :          0.0000000            0.0000000            0.0000000
 Dipole Y            :          0.0000000            0.0000000            0.0000000
 Dipole Z            :          1.0152798            0.1411971            1.1564769
 Magnitude           :                                                    1.1564769
    Molecular point group: c2v
  Basis Set: CC-PVDZ
    Blend: CC-PVDZ
  Basis Set: (CC-PVDZ AUX)
    Blend: CC-PVDZ-JKFIT + DEF2-UNIVERSAL-JKFIT
  Basis Set: CC-PVDZ
    Blend: CC-PVDZ
  Basis Set: (CC-PVDZ AUX)
    Blend: CC-PVDZ-JKFIT + DEF2-UNIVERSAL-JKFIT
  @DF-UKS Final Energy:  -245.21192407627609
    Total Energy =                       -245.2119240762761478
  Basis Set: CC-PVDZ
    Blend: CC-PVDZ
  Basis Set: (CC-PVDZ AUX)
    Blend: CC-PVDZ-JKFIT + DEF2-UNIVERSAL-JKFIT
  Basis Set: CC-PVDZ
    Blend: CC-PVDZ
  @DF-UKS Final Energy:  -245.23786129815034
    Total Energy =                       -245.2378612981503352
  @DF-UKS Final Energy:  -245.26068346423844
    Total Energy =                       -245.2606834642384115
  @DF-UKS Final Energy:  -245.27392471283622
    Total Energy =                       -245.2739247128362194
  @DF-UKS Final Energy:  -245.28193100103044
    Total Energy =                       -245.2819310010304719
  @DF-UKS Final Energy:  -245.28626889659111
    Total Energy =                       -245.2862688965911104
  @DF-UKS Final Energy:  -245.28847553152775
    Total Energy =                       -245.2884755315277516
  @DF-UKS Final Energy:  -245.28953813967939
    Total Energy =                       -245.2895381396794221
  @DF-UKS Final Energy:  -245.29001963911378
    Total Energy =                       -245.2900196391138081
  @DF-UKS Final Energy:  -245.29021820967813
    Total Energy =                       -245.2902182096781303
  @DF-UKS Final Energy:  -245.29028691109011
    Total Energy =                       -245.2902869110901065
  @DF-UKS Final Energy:  -245.29030546815662
    Total Energy =                       -245.2903054681566175
  Basis Set: (CC-PVDZ AUX)
    Blend: CC-PVDZ-JKFIT + DEF2-UNIVERSAL-JKFIT
  Basis Set: CC-PVDZ
    Blend: CC-PVDZ
  Basis Set: (CC-PVDZ AUX)
    Blend: CC-PVDZ-JKFIT + DEF2-UNIVERSAL-JKFIT
  @DF-UKS Final Energy:  -245.29030792272462
    Total Energy =                       -245.2903079227246224
  Basis Set: CC-PVDZ
    Blend: CC-PVDZ
  Basis Set: (CC-PVDZ AUX)
    Blend: CC-PVDZ-JKFIT + DEF2-UNIVERSAL-JKFIT
  Charge       = 0
  Multiplicity = 2
  Basis Set: CC-PVDZ
    Blend: CC-PVDZ
  Basis Set: (CC-PVDZ AUX)
    Blend: CC-PVDZ-JKFIT + DEF2-UNIVERSAL-JKFIT

    Orbital Energies [Eh]
    ---------------------

    Alpha Occupied:

       1A1   -56.071265     2A1    -4.151120     3A1    -2.704652
       1B2    -2.704633     1B1    -2.701508     4A1    -0.662362
       5A1    -0.319069     2B1    -0.131087

    Alpha Virtual:

       2B2    -0.074617     6A1    -0.072341     7A1     0.164224
       3B1     0.212993     3B2     0.222386     8A1     0.230445
       1A2     0.257776     4B1     0.257794     9A1     0.260586
      10A1     0.270002     4B2     0.270293    11A1     1.160162
       5B2     2.177902     5B1     2.178111    12A1     2.187525

    Beta Occupied:

       1A1   -56.069390     2A1    -4.148875     3A1    -2.703620
       1B2    -2.703601     1B1    -2.694036     4A1    -0.662386
       5A1    -0.294101

    Beta Virtual:

       2B2    -0.069001     6A1    -0.066523     2B1    -0.044225
       7A1     0.173632     3B2     0.224212     8A1     0.232444
       3B1     0.243292     9A1     0.270708     4B2     0.270961
       1A2     0.292537     4B1     0.292618    10A1     0.300492
      11A1     1.160379     5B2     2.177905     5B1     2.178135
      12A1     2.187548

    Final Occupation by Irrep:
             A1    A2    B1    B2
    DOCC [     5,    0,    1,    1 ]
    SOCC [     0,    0,    1,    0 ]
    NA   [     5,    0,    2,    1 ]
    NB   [     5,    0,    1,    1 ]

  @DF-UKS Final Energy:  -245.29030828563117

   => Energetics <=

    Nuclear Repulsion Energy =              3.9464439535189872
    One-Electron Energy =                -348.4382571992758812
    Two-Electron Energy =                 115.0431581255442808
    DFT Exchange-Correlation Energy =     -15.8416531654185793
    Empirical Dispersion Energy =           0.0000000000000000
    VV10 Nonlocal Energy =                  0.0000000000000000
    Total Energy =                       -245.2903082856311983

  UHF NO Occupations:
  HONO-2 :    4 A1 2.0000000
  HONO-1 :    5 A1 1.9980082
  HONO-0 :    2 B1 1.0000000
  LUNO+0 :    6 A1 0.0019918
  LUNO+1 :    7 A1 0.0000000
  LUNO+2 :    3 B1 0.0000000
  LUNO+3 :    2 B2 0.0000000

Computation Completed

Properties will be evaluated at   0.000000,   0.000000,   0.000000 [a0]

Properties computed using the SCF density matrix

 Multipole Moments:

 ------------------------------------------------------------------------------------
     Multipole            Electronic (a.u.)      Nuclear  (a.u.)        Total (a.u.)
 ------------------------------------------------------------------------------------

 L = 1.  Multiply by 2.5417464519 to convert [e a0] to [Debye]
 Dipole X            :          0.0000000            0.0000000            0.0000000
 Dipole Y            :          0.0000000            0.0000000            0.0000000
 Dipole Z            :         -0.3783981            0.4102164            0.0318183
 Magnitude           :                                                    0.0318183

 ------------------------------------------------------------------------------------

*** tstop() called on Joses-MacBook-Pro-2.local at Wed Jul 16 18:23:29 2025
Module time:
	user time   =       4.89 seconds =       0.08 minutes
	system time =       2.42 seconds =       0.04 minutes
	total time  =          0 seconds =       0.00 minutes
Total time:
	user time   =      70.37 seconds =       1.17 minutes
	system time =      61.62 seconds =       1.03 minutes
	total time  =         13 seconds =       0.22 minutes

*** tstart() called on Joses-MacBook-Pro-2.local
*** at Wed Jul 16 18:23:29 2025

         ------------------------------------------------------------
                                   SCF GRAD
                          Rob Parrish, Justin Turney,
                       Andy Simmonett, and Alex Sokolov
         ------------------------------------------------------------

  ==> Geometry <==

    Molecular point group: c2v
    Full point group: C_inf_v

    Geometry (in Angstrom), charge = 0, multiplicity = 2:

       Center              X                  Y                   Z               Mass
    ------------   -----------------  -----------------  -----------------  -----------------
         HE           0.000000000000     0.000000000000     3.035958146976     4.002603254130
         AL           0.000000000000     0.000000000000    -0.450372240448    26.981538530000

  Nuclear repulsion =    3.946443953518987

  ==> Basis Set <==

  Basis Set: CC-PVDZ
    Blend: CC-PVDZ
    Number of shells: 11
    Number of basis functions: 23
    Number of Cartesian functions: 24
    Spherical Harmonics?: true
    Max angular momentum: 2

  ==> DFJKGrad: Density-Fitted SCF Gradients <==

    Gradient:                    1
    J tasked:                  Yes
    K tasked:                  Yes
    wK tasked:                  No
    OpenMP threads:              1
    Integrals threads:           1
    Memory [MiB]:              375
    Schwarz Cutoff:          1E-12
    Fitting Condition:       1E-10

   => Auxiliary Basis Set <=

  Basis Set: (CC-PVDZ AUX)
    Blend: CC-PVDZ-JKFIT + DEF2-UNIVERSAL-JKFIT
    Number of shells: 45
    Number of basis functions: 135
    Number of Cartesian functions: 155
    Spherical Harmonics?: true
    Max angular momentum: 3

  ==> DFT Potential <==

   => LibXC <=

    Version 6.2.2
    S. Lehtola, C. Steigemann, M. J.T. Oliveira, and M. A.L. Marques.,  SoftwareX 7, 1â€“5 (2018) (10.1016/j.softx.2017.11.002)

   => Composite Functional: B3LYP <=

    B3LYP Hyb-GGA Exchange-Correlation Functional

    P. J. Stephens, F. J. Devlin, C. F. Chabalowski, and M. J. Frisch.,  J. Phys. Chem. 98, 11623 (1994) (10.1021/j100096a001)

    Deriv               =              1
    GGA                 =           TRUE
    Meta                =          FALSE

    Exchange Hybrid     =           TRUE
    MP2 Hybrid          =          FALSE

   => Exchange Functionals <=

    0.0800   Slater exchange
    0.7200         Becke 88

   => Exact (HF) Exchange <=

    0.2000               HF

   => Correlation Functionals <=

    0.1900   Vosko, Wilk & Nusair (VWN5_RPA)
    0.8100   Lee, Yang & Parr

   => LibXC Density Thresholds  <==

    XC_HYB_GGA_XC_B3LYP:  1.00E-15

   => Molecular Quadrature <=

    Radial Scheme          =       TREUTLER
    Pruning Scheme         =           NONE
    Nuclear Scheme         =       TREUTLER

    Blocking Scheme        =         OCTREE
    BS radius alpha        =              1
    Pruning alpha          =              1
    Radial Points          =             75
    Spherical Points       =            302
    Total Points           =          43554
    Total Blocks           =            395
    Max Points             =            256
    Max Functions          =             23
    Weights Tolerance      =       1.00E-15

  -Total Gradient:
     Atom            X                  Y                   Z
    ------   -----------------  -----------------  -----------------
       1       -0.000000000000    -0.000000000000    -0.000002598050
       2        0.000000000000     0.000000000000     0.000012030472

*** tstop() called on Joses-MacBook-Pro-2.local at Wed Jul 16 18:23:30 2025
Module time:
	user time   =       1.82 seconds =       0.03 minutes
	system time =       1.02 seconds =       0.02 minutes
	total time  =          1 seconds =       0.02 minutes
Total time:
	user time   =      72.19 seconds =       1.20 minutes
	system time =      62.66 seconds =       1.04 minutes
	total time  =         14 seconds =       0.23 minutes

    			-----------------------------------------

    			 OPTKING 3.0: for geometry optimizations

    			     By R.A. King, Bethel University

    			        with contributions from

    			    A.V. Copan, J. Cayton, A. Heide

    			-----------------------------------------

	                            ===> Fragment 1 <==

	 Z (Atomic Numbers)          Masses                          Geom
	       2.000000             4.002603          0.00000000  0.00000000  5.73712943
	      13.000000            26.981539          0.00000000  0.00000000 -0.85108019

	 - Coordinate -           - BOHR/RAD -       - ANG/DEG -
	 R(1,2)           =         6.588210           3.486330

	        --- Internal Coordinate Step in ANG or DEG, aJ/ANG or AJ/DEG ---
	-------------------------------------------------------------------------------
	           Coordinate      Previous         Force          Change          New
	           ----------      --------        ------          ------        ------
	               R(1,2)       3.48633        0.00006        0.00435       3.49068
	-------------------------------------------------------------------------------

	                                 ==> Convergence Check <==

	Measures of convergence in internal coordinates in au.

	Criteria marked as inactive (o), active & met (*), and active & unmet ( ).

	----------------------------------------------------------------------------------------------
	   Step    Total Energy     Delta E     Max Force     RMS Force      Max Disp      RMS Disp
	----------------------------------------------------------------------------------------------
	  Convergence Criteria     1.00e-06 *    3.00e-04 *             o    1.20e-03 *             o
	----------------------------------------------------------------------------------------------
	    15    -245.29030829   -3.63e-07 *    7.31e-06 *    7.31e-06 o    8.22e-03      8.22e-03 o  ~
	----------------------------------------------------------------------------------------------

Next Geometry in Ang
	Fragment 1 (Ang)

	   He   0.0000000000   0.0000000000   3.0381321126
	   Al   0.0000000000   0.0000000000  -0.4525462061

    Final optimized geometry and variables:
    Molecular point group: c2v
    Full point group: C_inf_v

    Geometry (in Angstrom), charge = 0, multiplicity = 2:

    HE           0.000000000000     0.000000000000     3.035958146976
    AL           0.000000000000     0.000000000000    -0.450372240448

    Psi4 stopped on: Wednesday, 16 July 2025 06:23PM
    Psi4 wall time for execution: 0:00:13.94

*** Psi4 exiting successfully. Buy a developer a beer!
