                               Psi4 1.9.1 release

  ==> Input File <==

--------------------------------------------------------------------------
molecule {
0 2
F   0.00000        0.60000        0.00000
Mg   0.00000       -0.60000        0.00000
}

set {
basis              cc-pvdz
reference          uks
maxiter            500
geom_maxiter       500
DAMPING_PERCENTAGE 1
guess              SAP
}

optimize('b3lyp')
--------------------------------------------------------------------------

    Molecular point group: c2v
  Charge       = 0
  Multiplicity = 2
  Basis Set: CC-PVDZ
    Blend: CC-PVDZ
  Basis Set: (CC-PVDZ AUX)
    Blend: CC-PVDZ-JKFIT + DEF2-UNIVERSAL-JKFIT
  @DF-UKS Final Energy:  -299.58343490967127
    Total Energy =                       -299.5834349096712117
 Dipole X            :          0.0000000            0.0000000            0.0000000
 Dipole Y            :          0.0000000            0.0000000            0.0000000
 Dipole Z            :          0.1153631           -0.6391737           -0.5238106
 Magnitude           :                                                    0.5238106
    Molecular point group: c2v
  Basis Set: CC-PVDZ
    Blend: CC-PVDZ
  Basis Set: (CC-PVDZ AUX)
    Blend: CC-PVDZ-JKFIT + DEF2-UNIVERSAL-JKFIT
  Basis Set: CC-PVDZ
    Blend: CC-PVDZ
  Basis Set: (CC-PVDZ AUX)
    Blend: CC-PVDZ-JKFIT + DEF2-UNIVERSAL-JKFIT
  @DF-UKS Final Energy:  -299.82347131499898
    Total Energy =                       -299.8234713149990398
  Basis Set: CC-PVDZ
    Blend: CC-PVDZ
  Basis Set: (CC-PVDZ AUX)
    Blend: CC-PVDZ-JKFIT + DEF2-UNIVERSAL-JKFIT
  Basis Set: CC-PVDZ
    Blend: CC-PVDZ
  @DF-UKS Final Energy:  -299.91325180849100
    Total Energy =                       -299.9132518084909407
  @DF-UKS Final Energy:  -299.94510187133022
    Total Energy =                       -299.9451018713302233
  @DF-UKS Final Energy:  -299.96433075173070
    Total Energy =                       -299.9643307517306994
  @DF-UKS Final Energy:  -299.97256482449035
    Total Energy =                       -299.9725648244903482
  @DF-UKS Final Energy:  -299.97461194278310
    Total Energy =                       -299.9746119427830990
  @DF-UKS Final Energy:  -299.97518867774767
    Total Energy =                       -299.9751886777477239
  @DF-UKS Final Energy:  -299.97539019709745
    Total Energy =                       -299.9753901970974539
  Basis Set: (CC-PVDZ AUX)
    Blend: CC-PVDZ-JKFIT + DEF2-UNIVERSAL-JKFIT
  Basis Set: CC-PVDZ
    Blend: CC-PVDZ
  Basis Set: (CC-PVDZ AUX)
    Blend: CC-PVDZ-JKFIT + DEF2-UNIVERSAL-JKFIT
  @DF-UKS Final Energy:  -299.97543634699105
    Total Energy =                       -299.9754363469909890
  Basis Set: CC-PVDZ
    Blend: CC-PVDZ
  Basis Set: (CC-PVDZ AUX)
    Blend: CC-PVDZ-JKFIT + DEF2-UNIVERSAL-JKFIT
  Charge       = 0
  Multiplicity = 2
  Basis Set: CC-PVDZ
    Blend: CC-PVDZ
  Basis Set: (CC-PVDZ AUX)
    Blend: CC-PVDZ-JKFIT + DEF2-UNIVERSAL-JKFIT

    Orbital Energies [Eh]
    ---------------------

    Alpha Occupied:

       1A1   -46.846618     2A1   -24.588020     3A1    -3.131865
       1B1    -1.876306     1B2    -1.876306     4A1    -1.873363
       5A1    -1.052631     6A1    -0.354019     2B2    -0.321670
       2B1    -0.321670     7A1    -0.202954

    Alpha Virtual:

       3B1    -0.032535     3B2    -0.032535     8A1     0.021713
       9A1     0.092636     4B2     0.151343     4B1     0.151343
      10A1     0.213208     1A2     0.296913    11A1     0.296913
       5B1     0.352152     5B2     0.352152    12A1     0.506747
       6B2     1.324584     6B1     1.324584    13A1     1.343414
      14A1     2.301952     2A2     3.664549    15A1     3.664798
      16A1     3.667627     7B1     3.683911     7B2     3.683911

    Beta Occupied:

       1A1   -46.844169     2A1   -24.586339     3A1    -3.127544
       1B1    -1.873558     1B2    -1.873558     4A1    -1.869036
       5A1    -1.048391     6A1    -0.343877     2B2    -0.320465
       2B1    -0.320465

    Beta Virtual:

       7A1    -0.114210     3B1    -0.009590     3B2    -0.009590
       8A1     0.035195     9A1     0.111687     4B2     0.169126
       4B1     0.169126    10A1     0.237291     1A2     0.322333
      11A1     0.322333     5B1     0.376446     5B2     0.376446
      12A1     0.527635     6B2     1.326871     6B1     1.326871
      13A1     1.347947    14A1     2.307434     2A2     3.665143
      15A1     3.665393    16A1     3.673068     7B1     3.688390
       7B2     3.688390

    Final Occupation by Irrep:
             A1    A2    B1    B2
    DOCC [     6,    0,    2,    2 ]
    SOCC [     1,    0,    0,    0 ]
    NA   [     7,    0,    2,    2 ]
    NB   [     6,    0,    2,    2 ]

  @DF-UKS Final Energy:  -299.97544135264320

   => Energetics <=

    Nuclear Repulsion Energy =             32.3276419239533723
    One-Electron Energy =                -484.3506294742703631
    Two-Electron Energy =                 173.8625528621088563
    DFT Exchange-Correlation Energy =     -21.8150066644350638
    Empirical Dispersion Energy =           0.0000000000000000
    VV10 Nonlocal Energy =                  0.0000000000000000
    Total Energy =                       -299.9754413526432586

  UHF NO Occupations:
  HONO-2 :    2 B2 1.9999692
  HONO-1 :    6 A1 1.9998721
  HONO-0 :    7 A1 1.0000000
  LUNO+0 :    8 A1 0.0001279
  LUNO+1 :    3 B2 0.0000308
  LUNO+2 :    3 B1 0.0000308
  LUNO+3 :    9 A1 0.0000012

Computation Completed

Properties will be evaluated at   0.000000,   0.000000,   0.000000 [a0]

Properties computed using the SCF density matrix

 Multipole Moments:

 ------------------------------------------------------------------------------------
     Multipole            Electronic (a.u.)      Nuclear  (a.u.)        Total (a.u.)
 ------------------------------------------------------------------------------------

 L = 1.  Multiply by 2.5417464519 to convert [e a0] to [Debye]
 Dipole X            :          0.0000000            0.0000000            0.0000000
 Dipole Y            :          0.0000000            0.0000000            0.0000000
 Dipole Z            :         -0.2431599           -0.9416478           -1.1848078
 Magnitude           :                                                    1.1848078

 ------------------------------------------------------------------------------------

*** tstop() called on Joses-MacBook-Pro-2.local at Wed Jul 16 19:26:49 2025
Module time:
	user time   =       3.12 seconds =       0.05 minutes
	system time =       3.34 seconds =       0.06 minutes
	total time  =          1 seconds =       0.02 minutes
Total time:
	user time   =      64.02 seconds =       1.07 minutes
	system time =      48.12 seconds =       0.80 minutes
	total time  =         12 seconds =       0.20 minutes

*** tstart() called on Joses-MacBook-Pro-2.local
*** at Wed Jul 16 19:26:49 2025

         ------------------------------------------------------------
                                   SCF GRAD
                          Rob Parrish, Justin Turney,
                       Andy Simmonett, and Alex Sokolov
         ------------------------------------------------------------

  ==> Geometry <==

    Molecular point group: c2v
    Full point group: C_inf_v

    Geometry (in Angstrom), charge = 0, multiplicity = 2:

       Center              X                  Y                   Z               Mass
    ------------   -----------------  -----------------  -----------------  -----------------
         F            0.000000000000     0.000000000000     0.986484169744    18.998403162730
         MG           0.000000000000     0.000000000000    -0.781388008710    23.985041697000

  Nuclear repulsion =   32.327641923953372

  ==> Basis Set <==

  Basis Set: CC-PVDZ
    Blend: CC-PVDZ
    Number of shells: 14
    Number of basis functions: 32
    Number of Cartesian functions: 34
    Spherical Harmonics?: true
    Max angular momentum: 2

  ==> DFJKGrad: Density-Fitted SCF Gradients <==

    Gradient:                    1
    J tasked:                  Yes
    K tasked:                  Yes
    wK tasked:                  No
    OpenMP threads:              1
    Integrals threads:           1
    Memory [MiB]:              375
    Schwarz Cutoff:          1E-12
    Fitting Condition:       1E-10

   => Auxiliary Basis Set <=

  Basis Set: (CC-PVDZ AUX)
    Blend: CC-PVDZ-JKFIT + DEF2-UNIVERSAL-JKFIT
    Number of shells: 58
    Number of basis functions: 182
    Number of Cartesian functions: 218
    Spherical Harmonics?: true
    Max angular momentum: 4

  ==> DFT Potential <==

   => LibXC <=

    Version 6.2.2
    S. Lehtola, C. Steigemann, M. J.T. Oliveira, and M. A.L. Marques.,  SoftwareX 7, 1â€“5 (2018) (10.1016/j.softx.2017.11.002)

   => Composite Functional: B3LYP <=

    B3LYP Hyb-GGA Exchange-Correlation Functional

    P. J. Stephens, F. J. Devlin, C. F. Chabalowski, and M. J. Frisch.,  J. Phys. Chem. 98, 11623 (1994) (10.1021/j100096a001)

    Deriv               =              1
    GGA                 =           TRUE
    Meta                =          FALSE

    Exchange Hybrid     =           TRUE
    MP2 Hybrid          =          FALSE

   => Exchange Functionals <=

    0.0800   Slater exchange
    0.7200         Becke 88

   => Exact (HF) Exchange <=

    0.2000               HF

   => Correlation Functionals <=

    0.1900   Vosko, Wilk & Nusair (VWN5_RPA)
    0.8100   Lee, Yang & Parr

   => LibXC Density Thresholds  <==

    XC_HYB_GGA_XC_B3LYP:  1.00E-15

   => Molecular Quadrature <=

    Radial Scheme          =       TREUTLER
    Pruning Scheme         =           NONE
    Nuclear Scheme         =       TREUTLER

    Blocking Scheme        =         OCTREE
    BS radius alpha        =              1
    Pruning alpha          =              1
    Radial Points          =             75
    Spherical Points       =            302
    Total Points           =          43415
    Total Blocks           =            406
    Max Points             =            256
    Max Functions          =             32
    Weights Tolerance      =       1.00E-15

  -Total Gradient:
     Atom            X                  Y                   Z
    ------   -----------------  -----------------  -----------------
       1        0.000000000000     0.000000000000    -0.000370766567
       2        0.000000000000     0.000000000000     0.000184854118

*** tstop() called on Joses-MacBook-Pro-2.local at Wed Jul 16 19:26:49 2025
Module time:
	user time   =       1.10 seconds =       0.02 minutes
	system time =       1.70 seconds =       0.03 minutes
	total time  =          0 seconds =       0.00 minutes
Total time:
	user time   =      65.12 seconds =       1.09 minutes
	system time =      49.83 seconds =       0.83 minutes
	total time  =         12 seconds =       0.20 minutes

    			-----------------------------------------

    			 OPTKING 3.0: for geometry optimizations

    			     By R.A. King, Bethel University

    			        with contributions from

    			    A.V. Copan, J. Cayton, A. Heide

    			-----------------------------------------

	                            ===> Fragment 1 <==

	 Z (Atomic Numbers)          Masses                          Geom
	       9.000000            18.998403          0.00000000  0.00000000  1.86418491
	      12.000000            23.985042          0.00000000  0.00000000 -1.47660933

	 - Coordinate -           - BOHR/RAD -       - ANG/DEG -
	 R(1,2)           =         3.340794           1.767872

	        --- Internal Coordinate Step in ANG or DEG, aJ/ANG or AJ/DEG ---
	-------------------------------------------------------------------------------
	           Coordinate      Previous         Force          Change          New
	           ----------      --------        ------          ------        ------
	               R(1,2)       1.76787        0.00229        0.00063       1.76850
	-------------------------------------------------------------------------------

	                                 ==> Convergence Check <==

	Measures of convergence in internal coordinates in au.

	Criteria marked as inactive (o), active & met (*), and active & unmet ( ).

	----------------------------------------------------------------------------------------------
	   Step    Total Energy     Delta E     Max Force     RMS Force      Max Disp      RMS Disp
	----------------------------------------------------------------------------------------------
	  Convergence Criteria     1.00e-06 *    3.00e-04 *             o    1.20e-03 *             o
	----------------------------------------------------------------------------------------------
	    11    -299.97544135   -5.01e-06      2.78e-04 *    2.78e-04 o    1.18e-03 *    1.18e-03 o  ~
	----------------------------------------------------------------------------------------------

Next Geometry in Ang
	Fragment 1 (Ang)

	    F   0.0000000000   0.0000000000   0.9867970840
	   Mg   0.0000000000   0.0000000000  -0.7817009230

    Final optimized geometry and variables:
    Molecular point group: c2v
    Full point group: C_inf_v

    Geometry (in Angstrom), charge = 0, multiplicity = 2:

    F            0.000000000000     0.000000000000     0.986484169744
    MG           0.000000000000     0.000000000000    -0.781388008710

    Psi4 stopped on: Wednesday, 16 July 2025 07:26PM
    Psi4 wall time for execution: 0:00:12.05

*** Psi4 exiting successfully. Buy a developer a beer!
