                               Psi4 1.9.1 release

  ==> Input File <==

--------------------------------------------------------------------------
molecule {
0 2
B   0.00000        0.60000        0.00000
S   0.00000       -0.60000        0.00000
}

set {
basis              cc-pvdz
reference          uks
maxiter            500
geom_maxiter       500
DAMPING_PERCENTAGE 1
guess              SAP
}

optimize('b3lyp')
--------------------------------------------------------------------------

    Molecular point group: c2v
  Charge       = 0
  Multiplicity = 2
  Basis Set: CC-PVDZ
    Blend: CC-PVDZ
  Basis Set: (CC-PVDZ AUX)
    Blend: CC-PVDZ-JKFIT
  @DF-UKS Final Energy:  -422.68162702047323
    Total Energy =                       -422.6816270204732291
 Dipole X            :          0.0000000            0.0000000            0.0000000
 Dipole Y            :          0.0000000            0.0000000            0.0000000
 Dipole Z            :          0.6953395           -0.8593730           -0.1640334
 Magnitude           :                                                    0.1640334
    Molecular point group: c2v
  Basis Set: CC-PVDZ
    Blend: CC-PVDZ
  Basis Set: (CC-PVDZ AUX)
    Blend: CC-PVDZ-JKFIT
  Basis Set: CC-PVDZ
    Blend: CC-PVDZ
  Basis Set: (CC-PVDZ AUX)
    Blend: CC-PVDZ-JKFIT
  @DF-UKS Final Energy:  -422.87630290477478
    Total Energy =                       -422.8763029047747750
  Basis Set: CC-PVDZ
    Blend: CC-PVDZ
  Basis Set: (CC-PVDZ AUX)
    Blend: CC-PVDZ-JKFIT
  Basis Set: CC-PVDZ
    Blend: CC-PVDZ
  @DF-UKS Final Energy:  -422.95841097100083
    Total Energy =                       -422.9584109710008875
  @DF-UKS Final Energy:  -422.98059009173181
    Total Energy =                       -422.9805900917318127
  @DF-UKS Final Energy:  -422.98977914445453
    Total Energy =                       -422.9897791444545305
  @DF-UKS Final Energy:  -422.99189810894751
    Total Energy =                       -422.9918981089474528
  @DF-UKS Final Energy:  -422.99256410233926
    Total Energy =                       -422.9925641023392586
  @DF-UKS Final Energy:  -422.99265118426695
    Total Energy =                       -422.9926511842669470
  Basis Set: (CC-PVDZ AUX)
    Blend: CC-PVDZ-JKFIT
  Basis Set: CC-PVDZ
    Blend: CC-PVDZ
  Basis Set: (CC-PVDZ AUX)
    Blend: CC-PVDZ-JKFIT
  @DF-UKS Final Energy:  -422.99266427594029
    Total Energy =                       -422.9926642759402284
  Basis Set: CC-PVDZ
    Blend: CC-PVDZ
  Basis Set: (CC-PVDZ AUX)
    Blend: CC-PVDZ-JKFIT
  Charge       = 0
  Multiplicity = 2
  Basis Set: CC-PVDZ
    Blend: CC-PVDZ
  Basis Set: (CC-PVDZ AUX)
    Blend: CC-PVDZ-JKFIT

    Orbital Energies [Eh]
    ---------------------

    Alpha Occupied:

       1A1   -88.887969     2A1    -7.952292     3A1    -6.860740
       4A1    -5.914691     1B1    -5.910529     1B2    -5.910529
       5A1    -0.741680     6A1    -0.433845     7A1    -0.309515
       2B1    -0.306268     2B2    -0.306268

    Alpha Virtual:

       3B1    -0.061105     3B2    -0.061105     8A1     0.134222
       9A1     0.233106     4B1     0.272107     4B2     0.272107
      10A1     0.309844    11A1     0.475718     5B2     0.487543
       5B1     0.487543    12A1     0.539025     1A2     0.539026
       6B2     0.581832     6B1     0.581832    13A1     0.760631
      14A1     0.761110     2A2     0.761111    15A1     1.035022
       7B1     1.057917     7B2     1.057917    16A1     1.311206

    Beta Occupied:

       1A1   -88.887611     2A1    -7.951931     3A1    -6.846967
       4A1    -5.911713     1B1    -5.911218     1B2    -5.911218
       5A1    -0.734614     6A1    -0.411039     2B1    -0.303554
       2B2    -0.303554

    Beta Virtual:

       7A1    -0.153292     3B1    -0.035659     3B2    -0.035659
       8A1     0.146856     9A1     0.245722     4B1     0.283299
       4B2     0.283299    10A1     0.365485    11A1     0.499606
       5B2     0.503090     5B1     0.503090    12A1     0.542212
       1A2     0.542212     6B2     0.595774     6B1     0.595774
      13A1     0.772857    14A1     0.778016     2A2     0.778017
      15A1     1.065336     7B1     1.090538     7B2     1.090538
      16A1     1.336324

    Final Occupation by Irrep:
             A1    A2    B1    B2
    DOCC [     6,    0,    2,    2 ]
    SOCC [     1,    0,    0,    0 ]
    NA   [     7,    0,    2,    2 ]
    NB   [     6,    0,    2,    2 ]

  @DF-UKS Final Energy:  -422.99266518135562

   => Energetics <=

    Nuclear Repulsion Energy =             26.0181082200958045
    One-Electron Energy =                -634.2696936671776484
    Two-Electron Energy =                 209.1768756478741693
    DFT Exchange-Correlation Energy =     -23.9179553821479125
    Empirical Dispersion Energy =           0.0000000000000000
    VV10 Nonlocal Energy =                  0.0000000000000000
    Total Energy =                       -422.9926651813556191

  UHF NO Occupations:
  HONO-2 :    2 B2 1.9974678
  HONO-1 :    2 B1 1.9974678
  HONO-0 :    7 A1 1.0000000
  LUNO+0 :    3 B1 0.0025322
  LUNO+1 :    3 B2 0.0025322
  LUNO+2 :    8 A1 0.0003684
  LUNO+3 :    9 A1 0.0000520

Computation Completed

Properties will be evaluated at   0.000000,   0.000000,   0.000000 [a0]

Properties computed using the SCF density matrix

 Multipole Moments:

 ------------------------------------------------------------------------------------
     Multipole            Electronic (a.u.)      Nuclear  (a.u.)        Total (a.u.)
 ------------------------------------------------------------------------------------

 L = 1.  Multiply by 2.5417464519 to convert [e a0] to [Debye]
 Dipole X            :          0.0000000            0.0000000            0.0000000
 Dipole Y            :          0.0000000            0.0000000            0.0000000
 Dipole Z            :          1.4868922           -1.1652412            0.3216510
 Magnitude           :                                                    0.3216510

 ------------------------------------------------------------------------------------

*** tstop() called on Joses-MacBook-Pro-2.local at Wed Jul 16 18:56:45 2025
Module time:
	user time   =       2.16 seconds =       0.04 minutes
	system time =       4.31 seconds =       0.07 minutes
	total time  =          1 seconds =       0.02 minutes
Total time:
	user time   =      59.65 seconds =       0.99 minutes
	system time =      56.56 seconds =       0.94 minutes
	total time  =         13 seconds =       0.22 minutes

*** tstart() called on Joses-MacBook-Pro-2.local
*** at Wed Jul 16 18:56:45 2025

         ------------------------------------------------------------
                                   SCF GRAD
                          Rob Parrish, Justin Turney,
                       Andy Simmonett, and Alex Sokolov
         ------------------------------------------------------------

  ==> Geometry <==

    Molecular point group: c2v
    Full point group: C_inf_v

    Geometry (in Angstrom), charge = 0, multiplicity = 2:

       Center              X                  Y                   Z               Mass
    ------------   -----------------  -----------------  -----------------  -----------------
         B            0.000000000000     0.000000000000     1.210335731955    11.009305360000
         S            0.000000000000     0.000000000000    -0.416768609970    31.972071174400

  Nuclear repulsion =   26.018108220095804

  ==> Basis Set <==

  Basis Set: CC-PVDZ
    Blend: CC-PVDZ
    Number of shells: 14
    Number of basis functions: 32
    Number of Cartesian functions: 34
    Spherical Harmonics?: true
    Max angular momentum: 2

  ==> DFJKGrad: Density-Fitted SCF Gradients <==

    Gradient:                    1
    J tasked:                  Yes
    K tasked:                  Yes
    wK tasked:                  No
    OpenMP threads:              1
    Integrals threads:           1
    Memory [MiB]:              375
    Schwarz Cutoff:          1E-12
    Fitting Condition:       1E-10

   => Auxiliary Basis Set <=

  Basis Set: (CC-PVDZ AUX)
    Blend: CC-PVDZ-JKFIT
    Number of shells: 60
    Number of basis functions: 182
    Number of Cartesian functions: 211
    Spherical Harmonics?: true
    Max angular momentum: 3

  ==> DFT Potential <==

   => LibXC <=

    Version 6.2.2
    S. Lehtola, C. Steigemann, M. J.T. Oliveira, and M. A.L. Marques.,  SoftwareX 7, 1â€“5 (2018) (10.1016/j.softx.2017.11.002)

   => Composite Functional: B3LYP <=

    B3LYP Hyb-GGA Exchange-Correlation Functional

    P. J. Stephens, F. J. Devlin, C. F. Chabalowski, and M. J. Frisch.,  J. Phys. Chem. 98, 11623 (1994) (10.1021/j100096a001)

    Deriv               =              1
    GGA                 =           TRUE
    Meta                =          FALSE

    Exchange Hybrid     =           TRUE
    MP2 Hybrid          =          FALSE

   => Exchange Functionals <=

    0.0800   Slater exchange
    0.7200         Becke 88

   => Exact (HF) Exchange <=

    0.2000               HF

   => Correlation Functionals <=

    0.1900   Vosko, Wilk & Nusair (VWN5_RPA)
    0.8100   Lee, Yang & Parr

   => LibXC Density Thresholds  <==

    XC_HYB_GGA_XC_B3LYP:  1.00E-15

   => Molecular Quadrature <=

    Radial Scheme          =       TREUTLER
    Pruning Scheme         =           NONE
    Nuclear Scheme         =       TREUTLER

    Blocking Scheme        =         OCTREE
    BS radius alpha        =              1
    Pruning alpha          =              1
    Radial Points          =             75
    Spherical Points       =            302
    Total Points           =          41978
    Total Blocks           =            383
    Max Points             =            255
    Max Functions          =             32
    Weights Tolerance      =       1.00E-15

  -Total Gradient:
     Atom            X                  Y                   Z
    ------   -----------------  -----------------  -----------------
       1        0.000000000000    -0.000000000000    -0.000134774466
       2        0.000000000000    -0.000000000000     0.000115709928

*** tstop() called on Joses-MacBook-Pro-2.local at Wed Jul 16 18:56:45 2025
Module time:
	user time   =       1.10 seconds =       0.02 minutes
	system time =       1.06 seconds =       0.02 minutes
	total time  =          0 seconds =       0.00 minutes
Total time:
	user time   =      60.75 seconds =       1.01 minutes
	system time =      57.62 seconds =       0.96 minutes
	total time  =         13 seconds =       0.22 minutes

    			-----------------------------------------

    			 OPTKING 3.0: for geometry optimizations

    			     By R.A. King, Bethel University

    			        with contributions from

    			    A.V. Copan, J. Cayton, A. Heide

    			-----------------------------------------

	                            ===> Fragment 1 <==

	 Z (Atomic Numbers)          Masses                          Geom
	       5.000000            11.009305          0.00000000  0.00000000  2.28720305
	      16.000000            31.972071          0.00000000  0.00000000 -0.78757853

	 - Coordinate -           - BOHR/RAD -       - ANG/DEG -
	 R(1,2)           =         3.074782           1.627104

	        --- Internal Coordinate Step in ANG or DEG, aJ/ANG or AJ/DEG ---
	-------------------------------------------------------------------------------
	           Coordinate      Previous         Force          Change          New
	           ----------      --------        ------          ------        ------
	               R(1,2)       1.62710        0.00103        0.00014       1.62725
	-------------------------------------------------------------------------------

	                                 ==> Convergence Check <==

	Measures of convergence in internal coordinates in au.

	Criteria marked as inactive (o), active & met (*), and active & unmet ( ).

	----------------------------------------------------------------------------------------------
	   Step    Total Energy     Delta E     Max Force     RMS Force      Max Disp      RMS Disp
	----------------------------------------------------------------------------------------------
	  Convergence Criteria     1.00e-06 *    3.00e-04 *             o    1.20e-03 *             o
	----------------------------------------------------------------------------------------------
	    10    -422.99266518   -9.05e-07 *    1.25e-04 *    1.25e-04 o    2.68e-04 *    2.68e-04 o  ~
	----------------------------------------------------------------------------------------------

Next Geometry in Ang
	Fragment 1 (Ang)

	    B   0.0000000000   0.0000000000   1.2104067521
	    S   0.0000000000   0.0000000000  -0.4168396301

    Final optimized geometry and variables:
    Molecular point group: c2v
    Full point group: C_inf_v

    Geometry (in Angstrom), charge = 0, multiplicity = 2:

    B            0.000000000000     0.000000000000     1.210335731955
    S            0.000000000000     0.000000000000    -0.416768609970

    Psi4 stopped on: Wednesday, 16 July 2025 06:56PM
    Psi4 wall time for execution: 0:00:14.03

*** Psi4 exiting successfully. Buy a developer a beer!
