                               Psi4 1.9.1 release

  ==> Input File <==

--------------------------------------------------------------------------
molecule {
0 2
Li   0.00000        0.60000        0.00000
O   0.00000       -0.60000        0.00000
}

set {
basis              cc-pvdz
reference          uks
maxiter            500
geom_maxiter       500
DAMPING_PERCENTAGE 1
guess              SAP
}

optimize('b3lyp')
--------------------------------------------------------------------------

    Molecular point group: c2v
  Charge       = 0
  Multiplicity = 2
  Basis Set: CC-PVDZ
    Blend: CC-PVDZ
  Basis Set: (CC-PVDZ AUX)
    Blend: CC-PVDZ-JKFIT + DEF2-UNIVERSAL-JKFIT
  @DF-UKS Final Energy:   -82.58252782765656
    Total Energy =                        -82.5825278276565626
 Dipole X            :          0.0000000            0.0000000            0.0000000
 Dipole Y            :          0.0000000            0.0000000            0.0000000
 Dipole Z            :          2.4155011           -0.8025013            1.6129999
 Magnitude           :                                                    1.6129999
    Molecular point group: c2v
  Basis Set: CC-PVDZ
    Blend: CC-PVDZ
  Basis Set: (CC-PVDZ AUX)
    Blend: CC-PVDZ-JKFIT + DEF2-UNIVERSAL-JKFIT
  Basis Set: CC-PVDZ
    Blend: CC-PVDZ
  Basis Set: (CC-PVDZ AUX)
    Blend: CC-PVDZ-JKFIT + DEF2-UNIVERSAL-JKFIT
  @DF-UKS Final Energy:   -82.65550796811277
    Total Energy =                        -82.6555079681127722
  Basis Set: CC-PVDZ
    Blend: CC-PVDZ
  Basis Set: (CC-PVDZ AUX)
    Blend: CC-PVDZ-JKFIT + DEF2-UNIVERSAL-JKFIT
  Basis Set: CC-PVDZ
    Blend: CC-PVDZ
  @DF-UKS Final Energy:   -82.67369813532125
    Total Energy =                        -82.6736981353212457
  @DF-UKS Final Energy:   -82.67883420785118
    Total Energy =                        -82.6788342078511960
  @DF-UKS Final Energy:   -82.68111543922487
    Total Energy =                        -82.6811154392248824
  @DF-UKS Final Energy:   -82.68152982399907
    Total Energy =                        -82.6815298239990568
  @DF-UKS Final Energy:   -82.68161338029209
    Total Energy =                        -82.6816133802920916
  Basis Set: (CC-PVDZ AUX)
    Blend: CC-PVDZ-JKFIT + DEF2-UNIVERSAL-JKFIT
  Basis Set: CC-PVDZ
    Blend: CC-PVDZ
  Basis Set: (CC-PVDZ AUX)
    Blend: CC-PVDZ-JKFIT + DEF2-UNIVERSAL-JKFIT
  @DF-UKS Final Energy:   -82.68163381309176
    Total Energy =                        -82.6816338130917501
  Basis Set: CC-PVDZ
    Blend: CC-PVDZ
  Basis Set: (CC-PVDZ AUX)
    Blend: CC-PVDZ-JKFIT + DEF2-UNIVERSAL-JKFIT
  Charge       = 0
  Multiplicity = 2
  Basis Set: CC-PVDZ
    Blend: CC-PVDZ
  Basis Set: (CC-PVDZ AUX)
    Blend: CC-PVDZ-JKFIT + DEF2-UNIVERSAL-JKFIT

    Orbital Energies [Eh]
    ---------------------

    Alpha Occupied:

       1A1   -19.093583     2A1    -2.028179     3A1    -0.847031
       4A1    -0.324615     1B1    -0.243133     1B2    -0.243133

    Alpha Virtual:

       5A1    -0.054736     2B2     0.010876     2B1     0.010876
       6A1     0.036781     7A1     0.091544     3B2     0.103607
       3B1     0.103607     8A1     0.200297     1A2     0.251014
       9A1     0.251020     4B2     0.308789     4B1     0.308789
      10A1     0.379348    11A1     1.031250     5B2     1.163826
       5B1     1.163826    12A1     1.850225    13A1     2.586463
       6B2     2.639768     6B1     2.639768    14A1     2.688139
       2A2     2.688189

    Beta Occupied:

       1A1   -19.068974     2A1    -2.025009     3A1    -0.768637
       1B1    -0.215674     1B2    -0.215674

    Beta Virtual:

       4A1    -0.092188     5A1    -0.051343     2B2     0.011915
       2B1     0.011915     6A1     0.038824     7A1     0.092941
       3B2     0.104712     3B1     0.104712     8A1     0.217695
       9A1     0.250834     1A2     0.250834     4B2     0.312694
       4B1     0.312694    10A1     0.389119    11A1     1.125708
       5B2     1.180834     5B1     1.180834    12A1     1.886970
      13A1     2.699017    14A1     2.704587     2A2     2.704636
       6B2     2.720737     6B1     2.720737

    Final Occupation by Irrep:
             A1    A2    B1    B2
    DOCC [     3,    0,    1,    1 ]
    SOCC [     1,    0,    0,    0 ]
    NA   [     4,    0,    1,    1 ]
    NB   [     3,    0,    1,    1 ]

  @DF-UKS Final Energy:   -82.68163583255846

   => Energetics <=

    Nuclear Repulsion Energy =              7.8852174474088086
    One-Electron Energy =                -129.9695954019435931
    Two-Electron Energy =                  47.8651880626731838
    DFT Exchange-Correlation Energy =      -8.4624459406968473
    Empirical Dispersion Energy =           0.0000000000000000
    VV10 Nonlocal Energy =                  0.0000000000000000
    Total Energy =                        -82.6816358325584559

  UHF NO Occupations:
  HONO-2 :    1 B2 1.9991155
  HONO-1 :    1 B1 1.9991155
  HONO-0 :    4 A1 1.0000000
  LUNO+0 :    2 B2 0.0008845
  LUNO+1 :    2 B1 0.0008845
  LUNO+2 :    5 A1 0.0004817
  LUNO+3 :    6 A1 0.0000003

Computation Completed

Properties will be evaluated at   0.000000,   0.000000,   0.000000 [a0]

Properties computed using the SCF density matrix

 Multipole Moments:

 ------------------------------------------------------------------------------------
     Multipole            Electronic (a.u.)      Nuclear  (a.u.)        Total (a.u.)
 ------------------------------------------------------------------------------------

 L = 1.  Multiply by 2.5417464519 to convert [e a0] to [Debye]
 Dipole X            :          0.0000000            0.0000000            0.0000000
 Dipole Y            :          0.0000000            0.0000000            0.0000000
 Dipole Z            :          3.2371708           -1.0771178            2.1600531
 Magnitude           :                                                    2.1600531

 ------------------------------------------------------------------------------------

*** tstop() called on Joses-MacBook-Pro-2.local at Wed Jul 16 18:30:36 2025
Module time:
	user time   =       3.26 seconds =       0.05 minutes
	system time =       2.75 seconds =       0.05 minutes
	total time  =          0 seconds =       0.00 minutes
Total time:
	user time   =      37.83 seconds =       0.63 minutes
	system time =      39.40 seconds =       0.66 minutes
	total time  =          7 seconds =       0.12 minutes

*** tstart() called on Joses-MacBook-Pro-2.local
*** at Wed Jul 16 18:30:36 2025

         ------------------------------------------------------------
                                   SCF GRAD
                          Rob Parrish, Justin Turney,
                       Andy Simmonett, and Alex Sokolov
         ------------------------------------------------------------

  ==> Geometry <==

    Molecular point group: c2v
    Full point group: C_inf_v

    Geometry (in Angstrom), charge = 0, multiplicity = 2:

       Center              X                  Y                   Z               Mass
    ------------   -----------------  -----------------  -----------------  -----------------
         LI           0.000000000000     0.000000000000     1.119558213892     7.016003436600
         O            0.000000000000     0.000000000000    -0.491082601125    15.994914619570

  Nuclear repulsion =    7.885217447408809

  ==> Basis Set <==

  Basis Set: CC-PVDZ
    Blend: CC-PVDZ
    Number of shells: 12
    Number of basis functions: 28
    Number of Cartesian functions: 30
    Spherical Harmonics?: true
    Max angular momentum: 2

  ==> DFJKGrad: Density-Fitted SCF Gradients <==

    Gradient:                    1
    J tasked:                  Yes
    K tasked:                  Yes
    wK tasked:                  No
    OpenMP threads:              1
    Integrals threads:           1
    Memory [MiB]:              375
    Schwarz Cutoff:          1E-12
    Fitting Condition:       1E-10

   => Auxiliary Basis Set <=

  Basis Set: (CC-PVDZ AUX)
    Blend: CC-PVDZ-JKFIT + DEF2-UNIVERSAL-JKFIT
    Number of shells: 41
    Number of basis functions: 121
    Number of Cartesian functions: 141
    Spherical Harmonics?: true
    Max angular momentum: 3

  ==> DFT Potential <==

   => LibXC <=

    Version 6.2.2
    S. Lehtola, C. Steigemann, M. J.T. Oliveira, and M. A.L. Marques.,  SoftwareX 7, 1â€“5 (2018) (10.1016/j.softx.2017.11.002)

   => Composite Functional: B3LYP <=

    B3LYP Hyb-GGA Exchange-Correlation Functional

    P. J. Stephens, F. J. Devlin, C. F. Chabalowski, and M. J. Frisch.,  J. Phys. Chem. 98, 11623 (1994) (10.1021/j100096a001)

    Deriv               =              1
    GGA                 =           TRUE
    Meta                =          FALSE

    Exchange Hybrid     =           TRUE
    MP2 Hybrid          =          FALSE

   => Exchange Functionals <=

    0.0800   Slater exchange
    0.7200         Becke 88

   => Exact (HF) Exchange <=

    0.2000               HF

   => Correlation Functionals <=

    0.1900   Vosko, Wilk & Nusair (VWN5_RPA)
    0.8100   Lee, Yang & Parr

   => LibXC Density Thresholds  <==

    XC_HYB_GGA_XC_B3LYP:  1.00E-15

   => Molecular Quadrature <=

    Radial Scheme          =       TREUTLER
    Pruning Scheme         =           NONE
    Nuclear Scheme         =       TREUTLER

    Blocking Scheme        =         OCTREE
    BS radius alpha        =              1
    Pruning alpha          =              1
    Radial Points          =             75
    Spherical Points       =            302
    Total Points           =          44266
    Total Blocks           =            419
    Max Points             =            256
    Max Functions          =             28
    Weights Tolerance      =       1.00E-15

  -Total Gradient:
     Atom            X                  Y                   Z
    ------   -----------------  -----------------  -----------------
       1       -0.000000000000    -0.000000000000    -0.000143049419
       2       -0.000000000000     0.000000000000     0.000205639625

*** tstop() called on Joses-MacBook-Pro-2.local at Wed Jul 16 18:30:37 2025
Module time:
	user time   =       0.44 seconds =       0.01 minutes
	system time =       1.19 seconds =       0.02 minutes
	total time  =          1 seconds =       0.02 minutes
Total time:
	user time   =      38.27 seconds =       0.64 minutes
	system time =      40.60 seconds =       0.68 minutes
	total time  =          8 seconds =       0.13 minutes

    			-----------------------------------------

    			 OPTKING 3.0: for geometry optimizations

    			     By R.A. King, Bethel University

    			        with contributions from

    			    A.V. Copan, J. Cayton, A. Heide

    			-----------------------------------------

	                            ===> Fragment 1 <==

	 Z (Atomic Numbers)          Masses                          Geom
	       3.000000             7.016003          0.00000000  0.00000000  2.11565841
	       8.000000            15.994915          0.00000000  0.00000000 -0.92801162

	 - Coordinate -           - BOHR/RAD -       - ANG/DEG -
	 R(1,2)           =         3.043670           1.610641

	        --- Internal Coordinate Step in ANG or DEG, aJ/ANG or AJ/DEG ---
	-------------------------------------------------------------------------------
	           Coordinate      Previous         Force          Change          New
	           ----------      --------        ------          ------        ------
	               R(1,2)       1.61064        0.00144        0.00053       1.61118
	-------------------------------------------------------------------------------

	                                 ==> Convergence Check <==

	Measures of convergence in internal coordinates in au.

	Criteria marked as inactive (o), active & met (*), and active & unmet ( ).

	----------------------------------------------------------------------------------------------
	   Step    Total Energy     Delta E     Max Force     RMS Force      Max Disp      RMS Disp
	----------------------------------------------------------------------------------------------
	  Convergence Criteria     1.00e-06 *    3.00e-04 *             o    1.20e-03 *             o
	----------------------------------------------------------------------------------------------
	     9     -82.68163583   -2.02e-06      1.74e-04 *    1.74e-04 o    1.01e-03 *    1.01e-03 o  ~
	----------------------------------------------------------------------------------------------

Next Geometry in Ang
	Fragment 1 (Ang)

	   Li   0.0000000000   0.0000000000   1.1198255228
	    O   0.0000000000   0.0000000000  -0.4913499100

    Final optimized geometry and variables:
    Molecular point group: c2v
    Full point group: C_inf_v

    Geometry (in Angstrom), charge = 0, multiplicity = 2:

    LI           0.000000000000     0.000000000000     1.119558213892
    O            0.000000000000     0.000000000000    -0.491082601125

    Psi4 stopped on: Wednesday, 16 July 2025 06:30PM
    Psi4 wall time for execution: 0:00:08.03

*** Psi4 exiting successfully. Buy a developer a beer!
