                               Psi4 1.9.1 release

  ==> Input File <==

--------------------------------------------------------------------------
molecule {
0 2
Ne   0.00000        0.60000        0.00000
Al   0.00000       -0.60000        0.00000
}

set {
basis              cc-pvdz
reference          uks
maxiter            500
geom_maxiter       500
DAMPING_PERCENTAGE 1
guess              SAP
}

optimize('b3lyp')
--------------------------------------------------------------------------

    Molecular point group: c2v
  Charge       = 0
  Multiplicity = 2
  Basis Set: CC-PVDZ
    Blend: CC-PVDZ
  Basis Set: (CC-PVDZ AUX)
    Blend: CC-PVDZ-JKFIT
  @DF-UKS Final Energy:  -370.81361995813580
    Total Energy =                       -370.8136199581358596
 Dipole X            :          0.0000000            0.0000000            0.0000000
 Dipole Y            :          0.0000000            0.0000000            0.0000000
 Dipole Z            :          0.7123289            0.4785826            1.1909115
 Magnitude           :                                                    1.1909115
    Molecular point group: c2v
  Basis Set: CC-PVDZ
    Blend: CC-PVDZ
  Basis Set: (CC-PVDZ AUX)
    Blend: CC-PVDZ-JKFIT
  Basis Set: CC-PVDZ
    Blend: CC-PVDZ
  Basis Set: (CC-PVDZ AUX)
    Blend: CC-PVDZ-JKFIT
  @DF-UKS Final Energy:  -371.02512887342419
    Total Energy =                       -371.0251288734241939
  Basis Set: CC-PVDZ
    Blend: CC-PVDZ
  Basis Set: (CC-PVDZ AUX)
    Blend: CC-PVDZ-JKFIT
  Basis Set: CC-PVDZ
    Blend: CC-PVDZ
  @DF-UKS Final Energy:  -371.13901089411422
    Total Energy =                       -371.1390108941142216
  @DF-UKS Final Energy:  -371.20567477104748
    Total Energy =                       -371.2056747710474838
  @DF-UKS Final Energy:  -371.24505965384316
    Total Energy =                       -371.2450596538431000
  @DF-UKS Final Energy:  -371.26768865039929
    Total Energy =                       -371.2676886503992932
  @DF-UKS Final Energy:  -371.28077340486487
    Total Energy =                       -371.2807734048648172
  @DF-UKS Final Energy:  -371.28813169096100
    Total Energy =                       -371.2881316909609950
  @DF-UKS Final Energy:  -371.29204568113670
    Total Energy =                       -371.2920456811366989
  @DF-UKS Final Energy:  -371.29394034173748
    Total Energy =                       -371.2939403417374820
  @DF-UKS Final Energy:  -371.29473428870176
    Total Energy =                       -371.2947342887017612
  @DF-UKS Final Energy:  -371.29499729713069
    Total Energy =                       -371.2949972971306352
  @DF-UKS Final Energy:  -371.29505875171753
    Total Energy =                       -371.2950587517175336
  Basis Set: (CC-PVDZ AUX)
    Blend: CC-PVDZ-JKFIT
  Basis Set: CC-PVDZ
    Blend: CC-PVDZ
  Basis Set: (CC-PVDZ AUX)
    Blend: CC-PVDZ-JKFIT
  @DF-UKS Final Energy:  -371.29506466943695
    Total Energy =                       -371.2950646694368970
  Basis Set: CC-PVDZ
    Blend: CC-PVDZ
  Basis Set: (CC-PVDZ AUX)
    Blend: CC-PVDZ-JKFIT
  Charge       = 0
  Multiplicity = 2
  Basis Set: CC-PVDZ
    Blend: CC-PVDZ
  Basis Set: (CC-PVDZ AUX)
    Blend: CC-PVDZ-JKFIT

    Orbital Energies [Eh]
    ---------------------

    Alpha Occupied:

       1A1   -56.068680     2A1   -30.986351     3A1    -4.148637
       4A1    -2.702196     1B1    -2.702119     1B2    -2.699002
       5A1    -1.449770     6A1    -0.560984     2B1    -0.557464
       2B2    -0.557161     7A1    -0.316131     3B2    -0.129391

    Alpha Virtual:

       3B1    -0.073077     8A1    -0.066897     9A1     0.167180
       4B2     0.214683     4B1     0.223939    10A1     0.228496
       5B2     0.259185     1A2     0.259382    11A1     0.263453
       5B1     0.271590    12A1     0.277579     6B1     1.352709
       6B2     1.353488    13A1     1.397585    14A1     1.916128
       7B1     4.706856     7B2     4.707094    15A1     4.707769
       2A2     4.707916    16A1     4.708345

    Beta Occupied:

       1A1   -56.066814     2A1   -30.986309     3A1    -4.146403
       4A1    -2.701170     1B1    -2.701094     1B2    -2.691554
       5A1    -1.449701     6A1    -0.561011     2B1    -0.557446
       2B2    -0.556918     7A1    -0.291133

    Beta Virtual:

       3B1    -0.067508     8A1    -0.061035     3B2    -0.042721
       9A1     0.176579     4B1     0.225725    10A1     0.230602
       4B2     0.244851     5B1     0.272274    11A1     0.277397
       5B2     0.293896     1A2     0.294036    12A1     0.303736
       6B1     1.352700     6B2     1.353734    13A1     1.397787
      14A1     1.916519     7B1     4.706853     7B2     4.707180
      15A1     4.707773     2A2     4.708019    16A1     4.708466

    Final Occupation by Irrep:
             A1    A2    B1    B2
    DOCC [     7,    0,    2,    2 ]
    SOCC [     0,    0,    0,    1 ]
    NA   [     7,    0,    2,    3 ]
    NB   [     7,    0,    2,    2 ]

  @DF-UKS Final Energy:  -371.29506551044767

   => Energetics <=

    Nuclear Repulsion Energy =             22.4731406742747204
    One-Electron Energy =                -564.0285150794878746
    Two-Electron Energy =                 195.3422262898216957
    DFT Exchange-Correlation Energy =     -25.0819173950562195
    Empirical Dispersion Energy =           0.0000000000000000
    VV10 Nonlocal Energy =                  0.0000000000000000
    Total Energy =                       -371.2950655104476141

  UHF NO Occupations:
  HONO-2 :    2 B2 1.9999999
  HONO-1 :    7 A1 1.9980070
  HONO-0 :    3 B2 1.0000000
  LUNO+0 :    8 A1 0.0019930
  LUNO+1 :    4 B2 0.0000001
  LUNO+2 :    9 A1 0.0000001
  LUNO+3 :    3 B1 0.0000000

Computation Completed

Properties will be evaluated at   0.000000,   0.000000,   0.000000 [a0]

Properties computed using the SCF density matrix

 Multipole Moments:

 ------------------------------------------------------------------------------------
     Multipole            Electronic (a.u.)      Nuclear  (a.u.)        Total (a.u.)
 ------------------------------------------------------------------------------------

 L = 1.  Multiply by 2.5417464519 to convert [e a0] to [Debye]
 Dipole X            :          0.0000000            0.0000000            0.0000000
 Dipole Y            :          0.0000000            0.0000000            0.0000000
 Dipole Z            :         -1.0937688            1.2208334            0.1270646
 Magnitude           :                                                    0.1270646

 ------------------------------------------------------------------------------------

*** tstop() called on Joses-MacBook-Pro-2.local at Wed Jul 16 19:34:24 2025
Module time:
	user time   =       3.92 seconds =       0.07 minutes
	system time =       2.29 seconds =       0.04 minutes
	total time  =          1 seconds =       0.02 minutes
Total time:
	user time   =      72.33 seconds =       1.21 minutes
	system time =      78.27 seconds =       1.30 minutes
	total time  =         14 seconds =       0.23 minutes

*** tstart() called on Joses-MacBook-Pro-2.local
*** at Wed Jul 16 19:34:24 2025

         ------------------------------------------------------------
                                   SCF GRAD
                          Rob Parrish, Justin Turney,
                       Andy Simmonett, and Alex Sokolov
         ------------------------------------------------------------

  ==> Geometry <==

    Molecular point group: c2v
    Full point group: C_inf_v

    Geometry (in Angstrom), charge = 0, multiplicity = 2:

       Center              X                  Y                   Z               Mass
    ------------   -----------------  -----------------  -----------------  -----------------
         NE           0.000000000000     0.000000000000     1.758288268149    19.992440176200
         AL           0.000000000000     0.000000000000    -1.302834268491    26.981538530000

  Nuclear repulsion =   22.473140674274720

  ==> Basis Set <==

  Basis Set: CC-PVDZ
    Blend: CC-PVDZ
    Number of shells: 14
    Number of basis functions: 32
    Number of Cartesian functions: 34
    Spherical Harmonics?: true
    Max angular momentum: 2

  ==> DFJKGrad: Density-Fitted SCF Gradients <==

    Gradient:                    1
    J tasked:                  Yes
    K tasked:                  Yes
    wK tasked:                  No
    OpenMP threads:              1
    Integrals threads:           1
    Memory [MiB]:              375
    Schwarz Cutoff:          1E-12
    Fitting Condition:       1E-10

   => Auxiliary Basis Set <=

  Basis Set: (CC-PVDZ AUX)
    Blend: CC-PVDZ-JKFIT
    Number of shells: 60
    Number of basis functions: 182
    Number of Cartesian functions: 211
    Spherical Harmonics?: true
    Max angular momentum: 3

  ==> DFT Potential <==

   => LibXC <=

    Version 6.2.2
    S. Lehtola, C. Steigemann, M. J.T. Oliveira, and M. A.L. Marques.,  SoftwareX 7, 1â€“5 (2018) (10.1016/j.softx.2017.11.002)

   => Composite Functional: B3LYP <=

    B3LYP Hyb-GGA Exchange-Correlation Functional

    P. J. Stephens, F. J. Devlin, C. F. Chabalowski, and M. J. Frisch.,  J. Phys. Chem. 98, 11623 (1994) (10.1021/j100096a001)

    Deriv               =              1
    GGA                 =           TRUE
    Meta                =          FALSE

    Exchange Hybrid     =           TRUE
    MP2 Hybrid          =          FALSE

   => Exchange Functionals <=

    0.0800   Slater exchange
    0.7200         Becke 88

   => Exact (HF) Exchange <=

    0.2000               HF

   => Correlation Functionals <=

    0.1900   Vosko, Wilk & Nusair (VWN5_RPA)
    0.8100   Lee, Yang & Parr

   => LibXC Density Thresholds  <==

    XC_HYB_GGA_XC_B3LYP:  1.00E-15

   => Molecular Quadrature <=

    Radial Scheme          =       TREUTLER
    Pruning Scheme         =           NONE
    Nuclear Scheme         =       TREUTLER

    Blocking Scheme        =         OCTREE
    BS radius alpha        =              1
    Pruning alpha          =              1
    Radial Points          =             75
    Spherical Points       =            302
    Total Points           =          43544
    Total Blocks           =            402
    Max Points             =            255
    Max Functions          =             32
    Weights Tolerance      =       1.00E-15

  -Total Gradient:
     Atom            X                  Y                   Z
    ------   -----------------  -----------------  -----------------
       1        0.000000000000     0.000000000000    -0.000029573860
       2        0.000000000000    -0.000000000000     0.000006267736

*** tstop() called on Joses-MacBook-Pro-2.local at Wed Jul 16 19:34:24 2025
Module time:
	user time   =       0.48 seconds =       0.01 minutes
	system time =       2.06 seconds =       0.03 minutes
	total time  =          0 seconds =       0.00 minutes
Total time:
	user time   =      72.82 seconds =       1.21 minutes
	system time =      80.33 seconds =       1.34 minutes
	total time  =         14 seconds =       0.23 minutes

    			-----------------------------------------

    			 OPTKING 3.0: for geometry optimizations

    			     By R.A. King, Bethel University

    			        with contributions from

    			    A.V. Copan, J. Cayton, A. Heide

    			-----------------------------------------

	                            ===> Fragment 1 <==

	 Z (Atomic Numbers)          Masses                          Geom
	      10.000000            19.992440          0.00000000  0.00000000  3.32268328
	      13.000000            26.981539          0.00000000  0.00000000 -2.46199995

	 - Coordinate -           - BOHR/RAD -       - ANG/DEG -
	 R(1,2)           =         5.784683           3.061123

	        --- Internal Coordinate Step in ANG or DEG, aJ/ANG or AJ/DEG ---
	-------------------------------------------------------------------------------
	           Coordinate      Previous         Force          Change          New
	           ----------      --------        ------          ------        ------
	               R(1,2)       3.06112        0.00015        0.00237       3.06350
	-------------------------------------------------------------------------------

	                                 ==> Convergence Check <==

	Measures of convergence in internal coordinates in au.

	Criteria marked as inactive (o), active & met (*), and active & unmet ( ).

	----------------------------------------------------------------------------------------------
	   Step    Total Energy     Delta E     Max Force     RMS Force      Max Disp      RMS Disp
	----------------------------------------------------------------------------------------------
	  Convergence Criteria     1.00e-06 *    3.00e-04 *             o    1.20e-03 *             o
	----------------------------------------------------------------------------------------------
	    15    -371.29506551   -8.41e-07 *    1.79e-05 *    1.79e-05 o    4.49e-03      4.49e-03 o  ~
	----------------------------------------------------------------------------------------------

Next Geometry in Ang
	Fragment 1 (Ang)

	   Ne   0.0000000000   0.0000000000   1.7594752510
	   Al   0.0000000000   0.0000000000  -1.3040212514

    Final optimized geometry and variables:
    Molecular point group: c2v
    Full point group: C_inf_v

    Geometry (in Angstrom), charge = 0, multiplicity = 2:

    NE           0.000000000000     0.000000000000     1.758288268149
    AL           0.000000000000     0.000000000000    -1.302834268491

    Psi4 stopped on: Wednesday, 16 July 2025 07:34PM
    Psi4 wall time for execution: 0:00:15.28

*** Psi4 exiting successfully. Buy a developer a beer!
