                               Psi4 1.9.1 release

  ==> Input File <==

--------------------------------------------------------------------------
molecule {
0 2
N   0.00000        0.60000        0.00000
S   0.00000       -0.60000        0.00000
}

set {
basis              cc-pvdz
reference          uks
maxiter            500
geom_maxiter       500
DAMPING_PERCENTAGE 1
guess              SAP
}

optimize('b3lyp')
--------------------------------------------------------------------------

    Molecular point group: c2v
  Charge       = 0
  Multiplicity = 2
  Basis Set: CC-PVDZ
    Blend: CC-PVDZ
  Basis Set: (CC-PVDZ AUX)
    Blend: CC-PVDZ-JKFIT
  @DF-UKS Final Energy:  -452.67950159746152
    Total Energy =                       -452.6795015974615808
 Dipole X            :          0.0000000            0.0000000            0.0000000
 Dipole Y            :          0.0000000            0.0000000            0.0000000
 Dipole Z            :         -0.7695920           -0.0120688           -0.7816609
 Magnitude           :                                                    0.7816609
    Molecular point group: c2v
  Basis Set: CC-PVDZ
    Blend: CC-PVDZ
  Basis Set: (CC-PVDZ AUX)
    Blend: CC-PVDZ-JKFIT
  Basis Set: CC-PVDZ
    Blend: CC-PVDZ
  Basis Set: (CC-PVDZ AUX)
    Blend: CC-PVDZ-JKFIT
  @DF-UKS Final Energy:  -452.81261286140585
    Total Energy =                       -452.8126128614058530
  Basis Set: CC-PVDZ
    Blend: CC-PVDZ
  Basis Set: (CC-PVDZ AUX)
    Blend: CC-PVDZ-JKFIT
  Basis Set: CC-PVDZ
    Blend: CC-PVDZ
  @DF-UKS Final Energy:  -452.86259017564959
    Total Energy =                       -452.8625901756495864
  @DF-UKS Final Energy:  -452.87502663790218
    Total Energy =                       -452.8750266379021809
  @DF-UKS Final Energy:  -452.87879276317489
    Total Energy =                       -452.8787927631748857
  @DF-UKS Final Energy:  -452.88040562662138
    Total Energy =                       -452.8804056266213820
  @DF-UKS Final Energy:  -452.88072711398274
    Total Energy =                       -452.8807271139827435
  @DF-UKS Final Energy:  -452.88080713114402
    Total Energy =                       -452.8808071311440244
  Basis Set: (CC-PVDZ AUX)
    Blend: CC-PVDZ-JKFIT
  Basis Set: CC-PVDZ
    Blend: CC-PVDZ
  Basis Set: (CC-PVDZ AUX)
    Blend: CC-PVDZ-JKFIT
  @DF-UKS Final Energy:  -452.88081468946314
    Total Energy =                       -452.8808146894631932
  Basis Set: CC-PVDZ
    Blend: CC-PVDZ
  Basis Set: (CC-PVDZ AUX)
    Blend: CC-PVDZ-JKFIT
  Charge       = 0
  Multiplicity = 2
  Basis Set: CC-PVDZ
    Blend: CC-PVDZ
  Basis Set: (CC-PVDZ AUX)
    Blend: CC-PVDZ-JKFIT

    Orbital Energies [Eh]
    ---------------------

    Alpha Occupied:

       1A1   -88.948419     2A1   -14.408053     3A1    -8.010400
       1B2    -5.971995     4A1    -5.971163     1B1    -5.968453
       5A1    -0.939123     6A1    -0.608041     2B1    -0.404849
       2B2    -0.384779     7A1    -0.384123     3B1    -0.215090

    Alpha Virtual:

       3B2    -0.133095     8A1     0.066887     9A1     0.442394
       4B2     0.449676     4B1     0.452665    10A1     0.488993
       1A2     0.543985    11A1     0.545150     5B1     0.597891
       5B2     0.604833    12A1     0.655783     6B1     0.753282
       6B2     0.763616    13A1     1.071575    14A1     1.184234
       2A2     1.725900    15A1     1.728348     7B1     1.954758
       7B2     1.957829    16A1     2.476375

    Beta Occupied:

       1A1   -88.946701     2A1   -14.393234     3A1    -8.008684
       1B2    -5.971908     4A1    -5.970464     1B1    -5.961483
       5A1    -0.915386     6A1    -0.577558     2B2    -0.376067
       7A1    -0.365747     2B1    -0.346468

    Beta Virtual:

       3B2    -0.118012     3B1    -0.082542     8A1     0.076702
       9A1     0.449400     4B2     0.449419     4B1     0.466495
      10A1     0.494012     1A2     0.561407    11A1     0.561415
       5B2     0.608364     5B1     0.635161    12A1     0.666838
       6B2     0.774979     6B1     0.800228    13A1     1.084407
      14A1     1.203836    15A1     1.776790     2A2     1.776812
       7B2     1.967177     7B1     1.997232    16A1     2.496887

    Final Occupation by Irrep:
             A1    A2    B1    B2
    DOCC [     7,    0,    2,    2 ]
    SOCC [     0,    0,    1,    0 ]
    NA   [     7,    0,    3,    2 ]
    NB   [     7,    0,    2,    2 ]

  @DF-UKS Final Energy:  -452.88081496543361

   => Energetics <=

    Nuclear Repulsion Energy =             38.9405855763917899
    One-Electron Energy =                -700.9105487092074327
    Two-Electron Energy =                 235.2958911316642343
    DFT Exchange-Correlation Energy =     -26.2067429642821992
    Empirical Dispersion Energy =           0.0000000000000000
    VV10 Nonlocal Energy =                  0.0000000000000000
    Total Energy =                       -452.8808149654336148

  UHF NO Occupations:
  HONO-2 :    2 B1 1.9989658
  HONO-1 :    2 B2 1.9984234
  HONO-0 :    3 B1 1.0000000
  LUNO+0 :    3 B2 0.0015766
  LUNO+1 :    4 B1 0.0010342
  LUNO+2 :    8 A1 0.0003592
  LUNO+3 :    9 A1 0.0002022

Computation Completed

Properties will be evaluated at   0.000000,   0.000000,   0.000000 [a0]

Properties computed using the SCF density matrix

 Multipole Moments:

 ------------------------------------------------------------------------------------
     Multipole            Electronic (a.u.)      Nuclear  (a.u.)        Total (a.u.)
 ------------------------------------------------------------------------------------

 L = 1.  Multiply by 2.5417464519 to convert [e a0] to [Debye]
 Dipole X            :          0.0000000            0.0000000            0.0000000
 Dipole Y            :          0.0000000            0.0000000            0.0000000
 Dipole Z            :         -0.6385887           -0.0153074           -0.6538961
 Magnitude           :                                                    0.6538961

 ------------------------------------------------------------------------------------

*** tstop() called on Joses-MacBook-Pro-2.local at Wed Jul 16 19:14:02 2025
Module time:
	user time   =       5.94 seconds =       0.10 minutes
	system time =       3.17 seconds =       0.05 minutes
	total time  =          1 seconds =       0.02 minutes
Total time:
	user time   =      81.19 seconds =       1.35 minutes
	system time =      58.26 seconds =       0.97 minutes
	total time  =         14 seconds =       0.23 minutes

*** tstart() called on Joses-MacBook-Pro-2.local
*** at Wed Jul 16 19:14:02 2025

         ------------------------------------------------------------
                                   SCF GRAD
                          Rob Parrish, Justin Turney,
                       Andy Simmonett, and Alex Sokolov
         ------------------------------------------------------------

  ==> Geometry <==

    Molecular point group: c2v
    Full point group: C_inf_v

    Geometry (in Angstrom), charge = 0, multiplicity = 2:

       Center              X                  Y                   Z               Mass
    ------------   -----------------  -----------------  -----------------  -----------------
         N            0.000000000000     0.000000000000     1.058435357470    14.003074004430
         S            0.000000000000     0.000000000000    -0.463571739182    31.972071174400

  Nuclear repulsion =   38.940585576391790

  ==> Basis Set <==

  Basis Set: CC-PVDZ
    Blend: CC-PVDZ
    Number of shells: 14
    Number of basis functions: 32
    Number of Cartesian functions: 34
    Spherical Harmonics?: true
    Max angular momentum: 2

  ==> DFJKGrad: Density-Fitted SCF Gradients <==

    Gradient:                    1
    J tasked:                  Yes
    K tasked:                  Yes
    wK tasked:                  No
    OpenMP threads:              1
    Integrals threads:           1
    Memory [MiB]:              375
    Schwarz Cutoff:          1E-12
    Fitting Condition:       1E-10

   => Auxiliary Basis Set <=

  Basis Set: (CC-PVDZ AUX)
    Blend: CC-PVDZ-JKFIT
    Number of shells: 60
    Number of basis functions: 182
    Number of Cartesian functions: 211
    Spherical Harmonics?: true
    Max angular momentum: 3

  ==> DFT Potential <==

   => LibXC <=

    Version 6.2.2
    S. Lehtola, C. Steigemann, M. J.T. Oliveira, and M. A.L. Marques.,  SoftwareX 7, 1â€“5 (2018) (10.1016/j.softx.2017.11.002)

   => Composite Functional: B3LYP <=

    B3LYP Hyb-GGA Exchange-Correlation Functional

    P. J. Stephens, F. J. Devlin, C. F. Chabalowski, and M. J. Frisch.,  J. Phys. Chem. 98, 11623 (1994) (10.1021/j100096a001)

    Deriv               =              1
    GGA                 =           TRUE
    Meta                =          FALSE

    Exchange Hybrid     =           TRUE
    MP2 Hybrid          =          FALSE

   => Exchange Functionals <=

    0.0800   Slater exchange
    0.7200         Becke 88

   => Exact (HF) Exchange <=

    0.2000               HF

   => Correlation Functionals <=

    0.1900   Vosko, Wilk & Nusair (VWN5_RPA)
    0.8100   Lee, Yang & Parr

   => LibXC Density Thresholds  <==

    XC_HYB_GGA_XC_B3LYP:  1.00E-15

   => Molecular Quadrature <=

    Radial Scheme          =       TREUTLER
    Pruning Scheme         =           NONE
    Nuclear Scheme         =       TREUTLER

    Blocking Scheme        =         OCTREE
    BS radius alpha        =              1
    Pruning alpha          =              1
    Radial Points          =             75
    Spherical Points       =            302
    Total Points           =          41583
    Total Blocks           =            371
    Max Points             =            256
    Max Functions          =             32
    Weights Tolerance      =       1.00E-15

  -Total Gradient:
     Atom            X                  Y                   Z
    ------   -----------------  -----------------  -----------------
       1        0.000000000000     0.000000000000    -0.000079454126
       2        0.000000000000     0.000000000000     0.000055641988

*** tstop() called on Joses-MacBook-Pro-2.local at Wed Jul 16 19:14:03 2025
Module time:
	user time   =       1.46 seconds =       0.02 minutes
	system time =       1.55 seconds =       0.03 minutes
	total time  =          1 seconds =       0.02 minutes
Total time:
	user time   =      82.66 seconds =       1.38 minutes
	system time =      59.81 seconds =       1.00 minutes
	total time  =         15 seconds =       0.25 minutes

    			-----------------------------------------

    			 OPTKING 3.0: for geometry optimizations

    			     By R.A. King, Bethel University

    			        with contributions from

    			    A.V. Copan, J. Cayton, A. Heide

    			-----------------------------------------

	                            ===> Fragment 1 <==

	 Z (Atomic Numbers)          Masses                          Geom
	       7.000000            14.003074          0.00000000  0.00000000  2.00015295
	      16.000000            31.972071          0.00000000  0.00000000 -0.87602363

	 - Coordinate -           - BOHR/RAD -       - ANG/DEG -
	 R(1,2)           =         2.876177           1.522007

	        --- Internal Coordinate Step in ANG or DEG, aJ/ANG or AJ/DEG ---
	-------------------------------------------------------------------------------
	           Coordinate      Previous         Force          Change          New
	           ----------      --------        ------          ------        ------
	               R(1,2)       1.52201        0.00056        0.00006       1.52207
	-------------------------------------------------------------------------------

	                                 ==> Convergence Check <==

	Measures of convergence in internal coordinates in au.

	Criteria marked as inactive (o), active & met (*), and active & unmet ( ).

	----------------------------------------------------------------------------------------------
	   Step    Total Energy     Delta E     Max Force     RMS Force      Max Disp      RMS Disp
	----------------------------------------------------------------------------------------------
	  Convergence Criteria     1.00e-06 *    3.00e-04 *             o    1.20e-03 *             o
	----------------------------------------------------------------------------------------------
	    10    -452.88081497   -2.76e-07 *    6.75e-05 *    6.75e-05 o    1.16e-04 *    1.16e-04 o  ~
	----------------------------------------------------------------------------------------------

Next Geometry in Ang
	Fragment 1 (Ang)

	    N   0.0000000000   0.0000000000   1.0584660759
	    S   0.0000000000   0.0000000000  -0.4636024576

    Final optimized geometry and variables:
    Molecular point group: c2v
    Full point group: C_inf_v

    Geometry (in Angstrom), charge = 0, multiplicity = 2:

    N            0.000000000000     0.000000000000     1.058435357470
    S            0.000000000000     0.000000000000    -0.463571739182

    Psi4 stopped on: Wednesday, 16 July 2025 07:14PM
    Psi4 wall time for execution: 0:00:15.18

*** Psi4 exiting successfully. Buy a developer a beer!
