                               Psi4 1.9.1 release

  ==> Input File <==

--------------------------------------------------------------------------
molecule {
0 2
F   0.00000        0.60000        0.00000
Ar   0.00000       -0.60000        0.00000
}

set {
basis              cc-pvdz
reference          uks
maxiter            500
geom_maxiter       500
DAMPING_PERCENTAGE 1
guess              SAP
}

optimize('b3lyp')
--------------------------------------------------------------------------

    Molecular point group: c2v
  Charge       = 0
  Multiplicity = 2
  Basis Set: CC-PVDZ
    Blend: CC-PVDZ
  Basis Set: (CC-PVDZ AUX)
    Blend: CC-PVDZ-JKFIT
  @DF-UKS Final Energy:  -626.67150215825586
    Total Energy =                       -626.6715021582558620
 Dipole X            :          0.0000000            0.0000000            0.0000000
 Dipole Y            :          0.0000000            0.0000000            0.0000000
 Dipole Z            :         -0.4944780            0.6803766            0.1858986
 Magnitude           :                                                    0.1858986
    Molecular point group: c2v
  Basis Set: CC-PVDZ
    Blend: CC-PVDZ
  Basis Set: (CC-PVDZ AUX)
    Blend: CC-PVDZ-JKFIT
  Basis Set: CC-PVDZ
    Blend: CC-PVDZ
  Basis Set: (CC-PVDZ AUX)
    Blend: CC-PVDZ-JKFIT
  @DF-UKS Final Energy:  -626.92566418529304
    Total Energy =                       -626.9256641852930443
  Basis Set: CC-PVDZ
    Blend: CC-PVDZ
  Basis Set: (CC-PVDZ AUX)
    Blend: CC-PVDZ-JKFIT
  Basis Set: CC-PVDZ
    Blend: CC-PVDZ
  @DF-UKS Final Energy:  -627.09012404208772
    Total Energy =                       -627.0901240420877230
  @DF-UKS Final Energy:  -627.18663354283535
    Total Energy =                       -627.1866335428353523
  @DF-UKS Final Energy:  -627.23251034322209
    Total Energy =                       -627.2325103432220885
  @DF-UKS Final Energy:  -627.25385053167304
    Total Energy =                       -627.2538505316729243
  @DF-UKS Final Energy:  -627.26353170457617
    Total Energy =                       -627.2635317045762804
  @DF-UKS Final Energy:  -627.26777873969797
    Total Energy =                       -627.2677787396978601
  @DF-UKS Final Energy:  -627.26954246322362
    Total Energy =                       -627.2695424632236154
  @DF-UKS Final Energy:  -627.27007348407096
    Total Energy =                       -627.2700734840709629
  @DF-UKS Final Energy:  -627.27033987228003
    Total Energy =                       -627.2703398722799193
  @DF-UKS Final Energy:  -627.27042215575989
    Total Energy =                       -627.2704221557598885
  @DF-UKS Final Energy:  -627.27046090738907
    Total Energy =                       -627.2704609073890651
  @DF-UKS Final Energy:  -627.27047036638567
    Total Energy =                       -627.2704703663856662
  Basis Set: (CC-PVDZ AUX)
    Blend: CC-PVDZ-JKFIT
  Basis Set: CC-PVDZ
    Blend: CC-PVDZ
  Basis Set: (CC-PVDZ AUX)
    Blend: CC-PVDZ-JKFIT
  @DF-UKS Final Energy:  -627.27047333523626
    Total Energy =                       -627.2704733352362609
  Basis Set: CC-PVDZ
    Blend: CC-PVDZ
  Basis Set: (CC-PVDZ AUX)
    Blend: CC-PVDZ-JKFIT
  Charge       = 0
  Multiplicity = 2
  Basis Set: CC-PVDZ
    Blend: CC-PVDZ
  Basis Set: (CC-PVDZ AUX)
    Blend: CC-PVDZ-JKFIT

    Orbital Energies [Eh]
    ---------------------

    Alpha Occupied:

       1A1  -115.113034     2A1   -24.763873     3A1   -11.149009
       4A1    -8.699962     1B2    -8.698506     1B1    -8.698506
       5A1    -1.196024     6A1    -0.977039     7A1    -0.529123
       2B1    -0.439572     2B2    -0.439572     3B1    -0.427721
       3B2    -0.427721     8A1    -0.426750

    Alpha Virtual:

       4B1     0.573178     4B2     0.573178     9A1     0.582123
      10A1     0.697085    11A1     0.804657     5B1     0.821366
       5B2     0.821366     1A2     0.825399    12A1     0.825400
       6B1     1.110796     6B2     1.110796    13A1     1.169273
      14A1     1.535498    15A1     3.463498     7B1     3.478211
       7B2     3.478211    16A1     3.545069     2A2     3.545187

    Beta Occupied:

       1A1  -115.112469     2A1   -24.734081     3A1   -11.148469
       4A1    -8.698296     1B2    -8.698164     1B1    -8.698164
       5A1    -1.108912     6A1    -0.973783     7A1    -0.434658
       2B1    -0.432533     2B2    -0.432533     3B1    -0.403477
       3B2    -0.403477

    Beta Virtual:

       8A1    -0.231413     4B1     0.573743     4B2     0.573743
       9A1     0.592605    10A1     0.705650    11A1     0.812160
       5B2     0.824781     5B1     0.824781     1A2     0.826093
      12A1     0.826093     6B1     1.127861     6B2     1.127861
      13A1     1.258681    14A1     1.580330    15A1     3.559774
       2A2     3.559893     7B2     3.569929     7B1     3.569929
      16A1     3.593585

    Final Occupation by Irrep:
             A1    A2    B1    B2
    DOCC [     7,    0,    3,    3 ]
    SOCC [     1,    0,    0,    0 ]
    NA   [     8,    0,    3,    3 ]
    NB   [     7,    0,    3,    3 ]

  @DF-UKS Final Energy:  -627.27047392742656

   => Energetics <=

    Nuclear Repulsion Energy =             32.8060191267315275
    One-Electron Energy =                -933.1917728402120247
    Two-Electron Energy =                 306.4006217932109166
    DFT Exchange-Correlation Energy =     -33.2853420071569701
    Empirical Dispersion Energy =           0.0000000000000000
    VV10 Nonlocal Energy =                  0.0000000000000000
    Total Energy =                       -627.2704739274265648

  UHF NO Occupations:
  HONO-2 :    6 A1 1.9999005
  HONO-1 :    7 A1 1.9997130
  HONO-0 :    8 A1 1.0000000
  LUNO+0 :    9 A1 0.0002870
  LUNO+1 :   10 A1 0.0000995
  LUNO+2 :    4 B2 0.0000542
  LUNO+3 :    4 B1 0.0000542

Computation Completed

Properties will be evaluated at   0.000000,   0.000000,   0.000000 [a0]

Properties computed using the SCF density matrix

 Multipole Moments:

 ------------------------------------------------------------------------------------
     Multipole            Electronic (a.u.)      Nuclear  (a.u.)        Total (a.u.)
 ------------------------------------------------------------------------------------

 L = 1.  Multiply by 2.5417464519 to convert [e a0] to [Debye]
 Dipole X            :          0.0000000            0.0000000            0.0000000
 Dipole Y            :          0.0000000            0.0000000            0.0000000
 Dipole Z            :         -1.6607010            1.4815992           -0.1791018
 Magnitude           :                                                    0.1791018

 ------------------------------------------------------------------------------------

*** tstop() called on Joses-MacBook-Pro-2.local at Wed Jul 16 19:31:30 2025
Module time:
	user time   =       3.34 seconds =       0.06 minutes
	system time =       3.67 seconds =       0.06 minutes
	total time  =          1 seconds =       0.02 minutes
Total time:
	user time   =      83.03 seconds =       1.38 minutes
	system time =      75.01 seconds =       1.25 minutes
	total time  =         15 seconds =       0.25 minutes

*** tstart() called on Joses-MacBook-Pro-2.local
*** at Wed Jul 16 19:31:30 2025

         ------------------------------------------------------------
                                   SCF GRAD
                          Rob Parrish, Justin Turney,
                       Andy Simmonett, and Alex Sokolov
         ------------------------------------------------------------

  ==> Geometry <==

    Molecular point group: c2v
    Full point group: C_inf_v

    Geometry (in Angstrom), charge = 0, multiplicity = 2:

       Center              X                  Y                   Z               Mass
    ------------   -----------------  -----------------  -----------------  -----------------
         F            0.000000000000     0.000000000000     1.771131169580    18.998403162730
         AR           0.000000000000     0.000000000000    -0.842008443531    39.962383123700

  Nuclear repulsion =   32.806019126731528

  ==> Basis Set <==

  Basis Set: CC-PVDZ
    Blend: CC-PVDZ
    Number of shells: 14
    Number of basis functions: 32
    Number of Cartesian functions: 34
    Spherical Harmonics?: true
    Max angular momentum: 2

  ==> DFJKGrad: Density-Fitted SCF Gradients <==

    Gradient:                    1
    J tasked:                  Yes
    K tasked:                  Yes
    wK tasked:                  No
    OpenMP threads:              1
    Integrals threads:           1
    Memory [MiB]:              375
    Schwarz Cutoff:          1E-12
    Fitting Condition:       1E-10

   => Auxiliary Basis Set <=

  Basis Set: (CC-PVDZ AUX)
    Blend: CC-PVDZ-JKFIT
    Number of shells: 60
    Number of basis functions: 182
    Number of Cartesian functions: 211
    Spherical Harmonics?: true
    Max angular momentum: 3

  ==> DFT Potential <==

   => LibXC <=

    Version 6.2.2
    S. Lehtola, C. Steigemann, M. J.T. Oliveira, and M. A.L. Marques.,  SoftwareX 7, 1â€“5 (2018) (10.1016/j.softx.2017.11.002)

   => Composite Functional: B3LYP <=

    B3LYP Hyb-GGA Exchange-Correlation Functional

    P. J. Stephens, F. J. Devlin, C. F. Chabalowski, and M. J. Frisch.,  J. Phys. Chem. 98, 11623 (1994) (10.1021/j100096a001)

    Deriv               =              1
    GGA                 =           TRUE
    Meta                =          FALSE

    Exchange Hybrid     =           TRUE
    MP2 Hybrid          =          FALSE

   => Exchange Functionals <=

    0.0800   Slater exchange
    0.7200         Becke 88

   => Exact (HF) Exchange <=

    0.2000               HF

   => Correlation Functionals <=

    0.1900   Vosko, Wilk & Nusair (VWN5_RPA)
    0.8100   Lee, Yang & Parr

   => LibXC Density Thresholds  <==

    XC_HYB_GGA_XC_B3LYP:  1.00E-15

   => Molecular Quadrature <=

    Radial Scheme          =       TREUTLER
    Pruning Scheme         =           NONE
    Nuclear Scheme         =       TREUTLER

    Blocking Scheme        =         OCTREE
    BS radius alpha        =              1
    Pruning alpha          =              1
    Radial Points          =             75
    Spherical Points       =            302
    Total Points           =          41449
    Total Blocks           =            374
    Max Points             =            252
    Max Functions          =             32
    Weights Tolerance      =       1.00E-15

  -Total Gradient:
     Atom            X                  Y                   Z
    ------   -----------------  -----------------  -----------------
       1        0.000000000000    -0.000000000000    -0.000009197377
       2        0.000000000000     0.000000000000     0.000040761670

*** tstop() called on Joses-MacBook-Pro-2.local at Wed Jul 16 19:31:30 2025
Module time:
	user time   =       0.55 seconds =       0.01 minutes
	system time =       1.83 seconds =       0.03 minutes
	total time  =          0 seconds =       0.00 minutes
Total time:
	user time   =      83.59 seconds =       1.39 minutes
	system time =      76.84 seconds =       1.28 minutes
	total time  =         15 seconds =       0.25 minutes

    			-----------------------------------------

    			 OPTKING 3.0: for geometry optimizations

    			     By R.A. King, Bethel University

    			        with contributions from

    			    A.V. Copan, J. Cayton, A. Heide

    			-----------------------------------------

	                            ===> Fragment 1 <==

	 Z (Atomic Numbers)          Masses                          Geom
	       9.000000            18.998403          0.00000000  0.00000000  3.34695284
	      18.000000            39.962383          0.00000000  0.00000000 -1.59116535

	 - Coordinate -           - BOHR/RAD -       - ANG/DEG -
	 R(1,2)           =         4.938118           2.613140

	        --- Internal Coordinate Step in ANG or DEG, aJ/ANG or AJ/DEG ---
	-------------------------------------------------------------------------------
	           Coordinate      Previous         Force          Change          New
	           ----------      --------        ------          ------        ------
	               R(1,2)       2.61314        0.00021        0.00186       2.61500
	-------------------------------------------------------------------------------

	                                 ==> Convergence Check <==

	Measures of convergence in internal coordinates in au.

	Criteria marked as inactive (o), active & met (*), and active & unmet ( ).

	----------------------------------------------------------------------------------------------
	   Step    Total Energy     Delta E     Max Force     RMS Force      Max Disp      RMS Disp
	----------------------------------------------------------------------------------------------
	  Convergence Criteria     1.00e-06 *    3.00e-04 *             o    1.20e-03 *             o
	----------------------------------------------------------------------------------------------
	    16    -627.27047393   -5.92e-07 *    2.50e-05 *    2.50e-05 o    3.52e-03      3.52e-03 o  ~
	----------------------------------------------------------------------------------------------

Next Geometry in Ang
	Fragment 1 (Ang)

	    F   0.0000000000   0.0000000000   1.7720635972
	   Ar   0.0000000000   0.0000000000  -0.8429408711

    Final optimized geometry and variables:
    Molecular point group: c2v
    Full point group: C_inf_v

    Geometry (in Angstrom), charge = 0, multiplicity = 2:

    F            0.000000000000     0.000000000000     1.771131169580
    AR           0.000000000000     0.000000000000    -0.842008443531

    Psi4 stopped on: Wednesday, 16 July 2025 07:31PM
    Psi4 wall time for execution: 0:00:15.99

*** Psi4 exiting successfully. Buy a developer a beer!
