                               Psi4 1.9.1 release

  ==> Input File <==

--------------------------------------------------------------------------
molecule {
0 2
C   0.00000        0.60000        0.00000
P   0.00000       -0.60000        0.00000
}

set {
basis              cc-pvdz
reference          uks
maxiter            500
geom_maxiter       500
DAMPING_PERCENTAGE 1
guess              SAP
}

optimize('b3lyp')
--------------------------------------------------------------------------

    Molecular point group: c2v
  Charge       = 0
  Multiplicity = 2
  Basis Set: CC-PVDZ
    Blend: CC-PVDZ
  Basis Set: (CC-PVDZ AUX)
    Blend: CC-PVDZ-JKFIT
  @DF-UKS Final Energy:  -379.04856881767603
    Total Energy =                       -379.0485688176760846
 Dipole X            :          0.0000000            0.0000000            0.0000000
 Dipole Y            :          0.0000000            0.0000000            0.0000000
 Dipole Z            :         -0.5922701            0.3083052           -0.2839649
 Magnitude           :                                                    0.2839649
    Molecular point group: c2v
  Basis Set: CC-PVDZ
    Blend: CC-PVDZ
  Basis Set: (CC-PVDZ AUX)
    Blend: CC-PVDZ-JKFIT
  Basis Set: CC-PVDZ
    Blend: CC-PVDZ
  Basis Set: (CC-PVDZ AUX)
    Blend: CC-PVDZ-JKFIT
  @DF-UKS Final Energy:  -379.22380601597411
    Total Energy =                       -379.2238060159741622
  Basis Set: CC-PVDZ
    Blend: CC-PVDZ
  Basis Set: (CC-PVDZ AUX)
    Blend: CC-PVDZ-JKFIT
  Basis Set: CC-PVDZ
    Blend: CC-PVDZ
  @DF-UKS Final Energy:  -379.29022869563767
    Total Energy =                       -379.2902286956376656
  @DF-UKS Final Energy:  -379.30699995594210
    Total Energy =                       -379.3069999559421035
  @DF-UKS Final Energy:  -379.31344681004919
    Total Energy =                       -379.3134468100491858
  @DF-UKS Final Energy:  -379.31471754536335
    Total Energy =                       -379.3147175453633508
  @DF-UKS Final Energy:  -379.31499860966085
    Total Energy =                       -379.3149986096608473
  @DF-UKS Final Energy:  -379.31507638839236
    Total Energy =                       -379.3150763883923560
  Basis Set: (CC-PVDZ AUX)
    Blend: CC-PVDZ-JKFIT
  Basis Set: CC-PVDZ
    Blend: CC-PVDZ
  Basis Set: (CC-PVDZ AUX)
    Blend: CC-PVDZ-JKFIT
  @DF-UKS Final Energy:  -379.31508494342575
    Total Energy =                       -379.3150849434257452
  Basis Set: CC-PVDZ
    Blend: CC-PVDZ
  Basis Set: (CC-PVDZ AUX)
    Blend: CC-PVDZ-JKFIT
  Charge       = 0
  Multiplicity = 2
  Basis Set: CC-PVDZ
    Blend: CC-PVDZ
  Basis Set: (CC-PVDZ AUX)
    Blend: CC-PVDZ-JKFIT

    Orbital Energies [Eh]
    ---------------------

    Alpha Occupied:

       1A1   -77.113997     2A1   -10.275246     3A1    -6.586001
       4A1    -4.749289     1B2    -4.744899     1B1    -4.744899
       5A1    -0.735747     6A1    -0.464397     7A1    -0.333584
       2B1    -0.299710     2B2    -0.299710

    Alpha Virtual:

       3B1    -0.068045     3B2    -0.068045     8A1     0.104307
       9A1     0.350762    10A1     0.394151     4B1     0.400345
       4B2     0.400345    11A1     0.463774     1A2     0.468412
      12A1     0.468412     5B1     0.517910     5B2     0.517910
       6B1     0.543890     6B2     0.543890    13A1     0.846754
      14A1     1.026668    15A1     1.170246     2A2     1.170247
       7B1     1.412641     7B2     1.412641    16A1     1.767108

    Beta Occupied:

       1A1   -77.113605     2A1   -10.257926     3A1    -6.585673
       1B2    -4.746313     1B1    -4.746313     4A1    -4.744427
       5A1    -0.707206     6A1    -0.420420     2B1    -0.287801
       2B2    -0.287801

    Beta Virtual:

       7A1    -0.179627     3B1    -0.050061     3B2    -0.050061
       8A1     0.114481     9A1     0.355731     4B1     0.400220
       4B2     0.400220    10A1     0.442656    11A1     0.457682
       1A2     0.457682    12A1     0.490939     5B1     0.536471
       5B2     0.536471     6B1     0.559238     6B2     0.559238
      13A1     0.879067    14A1     1.052198    15A1     1.197657
       2A2     1.197657     7B1     1.464459     7B2     1.464459
      16A1     1.827047

    Final Occupation by Irrep:
             A1    A2    B1    B2
    DOCC [     6,    0,    2,    2 ]
    SOCC [     1,    0,    0,    0 ]
    NA   [     7,    0,    2,    2 ]
    NB   [     6,    0,    2,    2 ]

  @DF-UKS Final Energy:  -379.31508533516086

   => Energetics <=

    Nuclear Repulsion Energy =             30.2975271392918799
    One-Electron Energy =                -582.5710966594402862
    Two-Electron Energy =                 195.9556556039557051
    DFT Exchange-Correlation Energy =     -22.9971714189682324
    Empirical Dispersion Energy =           0.0000000000000000
    VV10 Nonlocal Energy =                  0.0000000000000000
    Total Energy =                       -379.3150853351608589

  UHF NO Occupations:
  HONO-2 :    2 B2 1.9919020
  HONO-1 :    2 B1 1.9919020
  HONO-0 :    7 A1 1.0000000
  LUNO+0 :    3 B1 0.0080980
  LUNO+1 :    3 B2 0.0080980
  LUNO+2 :    8 A1 0.0010624
  LUNO+3 :    9 A1 0.0002647

Computation Completed

Properties will be evaluated at   0.000000,   0.000000,   0.000000 [a0]

Properties computed using the SCF density matrix

 Multipole Moments:

 ------------------------------------------------------------------------------------
     Multipole            Electronic (a.u.)      Nuclear  (a.u.)        Total (a.u.)
 ------------------------------------------------------------------------------------

 L = 1.  Multiply by 2.5417464519 to convert [e a0] to [Debye]
 Dipole X            :          0.0000000            0.0000000            0.0000000
 Dipole Y            :          0.0000000            0.0000000            0.0000000
 Dipole Z            :         -0.7669936            0.4038648           -0.3631287
 Magnitude           :                                                    0.3631287

 ------------------------------------------------------------------------------------

*** tstop() called on Joses-MacBook-Pro-2.local at Wed Jul 16 19:04:21 2025
Module time:
	user time   =       3.50 seconds =       0.06 minutes
	system time =       4.32 seconds =       0.07 minutes
	total time  =          1 seconds =       0.02 minutes
Total time:
	user time   =      52.82 seconds =       0.88 minutes
	system time =      65.15 seconds =       1.09 minutes
	total time  =         12 seconds =       0.20 minutes

*** tstart() called on Joses-MacBook-Pro-2.local
*** at Wed Jul 16 19:04:21 2025

         ------------------------------------------------------------
                                   SCF GRAD
                          Rob Parrish, Justin Turney,
                       Andy Simmonett, and Alex Sokolov
         ------------------------------------------------------------

  ==> Geometry <==

    Molecular point group: c2v
    Full point group: C_inf_v

    Geometry (in Angstrom), charge = 0, multiplicity = 2:

       Center              X                  Y                   Z               Mass
    ------------   -----------------  -----------------  -----------------  -----------------
         C            0.000000000000     0.000000000000     1.132992517507    12.000000000000
         P            0.000000000000     0.000000000000    -0.438949269733    30.973761998420

  Nuclear repulsion =   30.297527139291880

  ==> Basis Set <==

  Basis Set: CC-PVDZ
    Blend: CC-PVDZ
    Number of shells: 14
    Number of basis functions: 32
    Number of Cartesian functions: 34
    Spherical Harmonics?: true
    Max angular momentum: 2

  ==> DFJKGrad: Density-Fitted SCF Gradients <==

    Gradient:                    1
    J tasked:                  Yes
    K tasked:                  Yes
    wK tasked:                  No
    OpenMP threads:              1
    Integrals threads:           1
    Memory [MiB]:              375
    Schwarz Cutoff:          1E-12
    Fitting Condition:       1E-10

   => Auxiliary Basis Set <=

  Basis Set: (CC-PVDZ AUX)
    Blend: CC-PVDZ-JKFIT
    Number of shells: 60
    Number of basis functions: 182
    Number of Cartesian functions: 211
    Spherical Harmonics?: true
    Max angular momentum: 3

  ==> DFT Potential <==

   => LibXC <=

    Version 6.2.2
    S. Lehtola, C. Steigemann, M. J.T. Oliveira, and M. A.L. Marques.,  SoftwareX 7, 1â€“5 (2018) (10.1016/j.softx.2017.11.002)

   => Composite Functional: B3LYP <=

    B3LYP Hyb-GGA Exchange-Correlation Functional

    P. J. Stephens, F. J. Devlin, C. F. Chabalowski, and M. J. Frisch.,  J. Phys. Chem. 98, 11623 (1994) (10.1021/j100096a001)

    Deriv               =              1
    GGA                 =           TRUE
    Meta                =          FALSE

    Exchange Hybrid     =           TRUE
    MP2 Hybrid          =          FALSE

   => Exchange Functionals <=

    0.0800   Slater exchange
    0.7200         Becke 88

   => Exact (HF) Exchange <=

    0.2000               HF

   => Correlation Functionals <=

    0.1900   Vosko, Wilk & Nusair (VWN5_RPA)
    0.8100   Lee, Yang & Parr

   => LibXC Density Thresholds  <==

    XC_HYB_GGA_XC_B3LYP:  1.00E-15

   => Molecular Quadrature <=

    Radial Scheme          =       TREUTLER
    Pruning Scheme         =           NONE
    Nuclear Scheme         =       TREUTLER

    Blocking Scheme        =         OCTREE
    BS radius alpha        =              1
    Pruning alpha          =              1
    Radial Points          =             75
    Spherical Points       =            302
    Total Points           =          41895
    Total Blocks           =            378
    Max Points             =            256
    Max Functions          =             32
    Weights Tolerance      =       1.00E-15

  -Total Gradient:
     Atom            X                  Y                   Z
    ------   -----------------  -----------------  -----------------
       1       -0.000000000000     0.000000000000    -0.000076020385
       2        0.000000000000    -0.000000000000     0.000059623792

*** tstop() called on Joses-MacBook-Pro-2.local at Wed Jul 16 19:04:21 2025
Module time:
	user time   =       0.68 seconds =       0.01 minutes
	system time =       1.97 seconds =       0.03 minutes
	total time  =          0 seconds =       0.00 minutes
Total time:
	user time   =      53.50 seconds =       0.89 minutes
	system time =      67.13 seconds =       1.12 minutes
	total time  =         12 seconds =       0.20 minutes

    			-----------------------------------------

    			 OPTKING 3.0: for geometry optimizations

    			     By R.A. King, Bethel University

    			        with contributions from

    			    A.V. Copan, J. Cayton, A. Heide

    			-----------------------------------------

	                            ===> Fragment 1 <==

	 Z (Atomic Numbers)          Masses                          Geom
	       6.000000            12.000000          0.00000000  0.00000000  2.14104556
	      15.000000            30.973762          0.00000000  0.00000000 -0.82949390

	 - Coordinate -           - BOHR/RAD -       - ANG/DEG -
	 R(1,2)           =         2.970539           1.571942

	        --- Internal Coordinate Step in ANG or DEG, aJ/ANG or AJ/DEG ---
	-------------------------------------------------------------------------------
	           Coordinate      Previous         Force          Change          New
	           ----------      --------        ------          ------        ------
	               R(1,2)       1.57194        0.00056        0.00006       1.57201
	-------------------------------------------------------------------------------

	                                 ==> Convergence Check <==

	Measures of convergence in internal coordinates in au.

	Criteria marked as inactive (o), active & met (*), and active & unmet ( ).

	----------------------------------------------------------------------------------------------
	   Step    Total Energy     Delta E     Max Force     RMS Force      Max Disp      RMS Disp
	----------------------------------------------------------------------------------------------
	  Convergence Criteria     1.00e-06 *    3.00e-04 *             o    1.20e-03 *             o
	----------------------------------------------------------------------------------------------
	    10    -379.31508534   -3.92e-07 *    6.78e-05 *    6.78e-05 o    1.23e-04 *    1.23e-04 o  ~
	----------------------------------------------------------------------------------------------

Next Geometry in Ang
	Fragment 1 (Ang)

	    C   0.0000000000   0.0000000000   1.1330249476
	    P   0.0000000000   0.0000000000  -0.4389816999

    Final optimized geometry and variables:
    Molecular point group: c2v
    Full point group: C_inf_v

    Geometry (in Angstrom), charge = 0, multiplicity = 2:

    C            0.000000000000     0.000000000000     1.132992517507
    P            0.000000000000     0.000000000000    -0.438949269733

    Psi4 stopped on: Wednesday, 16 July 2025 07:04PM
    Psi4 wall time for execution: 0:00:12.75

*** Psi4 exiting successfully. Buy a developer a beer!
