                               Psi4 1.9.1 release

  ==> Input File <==

--------------------------------------------------------------------------
molecule {
0 2
Ne   0.00000        0.60000        0.00000
Cl   0.00000       -0.60000        0.00000
}

set {
basis              cc-pvdz
reference          uks
maxiter            500
geom_maxiter       500
DAMPING_PERCENTAGE 1
guess              SAP
}

optimize('b3lyp')
--------------------------------------------------------------------------

    Molecular point group: c2v
  Charge       = 0
  Multiplicity = 2
  Basis Set: CC-PVDZ
    Blend: CC-PVDZ
  Basis Set: (CC-PVDZ AUX)
    Blend: CC-PVDZ-JKFIT
  @DF-UKS Final Energy:  -588.32420213295245
    Total Energy =                       -588.3242021329523368
 Dipole X            :          0.0000000            0.0000000            0.0000000
 Dipole Y            :          0.0000000            0.0000000            0.0000000
 Dipole Z            :          1.0457206            0.4050456            1.4507662
 Magnitude           :                                                    1.4507662
    Molecular point group: c2v
  Basis Set: CC-PVDZ
    Blend: CC-PVDZ
  Basis Set: (CC-PVDZ AUX)
    Blend: CC-PVDZ-JKFIT
  Basis Set: CC-PVDZ
    Blend: CC-PVDZ
  Basis Set: (CC-PVDZ AUX)
    Blend: CC-PVDZ-JKFIT
  @DF-UKS Final Energy:  -588.65246804697961
    Total Energy =                       -588.6524680469796067
  Basis Set: CC-PVDZ
    Blend: CC-PVDZ
  Basis Set: (CC-PVDZ AUX)
    Blend: CC-PVDZ-JKFIT
  Basis Set: CC-PVDZ
    Blend: CC-PVDZ
  @DF-UKS Final Energy:  -588.85884077315484
    Total Energy =                       -588.8588407731547250
  @DF-UKS Final Energy:  -588.96867277450337
    Total Energy =                       -588.9686727745032613
  @DF-UKS Final Energy:  -589.02001500915799
    Total Energy =                       -589.0200150091579872
  @DF-UKS Final Energy:  -589.04576317276155
    Total Energy =                       -589.0457631727615535
  @DF-UKS Final Energy:  -589.05852797462467
    Total Energy =                       -589.0585279746246670
  @DF-UKS Final Energy:  -589.06470849094774
    Total Energy =                       -589.0647084909476234
  @DF-UKS Final Energy:  -589.06753260987523
    Total Energy =                       -589.0675326098752294
  @DF-UKS Final Energy:  -589.06870910689531
    Total Energy =                       -589.0687091068954260
  @DF-UKS Final Energy:  -589.06905191216867
    Total Energy =                       -589.0690519121686748
  @DF-UKS Final Energy:  -589.06921041715009
    Total Energy =                       -589.0692104171500887
  @DF-UKS Final Energy:  -589.06925250030918
    Total Energy =                       -589.0692525003091760
  @DF-UKS Final Energy:  -589.06926851900141
    Total Energy =                       -589.0692685190014117
  Basis Set: (CC-PVDZ AUX)
    Blend: CC-PVDZ-JKFIT
  Basis Set: CC-PVDZ
    Blend: CC-PVDZ
  Basis Set: (CC-PVDZ AUX)
    Blend: CC-PVDZ-JKFIT
  @DF-UKS Final Energy:  -589.06927132874830
    Total Energy =                       -589.0692713287483002
  Basis Set: CC-PVDZ
    Blend: CC-PVDZ
  Basis Set: (CC-PVDZ AUX)
    Blend: CC-PVDZ-JKFIT
  Charge       = 0
  Multiplicity = 2
  Basis Set: CC-PVDZ
    Blend: CC-PVDZ
  Basis Set: (CC-PVDZ AUX)
    Blend: CC-PVDZ-JKFIT

    Orbital Energies [Eh]
    ---------------------

    Alpha Occupied:

       1A1  -101.587858     2A1   -30.976332     3A1    -9.502046
       4A1    -7.275794     1B1    -7.252266     1B2    -7.252266
       5A1    -1.440833     6A1    -0.840107     7A1    -0.552825
       2B1    -0.548280     2B2    -0.548280     8A1    -0.399213
       3B2    -0.346794     3B1    -0.346794

    Alpha Virtual:

       9A1     0.503485     4B2     0.531629     4B1     0.531629
      10A1     0.576260    11A1     0.654780     5B1     0.670169
       5B2     0.670169     1A2     0.714203    12A1     0.714204
       6B1     1.355069     6B2     1.355069    13A1     1.412887
      14A1     1.846533     7B1     4.715861     7B2     4.715861
      15A1     4.716945     2A2     4.717211    16A1     4.717439

    Beta Occupied:

       1A1  -101.581110     2A1   -30.975883     3A1    -9.495381
       4A1    -7.253793     1B1    -7.248267     1B2    -7.248267
       5A1    -1.439930     6A1    -0.786864     7A1    -0.549771
       2B1    -0.547930     2B2    -0.547930     3B2    -0.330884
       3B1    -0.330884

    Beta Virtual:

       8A1    -0.238269     4B2     0.538966     4B1     0.538966
       9A1     0.547206    10A1     0.596321     1A2     0.722509
      11A1     0.722510     5B2     0.727787     5B1     0.727787
      12A1     0.734425     6B1     1.355077     6B2     1.355077
      13A1     1.414686    14A1     1.847643     7B1     4.716859
       7B2     4.716859     2A2     4.717447    15A1     4.717675
      16A1     4.718188

    Final Occupation by Irrep:
             A1    A2    B1    B2
    DOCC [     7,    0,    3,    3 ]
    SOCC [     1,    0,    0,    0 ]
    NA   [     8,    0,    3,    3 ]
    NB   [     7,    0,    3,    3 ]

  @DF-UKS Final Energy:  -589.06927182673644

   => Energetics <=

    Nuclear Repulsion Energy =             31.5076599680024430
    One-Electron Energy =                -880.5617289084011645
    Two-Electron Energy =                 292.8176992544026689
    DFT Exchange-Correlation Energy =     -32.8329021407403729
    Empirical Dispersion Energy =           0.0000000000000000
    VV10 Nonlocal Energy =                  0.0000000000000000
    Total Energy =                       -589.0692718267364398

  UHF NO Occupations:
  HONO-2 :    3 B1 1.9999735
  HONO-1 :    7 A1 1.9991411
  HONO-0 :    8 A1 1.0000000
  LUNO+0 :    9 A1 0.0008589
  LUNO+1 :    4 B1 0.0000265
  LUNO+2 :    4 B2 0.0000265
  LUNO+3 :   10 A1 0.0000038

Computation Completed

Properties will be evaluated at   0.000000,   0.000000,   0.000000 [a0]

Properties computed using the SCF density matrix

 Multipole Moments:

 ------------------------------------------------------------------------------------
     Multipole            Electronic (a.u.)      Nuclear  (a.u.)        Total (a.u.)
 ------------------------------------------------------------------------------------

 L = 1.  Multiply by 2.5417464519 to convert [e a0] to [Debye]
 Dipole X            :          0.0000000            0.0000000            0.0000000
 Dipole Y            :          0.0000000            0.0000000            0.0000000
 Dipole Z            :         -0.9060896            0.9637326            0.0576430
 Magnitude           :                                                    0.0576430

 ------------------------------------------------------------------------------------

*** tstop() called on Joses-MacBook-Pro-2.local at Wed Jul 16 19:37:35 2025
Module time:
	user time   =       3.80 seconds =       0.06 minutes
	system time =       2.23 seconds =       0.04 minutes
	total time  =          0 seconds =       0.00 minutes
Total time:
	user time   =      75.77 seconds =       1.26 minutes
	system time =      81.89 seconds =       1.36 minutes
	total time  =         15 seconds =       0.25 minutes

*** tstart() called on Joses-MacBook-Pro-2.local
*** at Wed Jul 16 19:37:35 2025

         ------------------------------------------------------------
                                   SCF GRAD
                          Rob Parrish, Justin Turney,
                       Andy Simmonett, and Alex Sokolov
         ------------------------------------------------------------

  ==> Geometry <==

    Molecular point group: c2v
    Full point group: C_inf_v

    Geometry (in Angstrom), charge = 0, multiplicity = 2:

       Center              X                  Y                   Z               Mass
    ------------   -----------------  -----------------  -----------------  -----------------
         NE           0.000000000000     0.000000000000     1.816595975043    19.992440176200
         CL           0.000000000000     0.000000000000    -1.038586729901    34.968852682000

  Nuclear repulsion =   31.507659968002443

  ==> Basis Set <==

  Basis Set: CC-PVDZ
    Blend: CC-PVDZ
    Number of shells: 14
    Number of basis functions: 32
    Number of Cartesian functions: 34
    Spherical Harmonics?: true
    Max angular momentum: 2

  ==> DFJKGrad: Density-Fitted SCF Gradients <==

    Gradient:                    1
    J tasked:                  Yes
    K tasked:                  Yes
    wK tasked:                  No
    OpenMP threads:              1
    Integrals threads:           1
    Memory [MiB]:              375
    Schwarz Cutoff:          1E-12
    Fitting Condition:       1E-10

   => Auxiliary Basis Set <=

  Basis Set: (CC-PVDZ AUX)
    Blend: CC-PVDZ-JKFIT
    Number of shells: 60
    Number of basis functions: 182
    Number of Cartesian functions: 211
    Spherical Harmonics?: true
    Max angular momentum: 3

  ==> DFT Potential <==

   => LibXC <=

    Version 6.2.2
    S. Lehtola, C. Steigemann, M. J.T. Oliveira, and M. A.L. Marques.,  SoftwareX 7, 1â€“5 (2018) (10.1016/j.softx.2017.11.002)

   => Composite Functional: B3LYP <=

    B3LYP Hyb-GGA Exchange-Correlation Functional

    P. J. Stephens, F. J. Devlin, C. F. Chabalowski, and M. J. Frisch.,  J. Phys. Chem. 98, 11623 (1994) (10.1021/j100096a001)

    Deriv               =              1
    GGA                 =           TRUE
    Meta                =          FALSE

    Exchange Hybrid     =           TRUE
    MP2 Hybrid          =          FALSE

   => Exchange Functionals <=

    0.0800   Slater exchange
    0.7200         Becke 88

   => Exact (HF) Exchange <=

    0.2000               HF

   => Correlation Functionals <=

    0.1900   Vosko, Wilk & Nusair (VWN5_RPA)
    0.8100   Lee, Yang & Parr

   => LibXC Density Thresholds  <==

    XC_HYB_GGA_XC_B3LYP:  1.00E-15

   => Molecular Quadrature <=

    Radial Scheme          =       TREUTLER
    Pruning Scheme         =           NONE
    Nuclear Scheme         =       TREUTLER

    Blocking Scheme        =         OCTREE
    BS radius alpha        =              1
    Pruning alpha          =              1
    Radial Points          =             75
    Spherical Points       =            302
    Total Points           =          41996
    Total Blocks           =            377
    Max Points             =            255
    Max Functions          =             32
    Weights Tolerance      =       1.00E-15

  -Total Gradient:
     Atom            X                  Y                   Z
    ------   -----------------  -----------------  -----------------
       1        0.000000000000     0.000000000000    -0.000036530953
       2       -0.000000000000     0.000000000000     0.000023220909

*** tstop() called on Joses-MacBook-Pro-2.local at Wed Jul 16 19:37:35 2025
Module time:
	user time   =       0.84 seconds =       0.01 minutes
	system time =       1.50 seconds =       0.03 minutes
	total time  =          0 seconds =       0.00 minutes
Total time:
	user time   =      76.61 seconds =       1.28 minutes
	system time =      83.39 seconds =       1.39 minutes
	total time  =         15 seconds =       0.25 minutes

    			-----------------------------------------

    			 OPTKING 3.0: for geometry optimizations

    			     By R.A. King, Bethel University

    			        with contributions from

    			    A.V. Copan, J. Cayton, A. Heide

    			-----------------------------------------

	                            ===> Fragment 1 <==

	 Z (Atomic Numbers)          Masses                          Geom
	      10.000000            19.992440          0.00000000  0.00000000  3.43286887
	      17.000000            34.968853          0.00000000  0.00000000 -1.96264448

	 - Coordinate -           - BOHR/RAD -       - ANG/DEG -
	 R(1,2)           =         5.395513           2.855183

	        --- Internal Coordinate Step in ANG or DEG, aJ/ANG or AJ/DEG ---
	-------------------------------------------------------------------------------
	           Coordinate      Previous         Force          Change          New
	           ----------      --------        ------          ------        ------
	               R(1,2)       2.85518        0.00025        0.00302       2.85820
	-------------------------------------------------------------------------------

	                                 ==> Convergence Check <==

	Measures of convergence in internal coordinates in au.

	Criteria marked as inactive (o), active & met (*), and active & unmet ( ).

	----------------------------------------------------------------------------------------------
	   Step    Total Energy     Delta E     Max Force     RMS Force      Max Disp      RMS Disp
	----------------------------------------------------------------------------------------------
	  Convergence Criteria     1.00e-06 *    3.00e-04 *             o    1.20e-03 *             o
	----------------------------------------------------------------------------------------------
	    16    -589.06927183   -4.98e-07 *    2.99e-05 *    2.99e-05 o    5.70e-03      5.70e-03 o  ~
	----------------------------------------------------------------------------------------------

Next Geometry in Ang
	Fragment 1 (Ang)

	   Ne   0.0000000000   0.0000000000   1.8181052539
	   Cl   0.0000000000   0.0000000000  -1.0400960088

    Final optimized geometry and variables:
    Molecular point group: c2v
    Full point group: C_inf_v

    Geometry (in Angstrom), charge = 0, multiplicity = 2:

    NE           0.000000000000     0.000000000000     1.816595975043
    CL           0.000000000000     0.000000000000    -1.038586729901

    Psi4 stopped on: Wednesday, 16 July 2025 07:37PM
    Psi4 wall time for execution: 0:00:15.77

*** Psi4 exiting successfully. Buy a developer a beer!
