                               Psi4 1.9.1 release

  ==> Input File <==

--------------------------------------------------------------------------
molecule {
0 2
C   0.00000        0.60000        0.00000
Na   0.00000       -0.60000        0.00000
}

set {
basis              cc-pvdz
reference          uks
maxiter            500
geom_maxiter       500
DAMPING_PERCENTAGE 1
guess              SAP
}

optimize('b3lyp')
--------------------------------------------------------------------------

    Molecular point group: c2v
  Charge       = 0
  Multiplicity = 2
  Basis Set: CC-PVDZ
    Blend: CC-PVDZ
  Basis Set: (CC-PVDZ AUX)
    Blend: CC-PVDZ-JKFIT + DEF2-UNIVERSAL-JKFIT
  @DF-UKS Final Energy:  -199.77981079588821
    Total Energy =                       -199.7798107958882099
 Dipole X            :          0.0000000            0.0000000            0.0000000
 Dipole Y            :          0.0000000            0.0000000            0.0000000
 Dipole Z            :         -2.6393424            0.3848790           -2.2544634
 Magnitude           :                                                    2.2544634
    Molecular point group: c2v
  Basis Set: CC-PVDZ
    Blend: CC-PVDZ
  Basis Set: (CC-PVDZ AUX)
    Blend: CC-PVDZ-JKFIT + DEF2-UNIVERSAL-JKFIT
  Basis Set: CC-PVDZ
    Blend: CC-PVDZ
  Basis Set: (CC-PVDZ AUX)
    Blend: CC-PVDZ-JKFIT + DEF2-UNIVERSAL-JKFIT
  @DF-UKS Final Energy:  -199.87810615146498
    Total Energy =                       -199.8781061514649480
  Basis Set: CC-PVDZ
    Blend: CC-PVDZ
  Basis Set: (CC-PVDZ AUX)
    Blend: CC-PVDZ-JKFIT + DEF2-UNIVERSAL-JKFIT
  Basis Set: CC-PVDZ
    Blend: CC-PVDZ
  @DF-UKS Final Energy:  -199.97937518909330
    Total Energy =                       -199.9793751890933038
  @DF-UKS Final Energy:  -200.06686805325469
    Total Energy =                       -200.0668680532546944
  @DF-UKS Final Energy:  -200.10819827685469
    Total Energy =                       -200.1081982768547221
  @DF-UKS Final Energy:  -200.12410451712640
    Total Energy =                       -200.1241045171263977
  @DF-UKS Final Energy:  -200.12936636249466
    Total Energy =                       -200.1293663624946646
  @DF-UKS Final Energy:  -200.13040609741648
    Total Energy =                       -200.1304060974165111
  @DF-UKS Final Energy:  -200.13068773119531
    Total Energy =                       -200.1306877311953087
  @DF-UKS Final Energy:  -200.13072018448599
    Total Energy =                       -200.1307201844859947
  Basis Set: (CC-PVDZ AUX)
    Blend: CC-PVDZ-JKFIT + DEF2-UNIVERSAL-JKFIT
  Basis Set: CC-PVDZ
    Blend: CC-PVDZ
  Basis Set: (CC-PVDZ AUX)
    Blend: CC-PVDZ-JKFIT + DEF2-UNIVERSAL-JKFIT
  @DF-UKS Final Energy:  -200.13072413999217
    Total Energy =                       -200.1307241399921679
  Basis Set: CC-PVDZ
    Blend: CC-PVDZ
  Basis Set: (CC-PVDZ AUX)
    Blend: CC-PVDZ-JKFIT + DEF2-UNIVERSAL-JKFIT
  Charge       = 0
  Multiplicity = 2
  Basis Set: CC-PVDZ
    Blend: CC-PVDZ
  Basis Set: (CC-PVDZ AUX)
    Blend: CC-PVDZ-JKFIT + DEF2-UNIVERSAL-JKFIT

    Orbital Energies [Eh]
    ---------------------

    Alpha Occupied:

       1A1   -38.527970     2A1   -10.188492     3A1    -2.272574
       4A1    -1.205658     1B2    -1.204078     1B1    -1.202373
       5A1    -0.477613     2B2    -0.173218     2B1    -0.131479

    Alpha Virtual:

       6A1    -0.100389     7A1    -0.051051     3B1    -0.002063
       3B2    -0.000676     8A1     0.022110     9A1     0.054600
       4B1     0.082494     4B2     0.084455    10A1     0.140662
       1A2     0.166473    11A1     0.168057     5B2     0.213697
       5B1     0.218668    12A1     0.275252     6B2     0.607167
      13A1     0.626488     6B1     0.635879    14A1     1.068653
      15A1     1.203746     2A2     1.239420     7B2     1.248076
      16A1     1.249812     7B1     1.280465

    Beta Occupied:

       1A1   -38.527960     2A1   -10.175218     3A1    -2.272573
       4A1    -1.205750     1B2    -1.203678     1B1    -1.202605
       5A1    -0.423893     2B1    -0.112625

    Beta Virtual:

       6A1    -0.092169     7A1    -0.043520     2B2    -0.034975
       3B1    -0.000408     3B2     0.021597     8A1     0.023771
       9A1     0.055961     4B1     0.081274     4B2     0.088158
      10A1     0.142807     1A2     0.165816    11A1     0.171140
       5B1     0.219655     5B2     0.232454    12A1     0.282591
      13A1     0.637638     6B1     0.648332     6B2     0.670425
      14A1     1.093415    15A1     1.235559     7B1     1.289880
       2A2     1.293657    16A1     1.300660     7B2     1.307746

    Final Occupation by Irrep:
             A1    A2    B1    B2
    DOCC [     5,    0,    2,    1 ]
    SOCC [     0,    0,    0,    1 ]
    NA   [     5,    0,    2,    2 ]
    NB   [     5,    0,    2,    1 ]

  @DF-UKS Final Energy:  -200.13072467419141

   => Energetics <=

    Nuclear Repulsion Energy =             16.4345530548383287
    One-Electron Energy =                -311.2022075511690673
    Two-Electron Energy =                 110.5693738610497547
    DFT Exchange-Correlation Energy =     -15.9324440389104431
    Empirical Dispersion Energy =           0.0000000000000000
    VV10 Nonlocal Energy =                  0.0000000000000000
    Total Energy =                       -200.1307246741914128

  UHF NO Occupations:
  HONO-2 :    5 A1 1.9989511
  HONO-1 :    2 B1 1.9956560
  HONO-0 :    2 B2 1.0000000
  LUNO+0 :    3 B1 0.0043440
  LUNO+1 :    6 A1 0.0010489
  LUNO+2 :    7 A1 0.0000002
  LUNO+3 :    8 A1 0.0000001

Computation Completed

Properties will be evaluated at   0.000000,   0.000000,   0.000000 [a0]

Properties computed using the SCF density matrix

 Multipole Moments:

 ------------------------------------------------------------------------------------
     Multipole            Electronic (a.u.)      Nuclear  (a.u.)        Total (a.u.)
 ------------------------------------------------------------------------------------

 L = 1.  Multiply by 2.5417464519 to convert [e a0] to [Debye]
 Dipole X            :          0.0000000            0.0000000            0.0000000
 Dipole Y            :          0.0000000            0.0000000            0.0000000
 Dipole Z            :         -3.2531515            0.6816009           -2.5715505
 Magnitude           :                                                    2.5715505

 ------------------------------------------------------------------------------------

*** tstop() called on Joses-MacBook-Pro-2.local at Wed Jul 16 19:01:16 2025
Module time:
	user time   =       3.48 seconds =       0.06 minutes
	system time =       3.45 seconds =       0.06 minutes
	total time  =          0 seconds =       0.00 minutes
Total time:
	user time   =      61.39 seconds =       1.02 minutes
	system time =      69.43 seconds =       1.16 minutes
	total time  =         12 seconds =       0.20 minutes

*** tstart() called on Joses-MacBook-Pro-2.local
*** at Wed Jul 16 19:01:16 2025

         ------------------------------------------------------------
                                   SCF GRAD
                          Rob Parrish, Justin Turney,
                       Andy Simmonett, and Alex Sokolov
         ------------------------------------------------------------

  ==> Geometry <==

    Molecular point group: c2v
    Full point group: C_inf_v

    Geometry (in Angstrom), charge = 0, multiplicity = 2:

       Center              X                  Y                   Z               Mass
    ------------   -----------------  -----------------  -----------------  -----------------
         C            0.000000000000     0.000000000000     1.396306322792    12.000000000000
         NA           0.000000000000     0.000000000000    -0.728831841154    22.989769282000

  Nuclear repulsion =   16.434553054838329

  ==> Basis Set <==

  Basis Set: CC-PVDZ
    Blend: CC-PVDZ
    Number of shells: 14
    Number of basis functions: 32
    Number of Cartesian functions: 34
    Spherical Harmonics?: true
    Max angular momentum: 2

  ==> DFJKGrad: Density-Fitted SCF Gradients <==

    Gradient:                    1
    J tasked:                  Yes
    K tasked:                  Yes
    wK tasked:                  No
    OpenMP threads:              1
    Integrals threads:           1
    Memory [MiB]:              375
    Schwarz Cutoff:          1E-12
    Fitting Condition:       1E-10

   => Auxiliary Basis Set <=

  Basis Set: (CC-PVDZ AUX)
    Blend: CC-PVDZ-JKFIT + DEF2-UNIVERSAL-JKFIT
    Number of shells: 58
    Number of basis functions: 182
    Number of Cartesian functions: 218
    Spherical Harmonics?: true
    Max angular momentum: 4

  ==> DFT Potential <==

   => LibXC <=

    Version 6.2.2
    S. Lehtola, C. Steigemann, M. J.T. Oliveira, and M. A.L. Marques.,  SoftwareX 7, 1â€“5 (2018) (10.1016/j.softx.2017.11.002)

   => Composite Functional: B3LYP <=

    B3LYP Hyb-GGA Exchange-Correlation Functional

    P. J. Stephens, F. J. Devlin, C. F. Chabalowski, and M. J. Frisch.,  J. Phys. Chem. 98, 11623 (1994) (10.1021/j100096a001)

    Deriv               =              1
    GGA                 =           TRUE
    Meta                =          FALSE

    Exchange Hybrid     =           TRUE
    MP2 Hybrid          =          FALSE

   => Exchange Functionals <=

    0.0800   Slater exchange
    0.7200         Becke 88

   => Exact (HF) Exchange <=

    0.2000               HF

   => Correlation Functionals <=

    0.1900   Vosko, Wilk & Nusair (VWN5_RPA)
    0.8100   Lee, Yang & Parr

   => LibXC Density Thresholds  <==

    XC_HYB_GGA_XC_B3LYP:  1.00E-15

   => Molecular Quadrature <=

    Radial Scheme          =       TREUTLER
    Pruning Scheme         =           NONE
    Nuclear Scheme         =       TREUTLER

    Blocking Scheme        =         OCTREE
    BS radius alpha        =              1
    Pruning alpha          =              1
    Radial Points          =             75
    Spherical Points       =            302
    Total Points           =          43782
    Total Blocks           =            433
    Max Points             =            248
    Max Functions          =             32
    Weights Tolerance      =       1.00E-15

  -Total Gradient:
     Atom            X                  Y                   Z
    ------   -----------------  -----------------  -----------------
       1        0.000000000000    -0.000000000000    -0.000050443935
       2        0.000000000000    -0.000000000000     0.000049341544

*** tstop() called on Joses-MacBook-Pro-2.local at Wed Jul 16 19:01:17 2025
Module time:
	user time   =       0.91 seconds =       0.02 minutes
	system time =       1.90 seconds =       0.03 minutes
	total time  =          1 seconds =       0.02 minutes
Total time:
	user time   =      62.31 seconds =       1.04 minutes
	system time =      71.33 seconds =       1.19 minutes
	total time  =         13 seconds =       0.22 minutes

    			-----------------------------------------

    			 OPTKING 3.0: for geometry optimizations

    			     By R.A. King, Bethel University

    			        with contributions from

    			    A.V. Copan, J. Cayton, A. Heide

    			-----------------------------------------

	                            ===> Fragment 1 <==

	 Z (Atomic Numbers)          Masses                          Geom
	       6.000000            12.000000          0.00000000  0.00000000  2.63863654
	      11.000000            22.989769          0.00000000  0.00000000 -1.37729257

	 - Coordinate -           - BOHR/RAD -       - ANG/DEG -
	 R(1,2)           =         4.015929           2.125138

	        --- Internal Coordinate Step in ANG or DEG, aJ/ANG or AJ/DEG ---
	-------------------------------------------------------------------------------
	           Coordinate      Previous         Force          Change          New
	           ----------      --------        ------          ------        ------
	               R(1,2)       2.12514        0.00041        0.00040       2.12554
	-------------------------------------------------------------------------------

	                                 ==> Convergence Check <==

	Measures of convergence in internal coordinates in au.

	Criteria marked as inactive (o), active & met (*), and active & unmet ( ).

	----------------------------------------------------------------------------------------------
	   Step    Total Energy     Delta E     Max Force     RMS Force      Max Disp      RMS Disp
	----------------------------------------------------------------------------------------------
	  Convergence Criteria     1.00e-06 *    3.00e-04 *             o    1.20e-03 *             o
	----------------------------------------------------------------------------------------------
	    12    -200.13072467   -5.34e-07 *    4.99e-05 *    4.99e-05 o    7.62e-04 *    7.62e-04 o  ~
	----------------------------------------------------------------------------------------------

Next Geometry in Ang
	Fragment 1 (Ang)

	    C   0.0000000000   0.0000000000   1.3965080670
	   Na   0.0000000000   0.0000000000  -0.7290335853

    Final optimized geometry and variables:
    Molecular point group: c2v
    Full point group: C_inf_v

    Geometry (in Angstrom), charge = 0, multiplicity = 2:

    C            0.000000000000     0.000000000000     1.396306322792
    NA           0.000000000000     0.000000000000    -0.728831841154

    Psi4 stopped on: Wednesday, 16 July 2025 07:01PM
    Psi4 wall time for execution: 0:00:13.61

*** Psi4 exiting successfully. Buy a developer a beer!
