                               Psi4 1.9.1 release

  ==> Input File <==

--------------------------------------------------------------------------
molecule {
0 2
Si   0.00000        0.60000        0.00000
Cl   0.00000       -0.60000        0.00000
}

set {
basis              cc-pvdz
reference          uks
maxiter            500
geom_maxiter       500
DAMPING_PERCENTAGE 1
guess              SAP
}

optimize('b3lyp')
--------------------------------------------------------------------------

    Molecular point group: c2v
  Charge       = 0
  Multiplicity = 2
  Basis Set: CC-PVDZ
    Blend: CC-PVDZ
  Basis Set: (CC-PVDZ AUX)
    Blend: CC-PVDZ-JKFIT
  @DF-UKS Final Energy:  -748.44694273300752
    Total Energy =                       -748.4469427330075177
 Dipole X            :          0.0000000            0.0000000            0.0000000
 Dipole Y            :          0.0000000            0.0000000            0.0000000
 Dipole Z            :         -1.8711867            0.5027826           -1.3684041
 Magnitude           :                                                    1.3684041
    Molecular point group: c2v
  Basis Set: CC-PVDZ
    Blend: CC-PVDZ
  Basis Set: (CC-PVDZ AUX)
    Blend: CC-PVDZ-JKFIT
  Basis Set: CC-PVDZ
    Blend: CC-PVDZ
  Basis Set: (CC-PVDZ AUX)
    Blend: CC-PVDZ-JKFIT
  @DF-UKS Final Energy:  -748.48558303544326
    Total Energy =                       -748.4855830354432555
  Basis Set: CC-PVDZ
    Blend: CC-PVDZ
  Basis Set: (CC-PVDZ AUX)
    Blend: CC-PVDZ-JKFIT
  Basis Set: CC-PVDZ
    Blend: CC-PVDZ
  @DF-UKS Final Energy:  -748.55767781683619
    Total Energy =                       -748.5576778168361898
  @DF-UKS Final Energy:  -748.79543991530204
    Total Energy =                       -748.7954399153020404
  @DF-UKS Final Energy:  -749.33285967961240
    Total Energy =                       -749.3328596796123975
  @DF-UKS Final Energy:  -749.51258709835656
    Total Energy =                       -749.5125870983565619
  @DF-UKS Final Energy:  -749.62217849194610
    Total Energy =                       -749.6221784919461015
  @DF-UKS Final Energy:  -749.67368403085550
    Total Energy =                       -749.6736840308554974
  @DF-UKS Final Energy:  -749.69335401977912
    Total Energy =                       -749.6933540197792354
  @DF-UKS Final Energy:  -749.69825852658391
    Total Energy =                       -749.6982585265839134
  @DF-UKS Final Energy:  -749.70002211845190
    Total Energy =                       -749.7000221184517841
  @DF-UKS Final Energy:  -749.70032844533466
    Total Energy =                       -749.7003284453346623
  @DF-UKS Final Energy:  -749.70038633200181
    Total Energy =                       -749.7003863320018127
  Basis Set: (CC-PVDZ AUX)
    Blend: CC-PVDZ-JKFIT
  Basis Set: CC-PVDZ
    Blend: CC-PVDZ
  Basis Set: (CC-PVDZ AUX)
    Blend: CC-PVDZ-JKFIT
  @DF-UKS Final Energy:  -749.70039947501641
    Total Energy =                       -749.7003994750164111
  Basis Set: CC-PVDZ
    Blend: CC-PVDZ
  Basis Set: (CC-PVDZ AUX)
    Blend: CC-PVDZ-JKFIT
  Charge       = 0
  Multiplicity = 2
  Basis Set: CC-PVDZ
    Blend: CC-PVDZ
  Basis Set: (CC-PVDZ AUX)
    Blend: CC-PVDZ-JKFIT

    Orbital Energies [Eh]
    ---------------------

    Alpha Occupied:

       1A1  -101.543458     2A1   -66.195802     3A1    -9.462551
       4A1    -7.221102     1B1    -7.218080     1B2    -7.216796
       5A1    -5.336250     2B1    -3.697212     2B2    -3.693582
       6A1    -3.692904     7A1    -0.828171     8A1    -0.490608
       3B2    -0.347651     3B1    -0.346054     9A1    -0.332165
       4B2    -0.181356

    Alpha Virtual:

       4B1    -0.118567    10A1    -0.005457    11A1     0.212554
      12A1     0.280302     5B2     0.282100     5B1     0.287989
       1A2     0.328191    13A1     0.332653     6B2     0.333980
       6B1     0.340011    14A1     0.406526     7B1     0.570736
       7B2     0.574092    15A1     0.658238     2A2     0.730759
      16A1     0.730855    17A1     0.767489     8B1     0.838740
       8B2     0.839177    18A1     1.205329

    Beta Occupied:

       1A1  -101.542922     2A1   -66.192776     3A1    -9.462030
       4A1    -7.220908     1B1    -7.217893     1B2    -7.214844
       5A1    -5.332846     2B1    -3.695424     6A1    -3.691167
       2B2    -3.682451     7A1    -0.824657     8A1    -0.471418
       3B1    -0.345145     3B2    -0.335651     9A1    -0.316445

    Beta Virtual:

       4B1    -0.109378     4B2    -0.078069    10A1     0.004250
      11A1     0.222270    12A1     0.285411     5B1     0.292318
       5B2     0.314572     6B1     0.342478     6B2     0.367113
      13A1     0.368494     1A2     0.370196    14A1     0.415576
       7B1     0.570688     7B2     0.577231    15A1     0.664887
      16A1     0.735370     2A2     0.735520    17A1     0.770517
       8B1     0.839815     8B2     0.851245    18A1     1.209001

    Final Occupation by Irrep:
             A1    A2    B1    B2
    DOCC [     9,    0,    3,    3 ]
    SOCC [     0,    0,    0,    1 ]
    NA   [     9,    0,    3,    4 ]
    NB   [     9,    0,    3,    3 ]

  @DF-UKS Final Energy:  -749.70040053617151

   => Energetics <=

    Nuclear Repulsion Energy =             59.4042700227271894
    One-Electron Energy =               -1154.7089421710347779
    Two-Electron Energy =                 385.1726213363002671
    DFT Exchange-Correlation Energy =     -39.5683497241640865
    Empirical Dispersion Energy =           0.0000000000000000
    VV10 Nonlocal Energy =                  0.0000000000000000
    Total Energy =                       -749.7004005361715144

  UHF NO Occupations:
  HONO-2 :    3 B2 1.9999129
  HONO-1 :    9 A1 1.9981817
  HONO-0 :    4 B2 1.0000000
  LUNO+0 :   10 A1 0.0018183
  LUNO+1 :    5 B2 0.0000871
  LUNO+2 :    4 B1 0.0000781
  LUNO+3 :   11 A1 0.0000287

Computation Completed

Properties will be evaluated at   0.000000,   0.000000,   0.000000 [a0]

Properties computed using the SCF density matrix

 Multipole Moments:

 ------------------------------------------------------------------------------------
     Multipole            Electronic (a.u.)      Nuclear  (a.u.)        Total (a.u.)
 ------------------------------------------------------------------------------------

 L = 1.  Multiply by 2.5417464519 to convert [e a0] to [Debye]
 Dipole X            :          0.0000000            0.0000000            0.0000000
 Dipole Y            :          0.0000000            0.0000000            0.0000000
 Dipole Z            :         -0.4210342            0.8882996            0.4672654
 Magnitude           :                                                    0.4672654

 ------------------------------------------------------------------------------------

*** tstop() called on Joses-MacBook-Pro-2.local at Wed Jul 16 20:17:17 2025
Module time:
	user time   =       7.90 seconds =       0.13 minutes
	system time =       1.50 seconds =       0.03 minutes
	total time  =          1 seconds =       0.02 minutes
Total time:
	user time   =     174.62 seconds =       2.91 minutes
	system time =      40.48 seconds =       0.67 minutes
	total time  =         20 seconds =       0.33 minutes

*** tstart() called on Joses-MacBook-Pro-2.local
*** at Wed Jul 16 20:17:17 2025

         ------------------------------------------------------------
                                   SCF GRAD
                          Rob Parrish, Justin Turney,
                       Andy Simmonett, and Alex Sokolov
         ------------------------------------------------------------

  ==> Geometry <==

    Molecular point group: c2v
    Full point group: C_inf_v

    Geometry (in Angstrom), charge = 0, multiplicity = 2:

       Center              X                  Y                   Z               Mass
    ------------   -----------------  -----------------  -----------------  -----------------
         SI           0.000000000000     0.000000000000     1.177809887062    27.976926534650
         CL           0.000000000000     0.000000000000    -0.942310031781    34.968852682000

  Nuclear repulsion =   59.404270022727189

  ==> Basis Set <==

  Basis Set: CC-PVDZ
    Blend: CC-PVDZ
    Number of shells: 16
    Number of basis functions: 36
    Number of Cartesian functions: 38
    Spherical Harmonics?: true
    Max angular momentum: 2

  ==> DFJKGrad: Density-Fitted SCF Gradients <==

    Gradient:                    1
    J tasked:                  Yes
    K tasked:                  Yes
    wK tasked:                  No
    OpenMP threads:              1
    Integrals threads:           1
    Memory [MiB]:              375
    Schwarz Cutoff:          1E-12
    Fitting Condition:       1E-10

   => Auxiliary Basis Set <=

  Basis Set: (CC-PVDZ AUX)
    Blend: CC-PVDZ-JKFIT
    Number of shells: 72
    Number of basis functions: 224
    Number of Cartesian functions: 260
    Spherical Harmonics?: true
    Max angular momentum: 3

  ==> DFT Potential <==

   => LibXC <=

    Version 6.2.2
    S. Lehtola, C. Steigemann, M. J.T. Oliveira, and M. A.L. Marques.,  SoftwareX 7, 1â€“5 (2018) (10.1016/j.softx.2017.11.002)

   => Composite Functional: B3LYP <=

    B3LYP Hyb-GGA Exchange-Correlation Functional

    P. J. Stephens, F. J. Devlin, C. F. Chabalowski, and M. J. Frisch.,  J. Phys. Chem. 98, 11623 (1994) (10.1021/j100096a001)

    Deriv               =              1
    GGA                 =           TRUE
    Meta                =          FALSE

    Exchange Hybrid     =           TRUE
    MP2 Hybrid          =          FALSE

   => Exchange Functionals <=

    0.0800   Slater exchange
    0.7200         Becke 88

   => Exact (HF) Exchange <=

    0.2000               HF

   => Correlation Functionals <=

    0.1900   Vosko, Wilk & Nusair (VWN5_RPA)
    0.8100   Lee, Yang & Parr

   => LibXC Density Thresholds  <==

    XC_HYB_GGA_XC_B3LYP:  1.00E-15

   => Molecular Quadrature <=

    Radial Scheme          =       TREUTLER
    Pruning Scheme         =           NONE
    Nuclear Scheme         =       TREUTLER

    Blocking Scheme        =         OCTREE
    BS radius alpha        =              1
    Pruning alpha          =              1
    Radial Points          =             75
    Spherical Points       =            302
    Total Points           =          41600
    Total Blocks           =            382
    Max Points             =            256
    Max Functions          =             36
    Weights Tolerance      =       1.00E-15

  -Total Gradient:
     Atom            X                  Y                   Z
    ------   -----------------  -----------------  -----------------
       1       -0.000000000000    -0.000000000000    -0.000085930853
       2       -0.000000000000     0.000000000000     0.000110696470

*** tstop() called on Joses-MacBook-Pro-2.local at Wed Jul 16 20:17:17 2025
Module time:
	user time   =       2.67 seconds =       0.04 minutes
	system time =       0.97 seconds =       0.02 minutes
	total time  =          0 seconds =       0.00 minutes
Total time:
	user time   =     177.29 seconds =       2.95 minutes
	system time =      41.45 seconds =       0.69 minutes
	total time  =         20 seconds =       0.33 minutes

    			-----------------------------------------

    			 OPTKING 3.0: for geometry optimizations

    			     By R.A. King, Bethel University

    			        with contributions from

    			    A.V. Copan, J. Cayton, A. Heide

    			-----------------------------------------

	                            ===> Fragment 1 <==

	 Z (Atomic Numbers)          Masses                          Geom
	      14.000000            27.976927          0.00000000  0.00000000  2.22573811
	      17.000000            34.968853          0.00000000  0.00000000 -1.78070789

	 - Coordinate -           - BOHR/RAD -       - ANG/DEG -
	 R(1,2)           =         4.006446           2.120120

	        --- Internal Coordinate Step in ANG or DEG, aJ/ANG or AJ/DEG ---
	-------------------------------------------------------------------------------
	           Coordinate      Previous         Force          Change          New
	           ----------      --------        ------          ------        ------
	               R(1,2)       2.12012        0.00081        0.00032       2.12044
	-------------------------------------------------------------------------------

	                                 ==> Convergence Check <==

	Measures of convergence in internal coordinates in au.

	Criteria marked as inactive (o), active & met (*), and active & unmet ( ).

	----------------------------------------------------------------------------------------------
	   Step    Total Energy     Delta E     Max Force     RMS Force      Max Disp      RMS Disp
	----------------------------------------------------------------------------------------------
	  Convergence Criteria     1.00e-06 *    3.00e-04 *             o    1.20e-03 *             o
	----------------------------------------------------------------------------------------------
	    15    -749.70040054   -1.06e-06      9.83e-05 *    9.83e-05 o    6.06e-04 *    6.06e-04 o  ~
	----------------------------------------------------------------------------------------------

Next Geometry in Ang
	Fragment 1 (Ang)

	   Si   0.0000000000   0.0000000000   1.1779701615
	   Cl   0.0000000000   0.0000000000  -0.9424703062

    Final optimized geometry and variables:
    Molecular point group: c2v
    Full point group: C_inf_v

    Geometry (in Angstrom), charge = 0, multiplicity = 2:

    SI           0.000000000000     0.000000000000     1.177809887062
    CL           0.000000000000     0.000000000000    -0.942310031781

    Psi4 stopped on: Wednesday, 16 July 2025 08:17PM
    Psi4 wall time for execution: 0:00:21.52

*** Psi4 exiting successfully. Buy a developer a beer!
