                               Psi4 1.9.1 release

  ==> Input File <==

--------------------------------------------------------------------------
molecule {
0 2
Be   0.00000        0.60000        0.00000
B   0.00000       -0.60000        0.00000
}

set {
basis              cc-pvdz
reference          uks
maxiter            500
geom_maxiter       500
DAMPING_PERCENTAGE 1
guess              SAP
}

optimize('b3lyp')
--------------------------------------------------------------------------

    Molecular point group: c2v
  Charge       = 0
  Multiplicity = 2
  Basis Set: CC-PVDZ
    Blend: CC-PVDZ
  Basis Set: (CC-PVDZ AUX)
    Blend: CC-PVDZ-JKFIT + DEF2-UNIVERSAL-JKFIT
  @DF-UKS Final Energy:   -39.14917011733910
    Total Energy =                        -39.1491701173390965
 Dipole X            :          0.0000000            0.0000000            0.0000000
 Dipole Y            :          0.0000000            0.0000000            0.0000000
 Dipole Z            :          0.7315189           -0.1159455            0.6155734
 Magnitude           :                                                    0.6155734
    Molecular point group: c2v
  Basis Set: CC-PVDZ
    Blend: CC-PVDZ
  Basis Set: (CC-PVDZ AUX)
    Blend: CC-PVDZ-JKFIT + DEF2-UNIVERSAL-JKFIT
  Basis Set: CC-PVDZ
    Blend: CC-PVDZ
  Basis Set: (CC-PVDZ AUX)
    Blend: CC-PVDZ-JKFIT + DEF2-UNIVERSAL-JKFIT
  @DF-UKS Final Energy:   -39.23921219543601
    Total Energy =                        -39.2392121954360178
  Basis Set: CC-PVDZ
    Blend: CC-PVDZ
  Basis Set: (CC-PVDZ AUX)
    Blend: CC-PVDZ-JKFIT + DEF2-UNIVERSAL-JKFIT
  Basis Set: CC-PVDZ
    Blend: CC-PVDZ
  @DF-UKS Final Energy:   -39.25823240740959
    Total Energy =                        -39.2582324074095794
  @DF-UKS Final Energy:   -39.26327006360119
    Total Energy =                        -39.2632700636011833
  @DF-UKS Final Energy:   -39.32903426312462
    Total Energy =                        -39.3290342631246190
  @DF-UKS Final Energy:   -39.33620287159486
    Total Energy =                        -39.3362028715948568
  @DF-UKS Final Energy:   -39.33625802604925
    Total Energy =                        -39.3362580260492507
  @DF-UKS Final Energy:   -39.33626136075156
    Total Energy =                        -39.3362613607515499
  Basis Set: (CC-PVDZ AUX)
    Blend: CC-PVDZ-JKFIT + DEF2-UNIVERSAL-JKFIT
  Basis Set: CC-PVDZ
    Blend: CC-PVDZ
  Basis Set: (CC-PVDZ AUX)
    Blend: CC-PVDZ-JKFIT + DEF2-UNIVERSAL-JKFIT
  @DF-UKS Final Energy:   -39.33626108102126
    Total Energy =                        -39.3362610810212630
  Basis Set: CC-PVDZ
    Blend: CC-PVDZ
  Basis Set: (CC-PVDZ AUX)
    Blend: CC-PVDZ-JKFIT + DEF2-UNIVERSAL-JKFIT
  Charge       = 0
  Multiplicity = 2
  Basis Set: CC-PVDZ
    Blend: CC-PVDZ
  Basis Set: (CC-PVDZ AUX)
    Blend: CC-PVDZ-JKFIT + DEF2-UNIVERSAL-JKFIT

    Orbital Energies [Eh]
    ---------------------

    Alpha Occupied:

       1A1    -6.809240     2A1    -4.100737     3A1    -0.418559
       4A1    -0.238821     1B1    -0.193624

    Alpha Virtual:

       5A1    -0.132072     1B2    -0.099273     2B1    -0.010625
       2B2     0.023404     6A1     0.083281     7A1     0.162276
       3B1     0.169363     3B2     0.187491     8A1     0.274357
       4B1     0.331336     4B2     0.359712     9A1     0.363207
       1A2     0.448222    10A1     0.451057     5B1     0.515159
       5B2     0.543101    11A1     0.599334     2A2     0.776384
      12A1     0.780352    13A1     0.909548     6B1     0.984982
       6B2     1.012037    14A1     1.229638

    Beta Occupied:

       1A1    -6.802025     2A1    -4.092449     3A1    -0.405095
       1B2    -0.182227

    Beta Virtual:

       4A1    -0.136799     1B1    -0.084592     5A1    -0.079243
       2B2     0.009625     2B1     0.047180     6A1     0.089129
       3B2     0.178128     7A1     0.184112     3B1     0.201145
       8A1     0.295255     4B2     0.336492     4B1     0.369062
       9A1     0.398224     1A2     0.464365    10A1     0.471629
       5B2     0.538697     5B1     0.575328    11A1     0.622293
       2A2     0.787982    12A1     0.794371    13A1     0.928767
       6B2     1.012627     6B1     1.047950    14A1     1.258266

    Final Occupation by Irrep:
             A1    A2    B1    B2
Warning! Irrep has more beta than alpha electrons in symmetry 3 orbitals.
Warning! Irrep has more beta than alpha electrons in symmetry 3 orbitals.
    DOCC [     3,    0,    0,    0 ]
    SOCC [     1,    0,    1,    1 ]
    NA   [     4,    0,    1,    0 ]
    NB   [     3,    0,    0,    1 ]

  @DF-UKS Final Energy:   -39.33626142426138

   => Energetics <=

    Nuclear Repulsion Energy =              6.1769558410107859
    One-Electron Energy =                 -63.8291613647688933
    Two-Electron Energy =                  23.7833034649937893
    DFT Exchange-Correlation Energy =      -5.4673593654970594
    Empirical Dispersion Energy =           0.0000000000000000
    VV10 Nonlocal Energy =                  0.0000000000000000
    Total Energy =                        -39.3362614242613802

  UHF NO Occupations:
  HONO-2 :    3 A1 1.9910799
  HONO-1 :    1 B1 1.0000000
  HONO-0 :    1 B2 1.0000000
  LUNO+0 :    4 A1 1.0000000
  LUNO+1 :    5 A1 0.0089201
  LUNO+2 :    6 A1 0.0000004
  LUNO+3 :    7 A1 0.0000002

Computation Completed

Properties will be evaluated at   0.000000,   0.000000,   0.000000 [a0]

Properties computed using the SCF density matrix

 Multipole Moments:

 ------------------------------------------------------------------------------------
     Multipole            Electronic (a.u.)      Nuclear  (a.u.)        Total (a.u.)
 ------------------------------------------------------------------------------------

 L = 1.  Multiply by 2.5417464519 to convert [e a0] to [Debye]
 Dipole X            :          0.0000000            0.0000000            0.0000000
 Dipole Y            :          0.0000000            0.0000000            0.0000000
 Dipole Z            :          1.0053063           -0.1655500            0.8397563
 Magnitude           :                                                    0.8397563

 ------------------------------------------------------------------------------------
Warning! Irrep has more beta than alpha electrons in symmetry 3 orbitals.
Warning! Irrep has more beta than alpha electrons in symmetry 3 orbitals.

*** tstop() called on Joses-MacBook-Pro-2.local at Wed Jul 16 18:39:32 2025
Module time:
	user time   =       2.37 seconds =       0.04 minutes
	system time =       3.62 seconds =       0.06 minutes
	total time  =          0 seconds =       0.00 minutes
Total time:
	user time   =      55.21 seconds =       0.92 minutes
	system time =      46.08 seconds =       0.77 minutes
	total time  =         10 seconds =       0.17 minutes

*** tstart() called on Joses-MacBook-Pro-2.local
*** at Wed Jul 16 18:39:32 2025

         ------------------------------------------------------------
                                   SCF GRAD
                          Rob Parrish, Justin Turney,
                       Andy Simmonett, and Alex Sokolov
         ------------------------------------------------------------

  ==> Geometry <==

    Molecular point group: c2v
    Full point group: C_inf_v

    Geometry (in Angstrom), charge = 0, multiplicity = 2:

       Center              X                  Y                   Z               Mass
    ------------   -----------------  -----------------  -----------------  -----------------
         BE           0.000000000000     0.000000000000     0.942150296583     9.012183065000
         B            0.000000000000     0.000000000000    -0.771241297239    11.009305360000

  Nuclear repulsion =    6.176955841010786

  ==> Basis Set <==

  Basis Set: CC-PVDZ
    Blend: CC-PVDZ
    Number of shells: 12
    Number of basis functions: 28
    Number of Cartesian functions: 30
    Spherical Harmonics?: true
    Max angular momentum: 2

  ==> DFJKGrad: Density-Fitted SCF Gradients <==

    Gradient:                    1
    J tasked:                  Yes
    K tasked:                  Yes
    wK tasked:                  No
    OpenMP threads:              1
    Integrals threads:           1
    Memory [MiB]:              375
    Schwarz Cutoff:          1E-12
    Fitting Condition:       1E-10

   => Auxiliary Basis Set <=

  Basis Set: (CC-PVDZ AUX)
    Blend: CC-PVDZ-JKFIT + DEF2-UNIVERSAL-JKFIT
    Number of shells: 41
    Number of basis functions: 121
    Number of Cartesian functions: 141
    Spherical Harmonics?: true
    Max angular momentum: 3

  ==> DFT Potential <==

   => LibXC <=

    Version 6.2.2
    S. Lehtola, C. Steigemann, M. J.T. Oliveira, and M. A.L. Marques.,  SoftwareX 7, 1â€“5 (2018) (10.1016/j.softx.2017.11.002)

   => Composite Functional: B3LYP <=

    B3LYP Hyb-GGA Exchange-Correlation Functional

    P. J. Stephens, F. J. Devlin, C. F. Chabalowski, and M. J. Frisch.,  J. Phys. Chem. 98, 11623 (1994) (10.1021/j100096a001)

    Deriv               =              1
    GGA                 =           TRUE
    Meta                =          FALSE

    Exchange Hybrid     =           TRUE
    MP2 Hybrid          =          FALSE

   => Exchange Functionals <=

    0.0800   Slater exchange
    0.7200         Becke 88

   => Exact (HF) Exchange <=

    0.2000               HF

   => Correlation Functionals <=

    0.1900   Vosko, Wilk & Nusair (VWN5_RPA)
    0.8100   Lee, Yang & Parr

   => LibXC Density Thresholds  <==

    XC_HYB_GGA_XC_B3LYP:  1.00E-15

   => Molecular Quadrature <=

    Radial Scheme          =       TREUTLER
    Pruning Scheme         =           NONE
    Nuclear Scheme         =       TREUTLER

    Blocking Scheme        =         OCTREE
    BS radius alpha        =              1
    Pruning alpha          =              1
    Radial Points          =             75
    Spherical Points       =            302
    Total Points           =          43071
    Total Blocks           =            402
    Max Points             =            256
    Max Functions          =             28
    Weights Tolerance      =       1.00E-15

  -Total Gradient:
     Atom            X                  Y                   Z
    ------   -----------------  -----------------  -----------------
       1       -0.000000000000     0.000000000000     0.000100622185
       2        0.000000000000    -0.000000000000    -0.000096155988

*** tstop() called on Joses-MacBook-Pro-2.local at Wed Jul 16 18:39:32 2025
Module time:
	user time   =       0.41 seconds =       0.01 minutes
	system time =       1.25 seconds =       0.02 minutes
	total time  =          0 seconds =       0.00 minutes
Total time:
	user time   =      55.62 seconds =       0.93 minutes
	system time =      47.33 seconds =       0.79 minutes
	total time  =         10 seconds =       0.17 minutes

    			-----------------------------------------

    			 OPTKING 3.0: for geometry optimizations

    			     By R.A. King, Bethel University

    			        with contributions from

    			    A.V. Copan, J. Cayton, A. Heide

    			-----------------------------------------

	                            ===> Fragment 1 <==

	 Z (Atomic Numbers)          Masses                          Geom
	       4.000000             9.012183          0.00000000  0.00000000  1.78040603
	       5.000000            11.009305          0.00000000  0.00000000 -1.45743483

	 - Coordinate -           - BOHR/RAD -       - ANG/DEG -
	 R(1,2)           =         3.237841           1.713392

	        --- Internal Coordinate Step in ANG or DEG, aJ/ANG or AJ/DEG ---
	-------------------------------------------------------------------------------
	           Coordinate      Previous         Force          Change          New
	           ----------      --------        ------          ------        ------
	               R(1,2)       1.71339       -0.00081       -0.00031       1.71309
	-------------------------------------------------------------------------------

	                                 ==> Convergence Check <==

	Measures of convergence in internal coordinates in au.

	Criteria marked as inactive (o), active & met (*), and active & unmet ( ).

	----------------------------------------------------------------------------------------------
	   Step    Total Energy     Delta E     Max Force     RMS Force      Max Disp      RMS Disp
	----------------------------------------------------------------------------------------------
	  Convergence Criteria     1.00e-06 *    3.00e-04 *             o    1.20e-03 *             o
	----------------------------------------------------------------------------------------------
	    10     -39.33626142   -3.43e-07 *    9.84e-05 *    9.84e-05 o    5.78e-04 *    5.78e-04 o  ~
	----------------------------------------------------------------------------------------------

Next Geometry in Ang
	Fragment 1 (Ang)

	   Be   0.0000000000   0.0000000000   0.9419973892
	    B   0.0000000000   0.0000000000  -0.7710883899

    Final optimized geometry and variables:
    Molecular point group: c2v
    Full point group: C_inf_v

    Geometry (in Angstrom), charge = 0, multiplicity = 2:

    BE           0.000000000000     0.000000000000     0.942150296583
    B            0.000000000000     0.000000000000    -0.771241297239

    Psi4 stopped on: Wednesday, 16 July 2025 06:39PM
    Psi4 wall time for execution: 0:00:10.82

*** Psi4 exiting successfully. Buy a developer a beer!
