                               Psi4 1.9.1 release

  ==> Input File <==

--------------------------------------------------------------------------
molecule {
0 2
He   0.00000        0.60000        0.00000
Cl   0.00000       -0.60000        0.00000
}

set {
basis              cc-pvdz
reference          uks
maxiter            500
geom_maxiter       500
DAMPING_PERCENTAGE 1
guess              SAP
}

optimize('b3lyp')
--------------------------------------------------------------------------

    Molecular point group: c2v
  Charge       = 0
  Multiplicity = 2
  Basis Set: CC-PVDZ
    Blend: CC-PVDZ
  Basis Set: (CC-PVDZ AUX)
    Blend: CC-PVDZ-JKFIT + DEF2-UNIVERSAL-JKFIT
  @DF-UKS Final Energy:  -462.81660516850241
    Total Energy =                       -462.8166051685024058
 Dipole X            :          0.0000000            0.0000000            0.0000000
 Dipole Y            :          0.0000000            0.0000000            0.0000000
 Dipole Z            :          0.6913742            0.1101761            0.8015503
 Magnitude           :                                                    0.8015503
    Molecular point group: c2v
  Basis Set: CC-PVDZ
    Blend: CC-PVDZ
  Basis Set: (CC-PVDZ AUX)
    Blend: CC-PVDZ-JKFIT + DEF2-UNIVERSAL-JKFIT
  Basis Set: CC-PVDZ
    Blend: CC-PVDZ
  Basis Set: (CC-PVDZ AUX)
    Blend: CC-PVDZ-JKFIT + DEF2-UNIVERSAL-JKFIT
  @DF-UKS Final Energy:  -462.96834105863047
    Total Energy =                       -462.9683410586305286
  Basis Set: CC-PVDZ
    Blend: CC-PVDZ
  Basis Set: (CC-PVDZ AUX)
    Blend: CC-PVDZ-JKFIT + DEF2-UNIVERSAL-JKFIT
  Basis Set: CC-PVDZ
    Blend: CC-PVDZ
  @DF-UKS Final Energy:  -463.01092571762968
    Total Energy =                       -463.0109257176296182
  @DF-UKS Final Energy:  -463.03841810787310
    Total Energy =                       -463.0384181078730990
  @DF-UKS Final Energy:  -463.05197780321151
    Total Energy =                       -463.0519778032115141
  @DF-UKS Final Energy:  -463.05903949264575
    Total Energy =                       -463.0590394926456952
  @DF-UKS Final Energy:  -463.06252302176426
    Total Energy =                       -463.0625230217642638
  @DF-UKS Final Energy:  -463.06419532172123
    Total Energy =                       -463.0641953217212858
  @DF-UKS Final Energy:  -463.06497727190202
    Total Energy =                       -463.0649772719019666
  @DF-UKS Final Energy:  -463.06533283759359
    Total Energy =                       -463.0653328375935871
  @DF-UKS Final Energy:  -463.06548809575565
    Total Energy =                       -463.0654880957556543
  @DF-UKS Final Energy:  -463.06553829300140
    Total Energy =                       -463.0655382930014525
  @DF-UKS Final Energy:  -463.06556628096439
    Total Energy =                       -463.0655662809643331
  @DF-UKS Final Energy:  -463.06557894832429
    Total Energy =                       -463.0655789483243439
  @DF-UKS Final Energy:  -463.06558242750134
    Total Energy =                       -463.0655824275013401
  Basis Set: (CC-PVDZ AUX)
    Blend: CC-PVDZ-JKFIT + DEF2-UNIVERSAL-JKFIT
  Basis Set: CC-PVDZ
    Blend: CC-PVDZ
  Basis Set: (CC-PVDZ AUX)
    Blend: CC-PVDZ-JKFIT + DEF2-UNIVERSAL-JKFIT
  @DF-UKS Final Energy:  -463.06558374318530
    Total Energy =                       -463.0655837431853001
  Basis Set: CC-PVDZ
    Blend: CC-PVDZ
  Basis Set: (CC-PVDZ AUX)
    Blend: CC-PVDZ-JKFIT + DEF2-UNIVERSAL-JKFIT
  Charge       = 0
  Multiplicity = 2
  Basis Set: CC-PVDZ
    Blend: CC-PVDZ
  Basis Set: (CC-PVDZ AUX)
    Blend: CC-PVDZ-JKFIT + DEF2-UNIVERSAL-JKFIT

    Orbital Energies [Eh]
    ---------------------

    Alpha Occupied:

       1A1  -101.590687     2A1    -9.504781     3A1    -7.278597
       1B1    -7.254975     1B2    -7.254975     4A1    -0.842232
       5A1    -0.658031     6A1    -0.404089     2B2    -0.348873
       2B1    -0.348873

    Alpha Virtual:

       7A1     0.494272     3B1     0.530417     3B2     0.530417
       8A1     0.576009     9A1     0.654636     4B1     0.667978
       4B2     0.667978     1A2     0.712091    10A1     0.712091
      11A1     1.130935     5B1     2.181600     5B2     2.181600
      12A1     2.183340

    Beta Occupied:

       1A1  -101.583967     2A1    -9.498143     3A1    -7.256668
       1B2    -7.250995     1B1    -7.250995     4A1    -0.788883
       5A1    -0.657761     2B1    -0.332944     2B2    -0.332944

    Beta Virtual:

       6A1    -0.242223     3B1     0.537772     3B2     0.537772
       7A1     0.539474     8A1     0.596674     1A2     0.720390
       9A1     0.720390     4B1     0.725659     4B2     0.725659
      10A1     0.734479    11A1     1.131468     5B1     2.181738
       5B2     2.181738    12A1     2.183530

    Final Occupation by Irrep:
             A1    A2    B1    B2
    DOCC [     5,    0,    2,    2 ]
    SOCC [     1,    0,    0,    0 ]
    NA   [     6,    0,    2,    2 ]
    NB   [     5,    0,    2,    2 ]

  @DF-UKS Final Energy:  -463.06558446111052

   => Energetics <=

    Nuclear Repulsion Energy =              5.6101889883004104
    One-Electron Energy =                -650.1351790101265351
    Two-Electron Energy =                 205.0495253897172461
    DFT Exchange-Correlation Energy =     -23.5901198290015870
    Empirical Dispersion Energy =           0.0000000000000000
    VV10 Nonlocal Energy =                  0.0000000000000000
    Total Energy =                       -463.0655844611105181

  UHF NO Occupations:
  HONO-2 :    2 B1 1.9999741
  HONO-1 :    5 A1 1.9991391
  HONO-0 :    6 A1 1.0000000
  LUNO+0 :    7 A1 0.0008609
  LUNO+1 :    3 B2 0.0000259
  LUNO+2 :    3 B1 0.0000259
  LUNO+3 :    8 A1 0.0000001

Computation Completed

Properties will be evaluated at   0.000000,   0.000000,   0.000000 [a0]

Properties computed using the SCF density matrix

 Multipole Moments:

 ------------------------------------------------------------------------------------
     Multipole            Electronic (a.u.)      Nuclear  (a.u.)        Total (a.u.)
 ------------------------------------------------------------------------------------

 L = 1.  Multiply by 2.5417464519 to convert [e a0] to [Debye]
 Dipole X            :          0.0000000            0.0000000            0.0000000
 Dipole Y            :          0.0000000            0.0000000            0.0000000
 Dipole Z            :         -0.2874857            0.2944480            0.0069623
 Magnitude           :                                                    0.0069623

 ------------------------------------------------------------------------------------

*** tstop() called on Joses-MacBook-Pro-2.local at Wed Jul 16 18:26:27 2025
Module time:
	user time   =       1.60 seconds =       0.03 minutes
	system time =       2.80 seconds =       0.05 minutes
	total time  =          1 seconds =       0.02 minutes
Total time:
	user time   =     102.51 seconds =       1.71 minutes
	system time =      65.75 seconds =       1.10 minutes
	total time  =         18 seconds =       0.30 minutes

*** tstart() called on Joses-MacBook-Pro-2.local
*** at Wed Jul 16 18:26:27 2025

         ------------------------------------------------------------
                                   SCF GRAD
                          Rob Parrish, Justin Turney,
                       Andy Simmonett, and Alex Sokolov
         ------------------------------------------------------------

  ==> Geometry <==

    Molecular point group: c2v
    Full point group: C_inf_v

    Geometry (in Angstrom), charge = 0, multiplicity = 2:

       Center              X                  Y                   Z               Mass
    ------------   -----------------  -----------------  -----------------  -----------------
         HE           0.000000000000     0.000000000000     2.877645627309     4.002603254130
         CL           0.000000000000     0.000000000000    -0.329380945290    34.968852682000

  Nuclear repulsion =    5.610188988300410

  ==> Basis Set <==

  Basis Set: CC-PVDZ
    Blend: CC-PVDZ
    Number of shells: 11
    Number of basis functions: 23
    Number of Cartesian functions: 24
    Spherical Harmonics?: true
    Max angular momentum: 2

  ==> DFJKGrad: Density-Fitted SCF Gradients <==

    Gradient:                    1
    J tasked:                  Yes
    K tasked:                  Yes
    wK tasked:                  No
    OpenMP threads:              1
    Integrals threads:           1
    Memory [MiB]:              375
    Schwarz Cutoff:          1E-12
    Fitting Condition:       1E-10

   => Auxiliary Basis Set <=

  Basis Set: (CC-PVDZ AUX)
    Blend: CC-PVDZ-JKFIT + DEF2-UNIVERSAL-JKFIT
    Number of shells: 45
    Number of basis functions: 135
    Number of Cartesian functions: 155
    Spherical Harmonics?: true
    Max angular momentum: 3

  ==> DFT Potential <==

   => LibXC <=

    Version 6.2.2
    S. Lehtola, C. Steigemann, M. J.T. Oliveira, and M. A.L. Marques.,  SoftwareX 7, 1â€“5 (2018) (10.1016/j.softx.2017.11.002)

   => Composite Functional: B3LYP <=

    B3LYP Hyb-GGA Exchange-Correlation Functional

    P. J. Stephens, F. J. Devlin, C. F. Chabalowski, and M. J. Frisch.,  J. Phys. Chem. 98, 11623 (1994) (10.1021/j100096a001)

    Deriv               =              1
    GGA                 =           TRUE
    Meta                =          FALSE

    Exchange Hybrid     =           TRUE
    MP2 Hybrid          =          FALSE

   => Exchange Functionals <=

    0.0800   Slater exchange
    0.7200         Becke 88

   => Exact (HF) Exchange <=

    0.2000               HF

   => Correlation Functionals <=

    0.1900   Vosko, Wilk & Nusair (VWN5_RPA)
    0.8100   Lee, Yang & Parr

   => LibXC Density Thresholds  <==

    XC_HYB_GGA_XC_B3LYP:  1.00E-15

   => Molecular Quadrature <=

    Radial Scheme          =       TREUTLER
    Pruning Scheme         =           NONE
    Nuclear Scheme         =       TREUTLER

    Blocking Scheme        =         OCTREE
    BS radius alpha        =              1
    Pruning alpha          =              1
    Radial Points          =             75
    Spherical Points       =            302
    Total Points           =          42244
    Total Blocks           =            382
    Max Points             =            254
    Max Functions          =             23
    Weights Tolerance      =       1.00E-15

  -Total Gradient:
     Atom            X                  Y                   Z
    ------   -----------------  -----------------  -----------------
       1        0.000000000000     0.000000000000    -0.000017152601
       2        0.000000000000     0.000000000000     0.000006335342

*** tstop() called on Joses-MacBook-Pro-2.local at Wed Jul 16 18:26:27 2025
Module time:
	user time   =       0.67 seconds =       0.01 minutes
	system time =       1.05 seconds =       0.02 minutes
	total time  =          0 seconds =       0.00 minutes
Total time:
	user time   =     103.18 seconds =       1.72 minutes
	system time =      66.80 seconds =       1.11 minutes
	total time  =         18 seconds =       0.30 minutes

    			-----------------------------------------

    			 OPTKING 3.0: for geometry optimizations

    			     By R.A. King, Bethel University

    			        with contributions from

    			    A.V. Copan, J. Cayton, A. Heide

    			-----------------------------------------

	                            ===> Fragment 1 <==

	 Z (Atomic Numbers)          Masses                          Geom
	       2.000000             4.002603          0.00000000  0.00000000  5.43796212
	      17.000000            34.968853          0.00000000  0.00000000 -0.62243978

	 - Coordinate -           - BOHR/RAD -       - ANG/DEG -
	 R(1,2)           =         6.060402           3.207027

	        --- Internal Coordinate Step in ANG or DEG, aJ/ANG or AJ/DEG ---
	-------------------------------------------------------------------------------
	           Coordinate      Previous         Force          Change          New
	           ----------      --------        ------          ------        ------
	               R(1,2)       3.20703        0.00010        0.01379       3.22081
	-------------------------------------------------------------------------------

	                                 ==> Convergence Check <==

	Measures of convergence in internal coordinates in au.

	Criteria marked as inactive (o), active & met (*), and active & unmet ( ).

	----------------------------------------------------------------------------------------------
	   Step    Total Energy     Delta E     Max Force     RMS Force      Max Disp      RMS Disp
	----------------------------------------------------------------------------------------------
	  Convergence Criteria     1.00e-06 *    3.00e-04 *             o    1.20e-03 *             o
	----------------------------------------------------------------------------------------------
	    17    -463.06558446   -7.18e-07 *    1.17e-05 *    1.17e-05 o    2.61e-02      2.61e-02 o  ~
	----------------------------------------------------------------------------------------------

Next Geometry in Ang
	Fragment 1 (Ang)

	   He   0.0000000000   0.0000000000   2.8845388385
	   Cl   0.0000000000   0.0000000000  -0.3362741564

    Final optimized geometry and variables:
    Molecular point group: c2v
    Full point group: C_inf_v

    Geometry (in Angstrom), charge = 0, multiplicity = 2:

    HE           0.000000000000     0.000000000000     2.877645627309
    CL           0.000000000000     0.000000000000    -0.329380945290

    Psi4 stopped on: Wednesday, 16 July 2025 06:26PM
    Psi4 wall time for execution: 0:00:18.25

*** Psi4 exiting successfully. Buy a developer a beer!
