                               Psi4 1.9.1 release

  ==> Input File <==

--------------------------------------------------------------------------
molecule {
0 2
H   0.00000        0.60000        0.00000
Mg   0.00000       -0.60000        0.00000
}

set {
basis              cc-pvdz
reference          uks
maxiter            500
geom_maxiter       500
DAMPING_PERCENTAGE 1
guess              SAP
}

optimize('b3lyp')
--------------------------------------------------------------------------

    Molecular point group: c2v
  Charge       = 0
  Multiplicity = 2
  Basis Set: CC-PVDZ
    Blend: CC-PVDZ
  Basis Set: (CC-PVDZ AUX)
    Blend: CC-PVDZ-JKFIT + DEF2-UNIVERSAL-JKFIT
  @DF-UKS Final Energy:  -200.55560632938932
    Total Energy =                       -200.5556063293893203
 Dipole X            :          0.0000000            0.0000000            0.0000000
 Dipole Y            :          0.0000000            0.0000000            0.0000000
 Dipole Z            :         -1.0970029            1.0789159           -0.0180871
 Magnitude           :                                                    0.0180871
    Molecular point group: c2v
  Basis Set: CC-PVDZ
    Blend: CC-PVDZ
  Basis Set: (CC-PVDZ AUX)
    Blend: CC-PVDZ-JKFIT + DEF2-UNIVERSAL-JKFIT
  Basis Set: CC-PVDZ
    Blend: CC-PVDZ
  Basis Set: (CC-PVDZ AUX)
    Blend: CC-PVDZ-JKFIT + DEF2-UNIVERSAL-JKFIT
  @DF-UKS Final Energy:  -200.62552291661657
    Total Energy =                       -200.6255229166166032
  Basis Set: CC-PVDZ
    Blend: CC-PVDZ
  Basis Set: (CC-PVDZ AUX)
    Blend: CC-PVDZ-JKFIT + DEF2-UNIVERSAL-JKFIT
  Basis Set: CC-PVDZ
    Blend: CC-PVDZ
  @DF-UKS Final Energy:  -200.63727213780365
    Total Energy =                       -200.6372721378036772
  @DF-UKS Final Energy:  -200.64271526568649
    Total Energy =                       -200.6427152656865189
  @DF-UKS Final Energy:  -200.64361080578044
    Total Energy =                       -200.6436108057804404
  @DF-UKS Final Energy:  -200.64379420932536
    Total Energy =                       -200.6437942093253639
  @DF-UKS Final Energy:  -200.64381179248181
    Total Energy =                       -200.6438117924818130
  Basis Set: (CC-PVDZ AUX)
    Blend: CC-PVDZ-JKFIT + DEF2-UNIVERSAL-JKFIT
  Basis Set: CC-PVDZ
    Blend: CC-PVDZ
  Basis Set: (CC-PVDZ AUX)
    Blend: CC-PVDZ-JKFIT + DEF2-UNIVERSAL-JKFIT
  @DF-UKS Final Energy:  -200.64381357066608
    Total Energy =                       -200.6438135706660830
  Basis Set: CC-PVDZ
    Blend: CC-PVDZ
  Basis Set: (CC-PVDZ AUX)
    Blend: CC-PVDZ-JKFIT + DEF2-UNIVERSAL-JKFIT
  Charge       = 0
  Multiplicity = 2
  Basis Set: CC-PVDZ
    Blend: CC-PVDZ
  Basis Set: (CC-PVDZ AUX)
    Blend: CC-PVDZ-JKFIT + DEF2-UNIVERSAL-JKFIT

    Orbital Energies [Eh]
    ---------------------

    Alpha Occupied:

       1A1   -46.838116     2A1    -3.120994     1B1    -1.865673
       1B2    -1.865673     3A1    -1.861672     4A1    -0.295240
       5A1    -0.174504

    Alpha Virtual:

       2B2    -0.041314     2B1    -0.041314     6A1     0.048408
       7A1     0.091291     3B2     0.156437     3B1     0.156437
       8A1     0.162406     4B2     0.294538     4B1     0.294538
       9A1     0.307656     1A2     0.307656    10A1     0.405480
      11A1     0.691284     5B1     1.413676     5B2     1.413676
      12A1     1.736108

    Beta Occupied:

       1A1   -46.836330     2A1    -3.117972     1B1    -1.863856
       1B2    -1.863856     3A1    -1.857692     4A1    -0.268698

    Beta Virtual:

       5A1    -0.088724     2B2    -0.027689     2B1    -0.027689
       6A1     0.061408     7A1     0.103894     3B2     0.166097
       3B1     0.166097     8A1     0.186357     4B1     0.317656
       4B2     0.317656     1A2     0.323298     9A1     0.323298
      10A1     0.427017    11A1     0.721810     5B1     1.442652
       5B2     1.442652    12A1     1.762624

    Final Occupation by Irrep:
             A1    A2    B1    B2
    DOCC [     4,    0,    1,    1 ]
    SOCC [     1,    0,    0,    0 ]
    NA   [     5,    0,    1,    1 ]
    NB   [     4,    0,    1,    1 ]

  @DF-UKS Final Energy:  -200.64381377293358

   => Energetics <=

    Nuclear Repulsion Energy =              3.6281937333303902
    One-Electron Energy =                -287.0188758423312265
    Two-Electron Energy =                  96.3177850557925552
    DFT Exchange-Correlation Energy =     -13.5709167197252967
    Empirical Dispersion Energy =           0.0000000000000000
    VV10 Nonlocal Energy =                  0.0000000000000000
    Total Energy =                       -200.6438137729335836

  UHF NO Occupations:
  HONO-2 :    1 B2 1.9999992
  HONO-1 :    4 A1 1.9975391
  HONO-0 :    5 A1 1.0000000
  LUNO+0 :    6 A1 0.0024609
  LUNO+1 :    2 B2 0.0000008
  LUNO+2 :    2 B1 0.0000008
  LUNO+3 :    7 A1 0.0000004

Computation Completed

Properties will be evaluated at   0.000000,   0.000000,   0.000000 [a0]

Properties computed using the SCF density matrix

 Multipole Moments:

 ------------------------------------------------------------------------------------
     Multipole            Electronic (a.u.)      Nuclear  (a.u.)        Total (a.u.)
 ------------------------------------------------------------------------------------

 L = 1.  Multiply by 2.5417464519 to convert [e a0] to [Debye]
 Dipole X            :          0.0000000            0.0000000            0.0000000
 Dipole Y            :          0.0000000            0.0000000            0.0000000
 Dipole Z            :         -2.0491295            1.5736141           -0.4755154
 Magnitude           :                                                    0.4755154

 ------------------------------------------------------------------------------------

*** tstop() called on Joses-MacBook-Pro-2.local at Wed Jul 16 18:15:11 2025
Module time:
	user time   =       2.59 seconds =       0.04 minutes
	system time =       2.64 seconds =       0.04 minutes
	total time  =          1 seconds =       0.02 minutes
Total time:
	user time   =      33.68 seconds =       0.56 minutes
	system time =      41.56 seconds =       0.69 minutes
	total time  =          8 seconds =       0.13 minutes

*** tstart() called on Joses-MacBook-Pro-2.local
*** at Wed Jul 16 18:15:11 2025

         ------------------------------------------------------------
                                   SCF GRAD
                          Rob Parrish, Justin Turney,
                       Andy Simmonett, and Alex Sokolov
         ------------------------------------------------------------

  ==> Geometry <==

    Molecular point group: c2v
    Full point group: C_inf_v

    Geometry (in Angstrom), charge = 0, multiplicity = 2:

       Center              X                  Y                   Z               Mass
    ------------   -----------------  -----------------  -----------------  -----------------
         H            0.000000000000     0.000000000000     1.679640408862     1.007825032230
         MG           0.000000000000     0.000000000000    -0.070576639832    23.985041697000

  Nuclear repulsion =    3.628193733330390

  ==> Basis Set <==

  Basis Set: CC-PVDZ
    Blend: CC-PVDZ
    Number of shells: 11
    Number of basis functions: 23
    Number of Cartesian functions: 24
    Spherical Harmonics?: true
    Max angular momentum: 2

  ==> DFJKGrad: Density-Fitted SCF Gradients <==

    Gradient:                    1
    J tasked:                  Yes
    K tasked:                  Yes
    wK tasked:                  No
    OpenMP threads:              1
    Integrals threads:           1
    Memory [MiB]:              375
    Schwarz Cutoff:          1E-12
    Fitting Condition:       1E-10

   => Auxiliary Basis Set <=

  Basis Set: (CC-PVDZ AUX)
    Blend: CC-PVDZ-JKFIT + DEF2-UNIVERSAL-JKFIT
    Number of shells: 43
    Number of basis functions: 135
    Number of Cartesian functions: 162
    Spherical Harmonics?: true
    Max angular momentum: 4

  ==> DFT Potential <==

   => LibXC <=

    Version 6.2.2
    S. Lehtola, C. Steigemann, M. J.T. Oliveira, and M. A.L. Marques.,  SoftwareX 7, 1â€“5 (2018) (10.1016/j.softx.2017.11.002)

   => Composite Functional: B3LYP <=

    B3LYP Hyb-GGA Exchange-Correlation Functional

    P. J. Stephens, F. J. Devlin, C. F. Chabalowski, and M. J. Frisch.,  J. Phys. Chem. 98, 11623 (1994) (10.1021/j100096a001)

    Deriv               =              1
    GGA                 =           TRUE
    Meta                =          FALSE

    Exchange Hybrid     =           TRUE
    MP2 Hybrid          =          FALSE

   => Exchange Functionals <=

    0.0800   Slater exchange
    0.7200         Becke 88

   => Exact (HF) Exchange <=

    0.2000               HF

   => Correlation Functionals <=

    0.1900   Vosko, Wilk & Nusair (VWN5_RPA)
    0.8100   Lee, Yang & Parr

   => LibXC Density Thresholds  <==

    XC_HYB_GGA_XC_B3LYP:  1.00E-15

   => Molecular Quadrature <=

    Radial Scheme          =       TREUTLER
    Pruning Scheme         =           NONE
    Nuclear Scheme         =       TREUTLER

    Blocking Scheme        =         OCTREE
    BS radius alpha        =              1
    Pruning alpha          =              1
    Radial Points          =             75
    Spherical Points       =            302
    Total Points           =          43428
    Total Blocks           =            398
    Max Points             =            254
    Max Functions          =             23
    Weights Tolerance      =       1.00E-15

  -Total Gradient:
     Atom            X                  Y                   Z
    ------   -----------------  -----------------  -----------------
       1        0.000000000000     0.000000000000    -0.000029019138
       2        0.000000000000     0.000000000000     0.000024278297

*** tstop() called on Joses-MacBook-Pro-2.local at Wed Jul 16 18:15:11 2025
Module time:
	user time   =       0.73 seconds =       0.01 minutes
	system time =       1.14 seconds =       0.02 minutes
	total time  =          0 seconds =       0.00 minutes
Total time:
	user time   =      34.42 seconds =       0.57 minutes
	system time =      42.70 seconds =       0.71 minutes
	total time  =          8 seconds =       0.13 minutes

    			-----------------------------------------

    			 OPTKING 3.0: for geometry optimizations

    			     By R.A. King, Bethel University

    			        with contributions from

    			    A.V. Copan, J. Cayton, A. Heide

    			-----------------------------------------

	                            ===> Fragment 1 <==

	 Z (Atomic Numbers)          Masses                          Geom
	       1.000000             1.007825          0.00000000  0.00000000  3.17406036
	      12.000000            23.985042          0.00000000  0.00000000 -0.13337052

	 - Coordinate -           - BOHR/RAD -       - ANG/DEG -
	 R(1,2)           =         3.307431           1.750217

	        --- Internal Coordinate Step in ANG or DEG, aJ/ANG or AJ/DEG ---
	-------------------------------------------------------------------------------
	           Coordinate      Previous         Force          Change          New
	           ----------      --------        ------          ------        ------
	               R(1,2)       1.75022        0.00022        0.00018       1.75040
	-------------------------------------------------------------------------------

	                                 ==> Convergence Check <==

	Measures of convergence in internal coordinates in au.

	Criteria marked as inactive (o), active & met (*), and active & unmet ( ).

	----------------------------------------------------------------------------------------------
	   Step    Total Energy     Delta E     Max Force     RMS Force      Max Disp      RMS Disp
	----------------------------------------------------------------------------------------------
	  Convergence Criteria     1.00e-06 *    3.00e-04 *             o    1.20e-03 *             o
	----------------------------------------------------------------------------------------------
	     9    -200.64381377   -2.02e-07 *    2.66e-05 *    2.66e-05 o    3.37e-04 *    3.37e-04 o  ~
	----------------------------------------------------------------------------------------------

Next Geometry in Ang
	Fragment 1 (Ang)

	    H   0.0000000000   0.0000000000   1.6797296299
	   Mg   0.0000000000   0.0000000000  -0.0706658609

    Final optimized geometry and variables:
    Molecular point group: c2v
    Full point group: C_inf_v

    Geometry (in Angstrom), charge = 0, multiplicity = 2:

    H            0.000000000000     0.000000000000     1.679640408862
    MG           0.000000000000     0.000000000000    -0.070576639832

    Psi4 stopped on: Wednesday, 16 July 2025 06:15PM
    Psi4 wall time for execution: 0:00:07.94

*** Psi4 exiting successfully. Buy a developer a beer!
