                               Psi4 1.9.1 release

  ==> Input File <==

--------------------------------------------------------------------------
molecule {
0 2
P   0.00000        0.60000        0.00000
Ar   0.00000       -0.60000        0.00000
}

set {
basis              cc-pvdz
reference          uks
maxiter            500
geom_maxiter       500
DAMPING_PERCENTAGE 1
guess              SAP
}

optimize('b3lyp')
--------------------------------------------------------------------------

    Molecular point group: c2v
  Charge       = 0
  Multiplicity = 2
  Basis Set: CC-PVDZ
    Blend: CC-PVDZ
  Basis Set: (CC-PVDZ AUX)
    Blend: CC-PVDZ-JKFIT
  @DF-UKS Final Energy:  -867.35693402844277
    Total Energy =                       -867.3569340284427653
 Dipole X            :          0.0000000            0.0000000            0.0000000
 Dipole Y            :          0.0000000            0.0000000            0.0000000
 Dipole Z            :         -3.3628351            1.3397069           -2.0231282
 Magnitude           :                                                    2.0231282
    Molecular point group: c2v
  Basis Set: CC-PVDZ
    Blend: CC-PVDZ
  Basis Set: (CC-PVDZ AUX)
    Blend: CC-PVDZ-JKFIT
  Basis Set: CC-PVDZ
    Blend: CC-PVDZ
  Basis Set: (CC-PVDZ AUX)
    Blend: CC-PVDZ-JKFIT
  @DF-UKS Final Energy:  -867.40208745855625
    Total Energy =                       -867.4020874585562524
  Basis Set: CC-PVDZ
    Blend: CC-PVDZ
  Basis Set: (CC-PVDZ AUX)
    Blend: CC-PVDZ-JKFIT
  Basis Set: CC-PVDZ
    Blend: CC-PVDZ
  @DF-UKS Final Energy:  -867.48530227899289
    Total Energy =                       -867.4853022789928900
  @DF-UKS Final Energy:  -867.75180082356371
    Total Energy =                       -867.7518008235638263
  @DF-UKS Final Energy:  -868.27719015353853
    Total Energy =                       -868.2771901535385268
  @DF-UKS Final Energy:  -868.47004664593567
    Total Energy =                       -868.4700466459356676
  @DF-UKS Final Energy:  -868.59941279328734
    Total Energy =                       -868.5994127932873425
  @DF-UKS Final Energy:  -868.67567541659434
    Total Energy =                       -868.6756754165943448
  @DF-UKS Final Energy:  -868.71705066653942
    Total Energy =                       -868.7170506665393077
  @DF-UKS Final Energy:  -868.73865377955224
    Total Energy =                       -868.7386537795522372
  @DF-UKS Final Energy:  -868.74941836365565
    Total Energy =                       -868.7494183636556500
  @DF-UKS Final Energy:  -868.75441714903832
    Total Energy =                       -868.7544171490383178
  @DF-UKS Final Energy:  -868.75653229398210
    Total Energy =                       -868.7565322939821044
  @DF-UKS Final Energy:  -868.75730401247597
    Total Energy =                       -868.7573040124759700
  @DF-UKS Final Energy:  -868.75748459616432
    Total Energy =                       -868.7574845961643177
  @DF-UKS Final Energy:  -868.75754790578230
    Total Energy =                       -868.7575479057823031
  @DF-UKS Final Energy:  -868.75755872634284
    Total Energy =                       -868.7575587263429497
  Basis Set: (CC-PVDZ AUX)
    Blend: CC-PVDZ-JKFIT
  Basis Set: CC-PVDZ
    Blend: CC-PVDZ
  Basis Set: (CC-PVDZ AUX)
    Blend: CC-PVDZ-JKFIT
  @DF-UKS Final Energy:  -868.75756069509077
    Total Energy =                       -868.7575606950907741
  Basis Set: CC-PVDZ
    Blend: CC-PVDZ
  Basis Set: (CC-PVDZ AUX)
    Blend: CC-PVDZ-JKFIT
  Charge       = 0
  Multiplicity = 2
  Basis Set: CC-PVDZ
    Blend: CC-PVDZ
  Basis Set: (CC-PVDZ AUX)
    Blend: CC-PVDZ-JKFIT

    Orbital Energies [Eh]
    ---------------------

    Alpha Occupied:

       1A1  -115.137439     2A1   -77.120475     3A1   -11.173494
       4A1    -8.724331     1B1    -8.722939     1B2    -8.722724
       5A1    -6.584497     6A1    -4.754525     2B1    -4.749879
       2B2    -4.733829     7A1    -1.000628     8A1    -0.562081
       9A1    -0.457562     3B1    -0.454900     3B2    -0.453695
       4B1    -0.242365     4B2    -0.199909

    Alpha Virtual:

      10A1    -0.154371    11A1     0.353093     5B1     0.400086
      12A1     0.413328     5B2     0.426447     6B1     0.433235
      13A1     0.443888     6B2     0.464153     1A2     0.474390
      14A1     0.482192     7B1     0.590963     7B2     0.597733
      15A1     0.617741    16A1     0.769440     2A2     0.803662
      17A1     0.803680     8B1     0.805563     8B2     0.806945
      18A1     1.006248

    Beta Occupied:

       1A1  -115.137424     2A1   -77.116393     3A1   -11.173480
       4A1    -8.724388     1B1    -8.722827     1B2    -8.722715
       5A1    -6.580157     6A1    -4.752222     2B1    -4.735424
       2B2    -4.731335     7A1    -1.000589     8A1    -0.527052
       3B1    -0.454416     3B2    -0.453712     9A1    -0.452006
       4B2    -0.188647

    Beta Virtual:

      10A1    -0.142006     4B1    -0.114829    11A1     0.367504
      12A1     0.428259     5B2     0.431264     5B1     0.437371
      13A1     0.457332     6B2     0.468994     6B1     0.479952
       1A2     0.519174    14A1     0.524653     7B2     0.598671
       7B1     0.599297    15A1     0.618406    16A1     0.769376
       2A2     0.803852    17A1     0.803869     8B1     0.806365
       8B2     0.806902    18A1     1.010825

    Final Occupation by Irrep:
             A1    A2    B1    B2
    DOCC [     9,    0,    3,    4 ]
    SOCC [     0,    0,    1,    0 ]
    NA   [     9,    0,    4,    4 ]
    NB   [     9,    0,    3,    4 ]

  @DF-UKS Final Energy:  -868.75756107370330

   => Energetics <=

    Nuclear Repulsion Energy =             50.0469823205880502
    One-Electron Energy =               -1299.3861500878729203
    Two-Electron Energy =                 424.1258253118784864
    DFT Exchange-Correlation Energy =     -43.5442186182969024
    Empirical Dispersion Energy =           0.0000000000000000
    VV10 Nonlocal Energy =                  0.0000000000000000
    Total Energy =                       -868.7575610737031866

  UHF NO Occupations:
  HONO-2 :    4 B2 1.9999772
  HONO-1 :    9 A1 1.9987248
  HONO-0 :    4 B1 1.0000000
  LUNO+0 :   10 A1 0.0012752
  LUNO+1 :    5 B2 0.0000228
  LUNO+2 :   11 A1 0.0000214
  LUNO+3 :    5 B1 0.0000010

Computation Completed

Properties will be evaluated at   0.000000,   0.000000,   0.000000 [a0]

Properties computed using the SCF density matrix

 Multipole Moments:

 ------------------------------------------------------------------------------------
     Multipole            Electronic (a.u.)      Nuclear  (a.u.)        Total (a.u.)
 ------------------------------------------------------------------------------------

 L = 1.  Multiply by 2.5417464519 to convert [e a0] to [Debye]
 Dipole X            :          0.0000000            0.0000000            0.0000000
 Dipole Y            :          0.0000000            0.0000000            0.0000000
 Dipole Z            :         -3.5556587            3.1872457           -0.3684130
 Magnitude           :                                                    0.3684130

 ------------------------------------------------------------------------------------

*** tstop() called on Joses-MacBook-Pro-2.local at Wed Jul 16 20:25:29 2025
Module time:
	user time   =       7.32 seconds =       0.12 minutes
	system time =       1.39 seconds =       0.02 minutes
	total time  =          0 seconds =       0.00 minutes
Total time:
	user time   =     221.56 seconds =       3.69 minutes
	system time =      56.37 seconds =       0.94 minutes
	total time  =         26 seconds =       0.43 minutes

*** tstart() called on Joses-MacBook-Pro-2.local
*** at Wed Jul 16 20:25:29 2025

         ------------------------------------------------------------
                                   SCF GRAD
                          Rob Parrish, Justin Turney,
                       Andy Simmonett, and Alex Sokolov
         ------------------------------------------------------------

  ==> Geometry <==

    Molecular point group: c2v
    Full point group: C_inf_v

    Geometry (in Angstrom), charge = 0, multiplicity = 2:

       Center              X                  Y                   Z               Mass
    ------------   -----------------  -----------------  -----------------  -----------------
         P            0.000000000000     0.000000000000     1.608313828646    30.973761998420
         AR           0.000000000000     0.000000000000    -1.246560536519    39.962383123700

  Nuclear repulsion =   50.046982320588050

  ==> Basis Set <==

  Basis Set: CC-PVDZ
    Blend: CC-PVDZ
    Number of shells: 16
    Number of basis functions: 36
    Number of Cartesian functions: 38
    Spherical Harmonics?: true
    Max angular momentum: 2

  ==> DFJKGrad: Density-Fitted SCF Gradients <==

    Gradient:                    1
    J tasked:                  Yes
    K tasked:                  Yes
    wK tasked:                  No
    OpenMP threads:              1
    Integrals threads:           1
    Memory [MiB]:              375
    Schwarz Cutoff:          1E-12
    Fitting Condition:       1E-10

   => Auxiliary Basis Set <=

  Basis Set: (CC-PVDZ AUX)
    Blend: CC-PVDZ-JKFIT
    Number of shells: 72
    Number of basis functions: 224
    Number of Cartesian functions: 260
    Spherical Harmonics?: true
    Max angular momentum: 3

  ==> DFT Potential <==

   => LibXC <=

    Version 6.2.2
    S. Lehtola, C. Steigemann, M. J.T. Oliveira, and M. A.L. Marques.,  SoftwareX 7, 1â€“5 (2018) (10.1016/j.softx.2017.11.002)

   => Composite Functional: B3LYP <=

    B3LYP Hyb-GGA Exchange-Correlation Functional

    P. J. Stephens, F. J. Devlin, C. F. Chabalowski, and M. J. Frisch.,  J. Phys. Chem. 98, 11623 (1994) (10.1021/j100096a001)

    Deriv               =              1
    GGA                 =           TRUE
    Meta                =          FALSE

    Exchange Hybrid     =           TRUE
    MP2 Hybrid          =          FALSE

   => Exchange Functionals <=

    0.0800   Slater exchange
    0.7200         Becke 88

   => Exact (HF) Exchange <=

    0.2000               HF

   => Correlation Functionals <=

    0.1900   Vosko, Wilk & Nusair (VWN5_RPA)
    0.8100   Lee, Yang & Parr

   => LibXC Density Thresholds  <==

    XC_HYB_GGA_XC_B3LYP:  1.00E-15

   => Molecular Quadrature <=

    Radial Scheme          =       TREUTLER
    Pruning Scheme         =           NONE
    Nuclear Scheme         =       TREUTLER

    Blocking Scheme        =         OCTREE
    BS radius alpha        =              1
    Pruning alpha          =              1
    Radial Points          =             75
    Spherical Points       =            302
    Total Points           =          40924
    Total Blocks           =            372
    Max Points             =            249
    Max Functions          =             36
    Weights Tolerance      =       1.00E-15

  -Total Gradient:
     Atom            X                  Y                   Z
    ------   -----------------  -----------------  -----------------
       1       -0.000000000000     0.000000000000    -0.000023947166
       2        0.000000000000     0.000000000000     0.000026831451

*** tstop() called on Joses-MacBook-Pro-2.local at Wed Jul 16 20:25:30 2025
Module time:
	user time   =       1.94 seconds =       0.03 minutes
	system time =       1.41 seconds =       0.02 minutes
	total time  =          1 seconds =       0.02 minutes
Total time:
	user time   =     223.51 seconds =       3.73 minutes
	system time =      57.78 seconds =       0.96 minutes
	total time  =         27 seconds =       0.45 minutes

    			-----------------------------------------

    			 OPTKING 3.0: for geometry optimizations

    			     By R.A. King, Bethel University

    			        with contributions from

    			    A.V. Copan, J. Cayton, A. Heide

    			-----------------------------------------

	                            ===> Fragment 1 <==

	 Z (Atomic Numbers)          Masses                          Geom
	      15.000000            30.973762          0.00000000  0.00000000  3.03927266
	      18.000000            39.962383          0.00000000  0.00000000 -2.35565801

	 - Coordinate -           - BOHR/RAD -       - ANG/DEG -
	 R(1,2)           =         5.394931           2.854874

	        --- Internal Coordinate Step in ANG or DEG, aJ/ANG or AJ/DEG ---
	-------------------------------------------------------------------------------
	           Coordinate      Previous         Force          Change          New
	           ----------      --------        ------          ------        ------
	               R(1,2)       2.85487        0.00021        0.00161       2.85648
	-------------------------------------------------------------------------------

	                                 ==> Convergence Check <==

	Measures of convergence in internal coordinates in au.

	Criteria marked as inactive (o), active & met (*), and active & unmet ( ).

	----------------------------------------------------------------------------------------------
	   Step    Total Energy     Delta E     Max Force     RMS Force      Max Disp      RMS Disp
	----------------------------------------------------------------------------------------------
	  Convergence Criteria     1.00e-06 *    3.00e-04 *             o    1.20e-03 *             o
	----------------------------------------------------------------------------------------------
	    19    -868.75756107   -3.79e-07 *    2.54e-05 *    2.54e-05 o    3.04e-03      3.04e-03 o  ~
	----------------------------------------------------------------------------------------------

Next Geometry in Ang
	Fragment 1 (Ang)

	    P   0.0000000000   0.0000000000   1.6091172107
	   Ar   0.0000000000   0.0000000000  -1.2473639186

    Final optimized geometry and variables:
    Molecular point group: c2v
    Full point group: C_inf_v

    Geometry (in Angstrom), charge = 0, multiplicity = 2:

    P            0.000000000000     0.000000000000     1.608313828646
    AR           0.000000000000     0.000000000000    -1.246560536519

    Psi4 stopped on: Wednesday, 16 July 2025 08:25PM
    Psi4 wall time for execution: 0:00:27.42

*** Psi4 exiting successfully. Buy a developer a beer!
