                               Psi4 1.9.1 release

  ==> Input File <==

--------------------------------------------------------------------------
molecule {
0 2
Ne   0.00000        0.60000        0.00000
Na   0.00000       -0.60000        0.00000
}

set {
basis              cc-pvdz
reference          uks
maxiter            500
geom_maxiter       500
DAMPING_PERCENTAGE 1
guess              SAP
}

optimize('b3lyp')
--------------------------------------------------------------------------

    Molecular point group: c2v
  Charge       = 0
  Multiplicity = 2
  Basis Set: CC-PVDZ
    Blend: CC-PVDZ
  Basis Set: (CC-PVDZ AUX)
    Blend: CC-PVDZ-JKFIT + DEF2-UNIVERSAL-JKFIT
  @DF-UKS Final Energy:  -290.69878825603689
    Total Energy =                       -290.6987882560368348
 Dipole X            :          0.0000000            0.0000000            0.0000000
 Dipole Y            :          0.0000000            0.0000000            0.0000000
 Dipole Z            :          0.0220688            0.5265734            0.5486422
 Magnitude           :                                                    0.5486422
    Molecular point group: c2v
  Basis Set: CC-PVDZ
    Blend: CC-PVDZ
  Basis Set: (CC-PVDZ AUX)
    Blend: CC-PVDZ-JKFIT + DEF2-UNIVERSAL-JKFIT
  Basis Set: CC-PVDZ
    Blend: CC-PVDZ
  Basis Set: (CC-PVDZ AUX)
    Blend: CC-PVDZ-JKFIT + DEF2-UNIVERSAL-JKFIT
  @DF-UKS Final Energy:  -290.97210181451055
    Total Energy =                       -290.9721018145105518
  Basis Set: CC-PVDZ
    Blend: CC-PVDZ
  Basis Set: (CC-PVDZ AUX)
    Blend: CC-PVDZ-JKFIT + DEF2-UNIVERSAL-JKFIT
  Basis Set: CC-PVDZ
    Blend: CC-PVDZ
  @DF-UKS Final Energy:  -291.08115252791924
    Total Energy =                       -291.0811525279193006
  @DF-UKS Final Energy:  -291.14164405753621
    Total Energy =                       -291.1416440575362117
  @DF-UKS Final Energy:  -291.16556160723945
    Total Energy =                       -291.1655616072394537
  @DF-UKS Final Energy:  -291.18138393773148
    Total Energy =                       -291.1813839377314821
  @DF-UKS Final Energy:  -291.19136025075591
    Total Energy =                       -291.1913602507558494
  @DF-UKS Final Energy:  -291.19691618790802
    Total Energy =                       -291.1969161879080161
  @DF-UKS Final Energy:  -291.20024319466967
    Total Energy =                       -291.2002431946696674
  @DF-UKS Final Energy:  -291.20228902750398
    Total Energy =                       -291.2022890275039799
  @DF-UKS Final Energy:  -291.20352284635806
    Total Energy =                       -291.2035228463579983
  @DF-UKS Final Energy:  -291.20425294915850
    Total Energy =                       -291.2042529491585583
  @DF-UKS Final Energy:  -291.20460403077936
    Total Energy =                       -291.2046040307793646
  @DF-UKS Final Energy:  -291.20474804463959
    Total Energy =                       -291.2047480446395298
  @DF-UKS Final Energy:  -291.20477511610818
    Total Energy =                       -291.2047751161081237
  Basis Set: (CC-PVDZ AUX)
    Blend: CC-PVDZ-JKFIT + DEF2-UNIVERSAL-JKFIT
  Basis Set: CC-PVDZ
    Blend: CC-PVDZ
  Basis Set: (CC-PVDZ AUX)
    Blend: CC-PVDZ-JKFIT + DEF2-UNIVERSAL-JKFIT
  @DF-UKS Final Energy:  -291.20477918606525
    Total Energy =                       -291.2047791860652524
  Basis Set: CC-PVDZ
    Blend: CC-PVDZ
  Basis Set: (CC-PVDZ AUX)
    Blend: CC-PVDZ-JKFIT + DEF2-UNIVERSAL-JKFIT
  Charge       = 0
  Multiplicity = 2
  Basis Set: CC-PVDZ
    Blend: CC-PVDZ
  Basis Set: (CC-PVDZ AUX)
    Blend: CC-PVDZ-JKFIT + DEF2-UNIVERSAL-JKFIT

    Orbital Energies [Eh]
    ---------------------

    Alpha Occupied:

       1A1   -38.478781     2A1   -31.004274     3A1    -2.223515
       4A1    -1.465962     5A1    -1.154488     1B1    -1.154290
       1B2    -1.154290     6A1    -0.577449     2B1    -0.573023
       2B2    -0.573023     7A1    -0.123378

    Alpha Virtual:

       3B1    -0.020863     3B2    -0.020863     8A1    -0.013163
       9A1     0.052979     4B1     0.075845     4B2     0.075845
      10A1     0.083538     1A2     0.158558    11A1     0.158569
       5B1     0.162295     5B2     0.162295    12A1     0.191585
       6B2     1.367379     6B1     1.367379    13A1     1.414879
      14A1     2.027283    15A1     4.691377     7B1     4.691735
       7B2     4.691735     2A2     4.692088    16A1     4.692913

    Beta Occupied:

       1A1   -38.477332     2A1   -31.003906     3A1    -2.220617
       4A1    -1.465207     5A1    -1.152603     1B1    -1.152395
       1B2    -1.152395     6A1    -0.576265     2B1    -0.572660
       2B2    -0.572660

    Beta Virtual:

       7A1    -0.063201     3B1     0.000028     3B2     0.000028
       8A1     0.000122     9A1     0.065558     4B1     0.093943
       4B2     0.093943    10A1     0.097852     5B1     0.184506
       5B2     0.184506    11A1     0.188557     1A2     0.188559
      12A1     0.210422     6B2     1.368536     6B1     1.368536
      13A1     1.416193    14A1     2.029201    15A1     4.692058
       7B1     4.692313     7B2     4.692313     2A2     4.692328
      16A1     4.693152

    Final Occupation by Irrep:
             A1    A2    B1    B2
    DOCC [     6,    0,    2,    2 ]
    SOCC [     1,    0,    0,    0 ]
    NA   [     7,    0,    2,    2 ]
    NB   [     6,    0,    2,    2 ]

  @DF-UKS Final Energy:  -291.20477963802284

   => Energetics <=

    Nuclear Repulsion Energy =             21.0956334025055376
    One-Electron Energy =                -452.2194623937517690
    Two-Electron Energy =                 161.6609595862267099
    DFT Exchange-Correlation Energy =     -21.7419102330032672
    Empirical Dispersion Energy =           0.0000000000000000
    VV10 Nonlocal Energy =                  0.0000000000000000
    Total Energy =                       -291.2047796380228419

  UHF NO Occupations:
  HONO-2 :    2 B1 1.9999985
  HONO-1 :    2 B2 1.9999985
  HONO-0 :    7 A1 1.0000000
  LUNO+0 :    3 B2 0.0000015
  LUNO+1 :    3 B1 0.0000015
  LUNO+2 :    8 A1 0.0000013
  LUNO+3 :    9 A1 0.0000006

Computation Completed

Properties will be evaluated at   0.000000,   0.000000,   0.000000 [a0]

Properties computed using the SCF density matrix

 Multipole Moments:

 ------------------------------------------------------------------------------------
     Multipole            Electronic (a.u.)      Nuclear  (a.u.)        Total (a.u.)
 ------------------------------------------------------------------------------------

 L = 1.  Multiply by 2.5417464519 to convert [e a0] to [Debye]
 Dipole X            :          0.0000000            0.0000000            0.0000000
 Dipole Y            :          0.0000000            0.0000000            0.0000000
 Dipole Z            :         -0.8057815            1.2108182            0.4050367
 Magnitude           :                                                    0.4050367

 ------------------------------------------------------------------------------------

*** tstop() called on Joses-MacBook-Pro-2.local at Wed Jul 16 19:32:51 2025
Module time:
	user time   =       3.61 seconds =       0.06 minutes
	system time =       2.41 seconds =       0.04 minutes
	total time  =          1 seconds =       0.02 minutes
Total time:
	user time   =      91.10 seconds =       1.52 minutes
	system time =      72.98 seconds =       1.22 minutes
	total time  =         17 seconds =       0.28 minutes

*** tstart() called on Joses-MacBook-Pro-2.local
*** at Wed Jul 16 19:32:51 2025

         ------------------------------------------------------------
                                   SCF GRAD
                          Rob Parrish, Justin Turney,
                       Andy Simmonett, and Alex Sokolov
         ------------------------------------------------------------

  ==> Geometry <==

    Molecular point group: c2v
    Full point group: C_inf_v

    Geometry (in Angstrom), charge = 0, multiplicity = 2:

       Center              X                  Y                   Z               Mass
    ------------   -----------------  -----------------  -----------------  -----------------
         NE           0.000000000000     0.000000000000     1.475866669323    19.992440176200
         NA           0.000000000000     0.000000000000    -1.283448116967    22.989769282000

  Nuclear repulsion =   21.095633402505538

  ==> Basis Set <==

  Basis Set: CC-PVDZ
    Blend: CC-PVDZ
    Number of shells: 14
    Number of basis functions: 32
    Number of Cartesian functions: 34
    Spherical Harmonics?: true
    Max angular momentum: 2

  ==> DFJKGrad: Density-Fitted SCF Gradients <==

    Gradient:                    1
    J tasked:                  Yes
    K tasked:                  Yes
    wK tasked:                  No
    OpenMP threads:              1
    Integrals threads:           1
    Memory [MiB]:              375
    Schwarz Cutoff:          1E-12
    Fitting Condition:       1E-10

   => Auxiliary Basis Set <=

  Basis Set: (CC-PVDZ AUX)
    Blend: CC-PVDZ-JKFIT + DEF2-UNIVERSAL-JKFIT
    Number of shells: 58
    Number of basis functions: 182
    Number of Cartesian functions: 218
    Spherical Harmonics?: true
    Max angular momentum: 4

  ==> DFT Potential <==

   => LibXC <=

    Version 6.2.2
    S. Lehtola, C. Steigemann, M. J.T. Oliveira, and M. A.L. Marques.,  SoftwareX 7, 1â€“5 (2018) (10.1016/j.softx.2017.11.002)

   => Composite Functional: B3LYP <=

    B3LYP Hyb-GGA Exchange-Correlation Functional

    P. J. Stephens, F. J. Devlin, C. F. Chabalowski, and M. J. Frisch.,  J. Phys. Chem. 98, 11623 (1994) (10.1021/j100096a001)

    Deriv               =              1
    GGA                 =           TRUE
    Meta                =          FALSE

    Exchange Hybrid     =           TRUE
    MP2 Hybrid          =          FALSE

   => Exchange Functionals <=

    0.0800   Slater exchange
    0.7200         Becke 88

   => Exact (HF) Exchange <=

    0.2000               HF

   => Correlation Functionals <=

    0.1900   Vosko, Wilk & Nusair (VWN5_RPA)
    0.8100   Lee, Yang & Parr

   => LibXC Density Thresholds  <==

    XC_HYB_GGA_XC_B3LYP:  1.00E-15

   => Molecular Quadrature <=

    Radial Scheme          =       TREUTLER
    Pruning Scheme         =           NONE
    Nuclear Scheme         =       TREUTLER

    Blocking Scheme        =         OCTREE
    BS radius alpha        =              1
    Pruning alpha          =              1
    Radial Points          =             75
    Spherical Points       =            302
    Total Points           =          43828
    Total Blocks           =            418
    Max Points             =            255
    Max Functions          =             32
    Weights Tolerance      =       1.00E-15

  -Total Gradient:
     Atom            X                  Y                   Z
    ------   -----------------  -----------------  -----------------
       1        0.000000000000     0.000000000000    -0.000089869242
       2        0.000000000000     0.000000000000    -0.000056698345

*** tstop() called on Joses-MacBook-Pro-2.local at Wed Jul 16 19:32:51 2025
Module time:
	user time   =       1.01 seconds =       0.02 minutes
	system time =       1.80 seconds =       0.03 minutes
	total time  =          0 seconds =       0.00 minutes
Total time:
	user time   =      92.11 seconds =       1.54 minutes
	system time =      74.78 seconds =       1.25 minutes
	total time  =         17 seconds =       0.28 minutes

    			-----------------------------------------

    			 OPTKING 3.0: for geometry optimizations

    			     By R.A. King, Bethel University

    			        with contributions from

    			    A.V. Copan, J. Cayton, A. Heide

    			-----------------------------------------

	                            ===> Fragment 1 <==

	 Z (Atomic Numbers)          Masses                          Geom
	      10.000000            19.992440          0.00000000  0.00000000  2.78898380
	      11.000000            22.989769          0.00000000  0.00000000 -2.42536544

	 - Coordinate -           - BOHR/RAD -       - ANG/DEG -
	 R(1,2)           =         5.214349           2.759315

	        --- Internal Coordinate Step in ANG or DEG, aJ/ANG or AJ/DEG ---
	-------------------------------------------------------------------------------
	           Coordinate      Previous         Force          Change          New
	           ----------      --------        ------          ------        ------
	               R(1,2)       2.75931        0.00014        0.00232       2.76164
	-------------------------------------------------------------------------------

	                                 ==> Convergence Check <==

	Measures of convergence in internal coordinates in au.

	Criteria marked as inactive (o), active & met (*), and active & unmet ( ).

	----------------------------------------------------------------------------------------------
	   Step    Total Energy     Delta E     Max Force     RMS Force      Max Disp      RMS Disp
	----------------------------------------------------------------------------------------------
	  Convergence Criteria     1.00e-06 *    3.00e-04 *             o    1.20e-03 *             o
	----------------------------------------------------------------------------------------------
	    17    -291.20477964   -4.52e-07 *    1.66e-05 *    1.66e-05 o    4.39e-03      4.39e-03 o  ~
	----------------------------------------------------------------------------------------------

Next Geometry in Ang
	Fragment 1 (Ang)

	   Ne   0.0000000000   0.0000000000   1.4770269745
	   Na   0.0000000000   0.0000000000  -1.2846084221

    Final optimized geometry and variables:
    Molecular point group: c2v
    Full point group: C_inf_v

    Geometry (in Angstrom), charge = 0, multiplicity = 2:

    NE           0.000000000000     0.000000000000     1.475866669323
    NA           0.000000000000     0.000000000000    -1.283448116967

    Psi4 stopped on: Wednesday, 16 July 2025 07:32PM
    Psi4 wall time for execution: 0:00:17.16

*** Psi4 exiting successfully. Buy a developer a beer!
