                               Psi4 1.9.1 release

  ==> Input File <==

--------------------------------------------------------------------------
molecule {
0 2
Li   0.00000        0.60000        0.00000
Ne   0.00000       -0.60000        0.00000
}

set {
basis              cc-pvdz
reference          uks
maxiter            500
geom_maxiter       500
DAMPING_PERCENTAGE 1
guess              SAP
}

optimize('b3lyp')
--------------------------------------------------------------------------

    Molecular point group: c2v
  Charge       = 0
  Multiplicity = 2
  Basis Set: CC-PVDZ
    Blend: CC-PVDZ
  Basis Set: (CC-PVDZ AUX)
    Blend: CC-PVDZ-JKFIT + DEF2-UNIVERSAL-JKFIT
  @DF-UKS Final Energy:  -136.27047066190050
    Total Energy =                       -136.2704706619005037
 Dipole X            :          0.0000000            0.0000000            0.0000000
 Dipole Y            :          0.0000000            0.0000000            0.0000000
 Dipole Z            :         -0.0755326           -0.8549566           -0.9304893
 Magnitude           :                                                    0.9304893
    Molecular point group: c2v
  Basis Set: CC-PVDZ
    Blend: CC-PVDZ
  Basis Set: (CC-PVDZ AUX)
    Blend: CC-PVDZ-JKFIT + DEF2-UNIVERSAL-JKFIT
  Basis Set: CC-PVDZ
    Blend: CC-PVDZ
  Basis Set: (CC-PVDZ AUX)
    Blend: CC-PVDZ-JKFIT + DEF2-UNIVERSAL-JKFIT
  @DF-UKS Final Energy:  -136.35591176286857
    Total Energy =                       -136.3559117628685726
  Basis Set: CC-PVDZ
    Blend: CC-PVDZ
  Basis Set: (CC-PVDZ AUX)
    Blend: CC-PVDZ-JKFIT + DEF2-UNIVERSAL-JKFIT
  Basis Set: CC-PVDZ
    Blend: CC-PVDZ
  @DF-UKS Final Energy:  -136.37883787135129
    Total Energy =                       -136.3788378713512941
  @DF-UKS Final Energy:  -136.39326425947698
    Total Energy =                       -136.3932642594769789
  @DF-UKS Final Energy:  -136.39864281775462
    Total Energy =                       -136.3986428177546202
  @DF-UKS Final Energy:  -136.40206729416019
    Total Energy =                       -136.4020672941601902
  @DF-UKS Final Energy:  -136.40426189749368
    Total Energy =                       -136.4042618974936829
  @DF-UKS Final Energy:  -136.40541371737785
    Total Energy =                       -136.4054137173778543
  @DF-UKS Final Energy:  -136.40601952828666
    Total Energy =                       -136.4060195282866630
  @DF-UKS Final Energy:  -136.40633057348037
    Total Energy =                       -136.4063305734803748
  @DF-UKS Final Energy:  -136.40643276310701
    Total Energy =                       -136.4064327631070057
  @DF-UKS Final Energy:  -136.40647870269325
    Total Energy =                       -136.4064787026932493
  @DF-UKS Final Energy:  -136.40649276895797
    Total Energy =                       -136.4064927689579747
  Basis Set: (CC-PVDZ AUX)
    Blend: CC-PVDZ-JKFIT + DEF2-UNIVERSAL-JKFIT
  Basis Set: CC-PVDZ
    Blend: CC-PVDZ
  Basis Set: (CC-PVDZ AUX)
    Blend: CC-PVDZ-JKFIT + DEF2-UNIVERSAL-JKFIT
  @DF-UKS Final Energy:  -136.40649791086810
    Total Energy =                       -136.4064979108680973
  Basis Set: CC-PVDZ
    Blend: CC-PVDZ
  Basis Set: (CC-PVDZ AUX)
    Blend: CC-PVDZ-JKFIT + DEF2-UNIVERSAL-JKFIT
  Charge       = 0
  Multiplicity = 2
  Basis Set: CC-PVDZ
    Blend: CC-PVDZ
  Basis Set: (CC-PVDZ AUX)
    Blend: CC-PVDZ-JKFIT + DEF2-UNIVERSAL-JKFIT

    Orbital Energies [Eh]
    ---------------------

    Alpha Occupied:

       1A1   -31.037113     2A1    -2.031339     3A1    -1.497482
       4A1    -0.611254     1B2    -0.603415     1B1    -0.603415
       5A1    -0.125595

    Alpha Virtual:

       2B1    -0.030973     2B2    -0.030973     6A1    -0.016550
       3B1     0.071222     3B2     0.071222     7A1     0.081975
       8A1     0.089004     9A1     0.216945     1A2     0.216956
       4B1     0.224981     4B2     0.224981    10A1     0.271227
       5B2     1.380753     5B1     1.380753    11A1     1.410923
      12A1     2.151735    13A1     4.659853    14A1     4.662137
       2A2     4.662409     6B1     4.662784     6B2     4.662784

    Beta Occupied:

       1A1   -31.036652     2A1    -2.024360     3A1    -1.496512
       4A1    -0.609850     1B2    -0.602926     1B1    -0.602926

    Beta Virtual:

       5A1    -0.054516     2B1    -0.002568     2B2    -0.002568
       6A1     0.002844     3B1     0.089619     3B2     0.089619
       7A1     0.098553     8A1     0.108354     4B1     0.255428
       4B2     0.255428     1A2     0.260665     9A1     0.260693
      10A1     0.303559     5B2     1.383004     5B1     1.383004
      11A1     1.412342    12A1     2.154158    13A1     4.660652
      14A1     4.662445     2A2     4.662718     6B1     4.663482
       6B2     4.663482

    Final Occupation by Irrep:
             A1    A2    B1    B2
    DOCC [     4,    0,    1,    1 ]
    SOCC [     1,    0,    0,    0 ]
    NA   [     5,    0,    1,    1 ]
    NB   [     4,    0,    1,    1 ]

  @DF-UKS Final Energy:  -136.40649888890641

   => Energetics <=

    Nuclear Repulsion Energy =              6.9669115977115865
    One-Electron Energy =                -205.5614546422392834
    Two-Electron Energy =                  73.7696892828910791
    DFT Exchange-Correlation Energy =     -11.5816451272697893
    Empirical Dispersion Energy =           0.0000000000000000
    VV10 Nonlocal Energy =                  0.0000000000000000
    Total Energy =                       -136.4064988889064125

  UHF NO Occupations:
  HONO-2 :    1 B1 1.9999993
  HONO-1 :    4 A1 1.9999979
  HONO-0 :    5 A1 1.0000000
  LUNO+0 :    6 A1 0.0000021
  LUNO+1 :    2 B1 0.0000007
  LUNO+2 :    2 B2 0.0000007
  LUNO+3 :    7 A1 0.0000003

Computation Completed

Properties will be evaluated at   0.000000,   0.000000,   0.000000 [a0]

Properties computed using the SCF density matrix

 Multipole Moments:

 ------------------------------------------------------------------------------------
     Multipole            Electronic (a.u.)      Nuclear  (a.u.)        Total (a.u.)
 ------------------------------------------------------------------------------------

 L = 1.  Multiply by 2.5417464519 to convert [e a0] to [Debye]
 Dipole X            :          0.0000000            0.0000000            0.0000000
 Dipole Y            :          0.0000000            0.0000000            0.0000000
 Dipole Z            :          0.9447206           -1.6234725           -0.6787519
 Magnitude           :                                                    0.6787519

 ------------------------------------------------------------------------------------

*** tstop() called on Joses-MacBook-Pro-2.local at Wed Jul 16 18:31:57 2025
Module time:
	user time   =       2.56 seconds =       0.04 minutes
	system time =       2.87 seconds =       0.05 minutes
	total time  =          1 seconds =       0.02 minutes
Total time:
	user time   =      52.47 seconds =       0.87 minutes
	system time =      65.16 seconds =       1.09 minutes
	total time  =         11 seconds =       0.18 minutes

*** tstart() called on Joses-MacBook-Pro-2.local
*** at Wed Jul 16 18:31:57 2025

         ------------------------------------------------------------
                                   SCF GRAD
                          Rob Parrish, Justin Turney,
                       Andy Simmonett, and Alex Sokolov
         ------------------------------------------------------------

  ==> Geometry <==

    Molecular point group: c2v
    Full point group: C_inf_v

    Geometry (in Angstrom), charge = 0, multiplicity = 2:

       Center              X                  Y                   Z               Mass
    ------------   -----------------  -----------------  -----------------  -----------------
         LI           0.000000000000     0.000000000000     1.686740739551     7.016003436600
         NE           0.000000000000     0.000000000000    -0.591932686608    19.992440176200

  Nuclear repulsion =    6.966911597711587

  ==> Basis Set <==

  Basis Set: CC-PVDZ
    Blend: CC-PVDZ
    Number of shells: 12
    Number of basis functions: 28
    Number of Cartesian functions: 30
    Spherical Harmonics?: true
    Max angular momentum: 2

  ==> DFJKGrad: Density-Fitted SCF Gradients <==

    Gradient:                    1
    J tasked:                  Yes
    K tasked:                  Yes
    wK tasked:                  No
    OpenMP threads:              1
    Integrals threads:           1
    Memory [MiB]:              375
    Schwarz Cutoff:          1E-12
    Fitting Condition:       1E-10

   => Auxiliary Basis Set <=

  Basis Set: (CC-PVDZ AUX)
    Blend: CC-PVDZ-JKFIT + DEF2-UNIVERSAL-JKFIT
    Number of shells: 41
    Number of basis functions: 121
    Number of Cartesian functions: 141
    Spherical Harmonics?: true
    Max angular momentum: 3

  ==> DFT Potential <==

   => LibXC <=

    Version 6.2.2
    S. Lehtola, C. Steigemann, M. J.T. Oliveira, and M. A.L. Marques.,  SoftwareX 7, 1â€“5 (2018) (10.1016/j.softx.2017.11.002)

   => Composite Functional: B3LYP <=

    B3LYP Hyb-GGA Exchange-Correlation Functional

    P. J. Stephens, F. J. Devlin, C. F. Chabalowski, and M. J. Frisch.,  J. Phys. Chem. 98, 11623 (1994) (10.1021/j100096a001)

    Deriv               =              1
    GGA                 =           TRUE
    Meta                =          FALSE

    Exchange Hybrid     =           TRUE
    MP2 Hybrid          =          FALSE

   => Exchange Functionals <=

    0.0800   Slater exchange
    0.7200         Becke 88

   => Exact (HF) Exchange <=

    0.2000               HF

   => Correlation Functionals <=

    0.1900   Vosko, Wilk & Nusair (VWN5_RPA)
    0.8100   Lee, Yang & Parr

   => LibXC Density Thresholds  <==

    XC_HYB_GGA_XC_B3LYP:  1.00E-15

   => Molecular Quadrature <=

    Radial Scheme          =       TREUTLER
    Pruning Scheme         =           NONE
    Nuclear Scheme         =       TREUTLER

    Blocking Scheme        =         OCTREE
    BS radius alpha        =              1
    Pruning alpha          =              1
    Radial Points          =             75
    Spherical Points       =            302
    Total Points           =          44315
    Total Blocks           =            419
    Max Points             =            256
    Max Functions          =             28
    Weights Tolerance      =       1.00E-15

  -Total Gradient:
     Atom            X                  Y                   Z
    ------   -----------------  -----------------  -----------------
       1       -0.000000000000    -0.000000000000    -0.000065347033
       2        0.000000000000     0.000000000000    -0.000027633269

*** tstop() called on Joses-MacBook-Pro-2.local at Wed Jul 16 18:31:57 2025
Module time:
	user time   =       0.48 seconds =       0.01 minutes
	system time =       1.26 seconds =       0.02 minutes
	total time  =          0 seconds =       0.00 minutes
Total time:
	user time   =      52.95 seconds =       0.88 minutes
	system time =      66.42 seconds =       1.11 minutes
	total time  =         11 seconds =       0.18 minutes

    			-----------------------------------------

    			 OPTKING 3.0: for geometry optimizations

    			     By R.A. King, Bethel University

    			        with contributions from

    			    A.V. Copan, J. Cayton, A. Heide

    			-----------------------------------------

	                            ===> Fragment 1 <==

	 Z (Atomic Numbers)          Masses                          Geom
	       3.000000             7.016003          0.00000000  0.00000000  3.18747804
	      10.000000            19.992440          0.00000000  0.00000000 -1.11859066

	 - Coordinate -           - BOHR/RAD -       - ANG/DEG -
	 R(1,2)           =         4.306069           2.278673

	        --- Internal Coordinate Step in ANG or DEG, aJ/ANG or AJ/DEG ---
	-------------------------------------------------------------------------------
	           Coordinate      Previous         Force          Change          New
	           ----------      --------        ------          ------        ------
	               R(1,2)       2.27867        0.00016        0.00222       2.28089
	-------------------------------------------------------------------------------

	                                 ==> Convergence Check <==

	Measures of convergence in internal coordinates in au.

	Criteria marked as inactive (o), active & met (*), and active & unmet ( ).

	----------------------------------------------------------------------------------------------
	   Step    Total Energy     Delta E     Max Force     RMS Force      Max Disp      RMS Disp
	----------------------------------------------------------------------------------------------
	  Convergence Criteria     1.00e-06 *    3.00e-04 *             o    1.20e-03 *             o
	----------------------------------------------------------------------------------------------
	    15    -136.40649889   -9.78e-07 *    1.89e-05 *    1.89e-05 o    4.19e-03      4.19e-03 o  ~
	----------------------------------------------------------------------------------------------

Next Geometry in Ang
	Fragment 1 (Ang)

	   Li   0.0000000000   0.0000000000   1.6878491151
	   Ne   0.0000000000   0.0000000000  -0.5930410621

    Final optimized geometry and variables:
    Molecular point group: c2v
    Full point group: C_inf_v

    Geometry (in Angstrom), charge = 0, multiplicity = 2:

    LI           0.000000000000     0.000000000000     1.686740739551
    NE           0.000000000000     0.000000000000    -0.591932686608

    Psi4 stopped on: Wednesday, 16 July 2025 06:31PM
    Psi4 wall time for execution: 0:00:11.83

*** Psi4 exiting successfully. Buy a developer a beer!
