                               Psi4 1.9.1 release

  ==> Input File <==

--------------------------------------------------------------------------
molecule {
0 2
P   0.00000        0.60000        0.00000
S   0.00000       -0.60000        0.00000
}

set {
basis              cc-pvdz
reference          uks
maxiter            500
geom_maxiter       500
DAMPING_PERCENTAGE 1
guess              SAP
}

optimize('b3lyp')
--------------------------------------------------------------------------

    Molecular point group: c2v
  Charge       = 0
  Multiplicity = 2
  Basis Set: CC-PVDZ
    Blend: CC-PVDZ
  Basis Set: (CC-PVDZ AUX)
    Blend: CC-PVDZ-JKFIT
  @DF-UKS Final Energy:  -738.37727154120785
    Total Energy =                       -738.3772715412078469
 Dipole X            :          0.0000000            0.0000000            0.0000000
 Dipole Y            :          0.0000000            0.0000000            0.0000000
 Dipole Z            :          0.1940162           -0.5763806           -0.3823644
 Magnitude           :                                                    0.3823644
    Molecular point group: c2v
  Basis Set: CC-PVDZ
    Blend: CC-PVDZ
  Basis Set: (CC-PVDZ AUX)
    Blend: CC-PVDZ-JKFIT
  Basis Set: CC-PVDZ
    Blend: CC-PVDZ
  Basis Set: (CC-PVDZ AUX)
    Blend: CC-PVDZ-JKFIT
  @DF-UKS Final Energy:  -738.41737368947474
    Total Energy =                       -738.4173736894747435
  Basis Set: CC-PVDZ
    Blend: CC-PVDZ
  Basis Set: (CC-PVDZ AUX)
    Blend: CC-PVDZ-JKFIT
  Basis Set: CC-PVDZ
    Blend: CC-PVDZ
  @DF-UKS Final Energy:  -738.49203767514064
    Total Energy =                       -738.4920376751406366
  @DF-UKS Final Energy:  -738.73673442054815
    Total Energy =                       -738.7367344205480322
  @DF-UKS Final Energy:  -739.26394497706542
    Total Energy =                       -739.2639449770654210
  @DF-UKS Final Energy:  -739.42491669708647
    Total Energy =                       -739.4249166970864735
  @DF-UKS Final Energy:  -739.51436398578619
    Total Energy =                       -739.5143639857860762
  @DF-UKS Final Energy:  -739.54185894866180
    Total Energy =                       -739.5418589486617975
  @DF-UKS Final Energy:  -739.55318213668841
    Total Energy =                       -739.5531821366884060
  @DF-UKS Final Energy:  -739.55682389828689
    Total Energy =                       -739.5568238982868934
  @DF-UKS Final Energy:  -739.55738803808788
    Total Energy =                       -739.5573880380878791
  @DF-UKS Final Energy:  -739.55748467525677
    Total Energy =                       -739.5574846752567737
  Basis Set: (CC-PVDZ AUX)
    Blend: CC-PVDZ-JKFIT
  Basis Set: CC-PVDZ
    Blend: CC-PVDZ
  Basis Set: (CC-PVDZ AUX)
    Blend: CC-PVDZ-JKFIT
  @DF-UKS Final Energy:  -739.55750399966803
    Total Energy =                       -739.5575039996680289
  Basis Set: CC-PVDZ
    Blend: CC-PVDZ
  Basis Set: (CC-PVDZ AUX)
    Blend: CC-PVDZ-JKFIT
  Charge       = 0
  Multiplicity = 2
  Basis Set: CC-PVDZ
    Blend: CC-PVDZ
  Basis Set: (CC-PVDZ AUX)
    Blend: CC-PVDZ-JKFIT

    Orbital Energies [Eh]
    ---------------------

    Alpha Occupied:

       1A1   -88.901214     2A1   -77.135719     3A1    -7.964029
       4A1    -6.603993     1B2    -5.925255     5A1    -5.924447
       1B1    -5.922471     2B2    -4.767675     2B1    -4.764812
       6A1    -4.762755     7A1    -0.768909     8A1    -0.540584
       9A1    -0.344917     3B1    -0.333742     3B2    -0.324683
       4B1    -0.197468

    Alpha Virtual:

       4B2    -0.136805    10A1     0.035470    11A1     0.262305
       5B2     0.351182     5B1     0.351517    12A1     0.367265
       1A2     0.422196     6B1     0.423064    13A1     0.423859
       6B2     0.427016    14A1     0.430679     7B2     0.505109
       7B1     0.505461     2A2     0.605503    15A1     0.606382
      16A1     0.662226    17A1     0.772939     8B1     0.820713
       8B2     0.820921    18A1     1.187858

    Beta Occupied:

       1A1   -88.899523     2A1   -77.132470     3A1    -7.962327
       4A1    -6.600545     1B2    -5.924688     5A1    -5.923580
       1B1    -5.916296     2B2    -4.765459     6A1    -4.760863
       2B1    -4.753747     7A1    -0.758421     8A1    -0.514619
       9A1    -0.333229     3B2    -0.320674     3B1    -0.298748

    Beta Virtual:

       4B2    -0.127855     4B1    -0.099822    10A1     0.044937
      11A1     0.267491     5B2     0.354481     5B1     0.373805
      12A1     0.376539     6B2     0.431766    13A1     0.434850
       6B1     0.454843     1A2     0.455132    14A1     0.456410
       7B2     0.506665     7B1     0.521826    15A1     0.624851
       2A2     0.624973    16A1     0.670864    17A1     0.781685
       8B2     0.823554     8B1     0.844600    18A1     1.196147

    Final Occupation by Irrep:
             A1    A2    B1    B2
    DOCC [     9,    0,    3,    3 ]
    SOCC [     0,    0,    1,    0 ]
    NA   [     9,    0,    4,    3 ]
    NB   [     9,    0,    3,    3 ]

  @DF-UKS Final Energy:  -739.55750584639759

   => Energetics <=

    Nuclear Repulsion Energy =             65.8267757998212915
    One-Electron Energy =               -1152.6930963800991776
    Two-Electron Energy =                 386.7023591822862727
    DFT Exchange-Correlation Energy =     -39.3935444484058834
    Empirical Dispersion Energy =           0.0000000000000000
    VV10 Nonlocal Energy =                  0.0000000000000000
    Total Energy =                       -739.5575058463975893

  UHF NO Occupations:
  HONO-2 :    3 B1 1.9994563
  HONO-1 :    9 A1 1.9992652
  HONO-0 :    4 B1 1.0000000
  LUNO+0 :   10 A1 0.0007348
  LUNO+1 :    5 B1 0.0005437
  LUNO+2 :    4 B2 0.0004253
  LUNO+3 :   11 A1 0.0001304

Computation Completed

Properties will be evaluated at   0.000000,   0.000000,   0.000000 [a0]

Properties computed using the SCF density matrix

 Multipole Moments:

 ------------------------------------------------------------------------------------
     Multipole            Electronic (a.u.)      Nuclear  (a.u.)        Total (a.u.)
 ------------------------------------------------------------------------------------

 L = 1.  Multiply by 2.5417464519 to convert [e a0] to [Debye]
 Dipole X            :          0.0000000            0.0000000            0.0000000
 Dipole Y            :          0.0000000            0.0000000            0.0000000
 Dipole Z            :          1.2231406           -0.9266973            0.2964433
 Magnitude           :                                                    0.2964433

 ------------------------------------------------------------------------------------

*** tstop() called on Joses-MacBook-Pro-2.local at Wed Jul 16 20:22:45 2025
Module time:
	user time   =      24.51 seconds =       0.41 minutes
	system time =       2.08 seconds =       0.03 minutes
	total time  =          2 seconds =       0.03 minutes
Total time:
	user time   =     448.42 seconds =       7.47 minutes
	system time =      64.15 seconds =       1.07 minutes
	total time  =         52 seconds =       0.87 minutes

*** tstart() called on Joses-MacBook-Pro-2.local
*** at Wed Jul 16 20:22:45 2025

         ------------------------------------------------------------
                                   SCF GRAD
                          Rob Parrish, Justin Turney,
                       Andy Simmonett, and Alex Sokolov
         ------------------------------------------------------------

  ==> Geometry <==

    Molecular point group: c2v
    Full point group: C_inf_v

    Geometry (in Angstrom), charge = 0, multiplicity = 2:

       Center              X                  Y                   Z               Mass
    ------------   -----------------  -----------------  -----------------  -----------------
         P            0.000000000000     0.000000000000     0.979971792971    30.973761998420
         S            0.000000000000     0.000000000000    -0.949372748330    31.972071174400

  Nuclear repulsion =   65.826775799821291

  ==> Basis Set <==

  Basis Set: CC-PVDZ
    Blend: CC-PVDZ
    Number of shells: 16
    Number of basis functions: 36
    Number of Cartesian functions: 38
    Spherical Harmonics?: true
    Max angular momentum: 2

  ==> DFJKGrad: Density-Fitted SCF Gradients <==

    Gradient:                    1
    J tasked:                  Yes
    K tasked:                  Yes
    wK tasked:                  No
    OpenMP threads:              1
    Integrals threads:           1
    Memory [MiB]:              375
    Schwarz Cutoff:          1E-12
    Fitting Condition:       1E-10

   => Auxiliary Basis Set <=

  Basis Set: (CC-PVDZ AUX)
    Blend: CC-PVDZ-JKFIT
    Number of shells: 72
    Number of basis functions: 224
    Number of Cartesian functions: 260
    Spherical Harmonics?: true
    Max angular momentum: 3

  ==> DFT Potential <==

   => LibXC <=

    Version 6.2.2
    S. Lehtola, C. Steigemann, M. J.T. Oliveira, and M. A.L. Marques.,  SoftwareX 7, 1â€“5 (2018) (10.1016/j.softx.2017.11.002)

   => Composite Functional: B3LYP <=

    B3LYP Hyb-GGA Exchange-Correlation Functional

    P. J. Stephens, F. J. Devlin, C. F. Chabalowski, and M. J. Frisch.,  J. Phys. Chem. 98, 11623 (1994) (10.1021/j100096a001)

    Deriv               =              1
    GGA                 =           TRUE
    Meta                =          FALSE

    Exchange Hybrid     =           TRUE
    MP2 Hybrid          =          FALSE

   => Exchange Functionals <=

    0.0800   Slater exchange
    0.7200         Becke 88

   => Exact (HF) Exchange <=

    0.2000               HF

   => Correlation Functionals <=

    0.1900   Vosko, Wilk & Nusair (VWN5_RPA)
    0.8100   Lee, Yang & Parr

   => LibXC Density Thresholds  <==

    XC_HYB_GGA_XC_B3LYP:  1.00E-15

   => Molecular Quadrature <=

    Radial Scheme          =       TREUTLER
    Pruning Scheme         =           NONE
    Nuclear Scheme         =       TREUTLER

    Blocking Scheme        =         OCTREE
    BS radius alpha        =              1
    Pruning alpha          =              1
    Radial Points          =             75
    Spherical Points       =            302
    Total Points           =          40800
    Total Blocks           =            366
    Max Points             =            256
    Max Functions          =             36
    Weights Tolerance      =       1.00E-15

  -Total Gradient:
     Atom            X                  Y                   Z
    ------   -----------------  -----------------  -----------------
       1        0.000000000000    -0.000000000000    -0.000193311548
       2       -0.000000000000     0.000000000000     0.000201506126

*** tstop() called on Joses-MacBook-Pro-2.local at Wed Jul 16 20:22:46 2025
Module time:
	user time   =       2.60 seconds =       0.04 minutes
	system time =       0.99 seconds =       0.02 minutes
	total time  =          1 seconds =       0.02 minutes
Total time:
	user time   =     451.03 seconds =       7.52 minutes
	system time =      65.14 seconds =       1.09 minutes
	total time  =         53 seconds =       0.88 minutes

    			-----------------------------------------

    			 OPTKING 3.0: for geometry optimizations

    			     By R.A. King, Bethel University

    			        with contributions from

    			    A.V. Copan, J. Cayton, A. Heide

    			-----------------------------------------

	                            ===> Fragment 1 <==

	 Z (Atomic Numbers)          Masses                          Geom
	      15.000000            30.973762          0.00000000  0.00000000  1.85187830
	      16.000000            31.972071          0.00000000  0.00000000 -1.79405449

	 - Coordinate -           - BOHR/RAD -       - ANG/DEG -
	 R(1,2)           =         3.645933           1.929345

	        --- Internal Coordinate Step in ANG or DEG, aJ/ANG or AJ/DEG ---
	-------------------------------------------------------------------------------
	           Coordinate      Previous         Force          Change          New
	           ----------      --------        ------          ------        ------
	               R(1,2)       1.92934        0.00163        0.00030       1.92964
	-------------------------------------------------------------------------------

	                                 ==> Convergence Check <==

	Measures of convergence in internal coordinates in au.

	Criteria marked as inactive (o), active & met (*), and active & unmet ( ).

	----------------------------------------------------------------------------------------------
	   Step    Total Energy     Delta E     Max Force     RMS Force      Max Disp      RMS Disp
	----------------------------------------------------------------------------------------------
	  Convergence Criteria     1.00e-06 *    3.00e-04 *             o    1.20e-03 *             o
	----------------------------------------------------------------------------------------------
	    14    -739.55750585   -1.85e-06      1.97e-04 *    1.97e-04 o    5.66e-04 *    5.66e-04 o  ~
	----------------------------------------------------------------------------------------------

Next Geometry in Ang
	Fragment 1 (Ang)

	    P   0.0000000000   0.0000000000   0.9801216340
	    S   0.0000000000   0.0000000000  -0.9495225893

    Final optimized geometry and variables:
    Molecular point group: c2v
    Full point group: C_inf_v

    Geometry (in Angstrom), charge = 0, multiplicity = 2:

    P            0.000000000000     0.000000000000     0.979971792971
    S            0.000000000000     0.000000000000    -0.949372748330

    Psi4 stopped on: Wednesday, 16 July 2025 08:22PM
    Psi4 wall time for execution: 0:00:53.00

*** Psi4 exiting successfully. Buy a developer a beer!
