                               Psi4 1.9.1 release

  ==> Input File <==

--------------------------------------------------------------------------
molecule {
0 2
Na   0.00000        0.60000        0.00000
Mg   0.00000       -0.60000        0.00000
}

set {
basis              cc-pvdz
reference          uks
maxiter            500
geom_maxiter       500
DAMPING_PERCENTAGE 1
guess              SAP
}

optimize('b3lyp')
--------------------------------------------------------------------------

    Molecular point group: c2v
  Charge       = 0
  Multiplicity = 2
  Basis Set: CC-PVDZ
    Blend: CC-PVDZ
  Basis Set: (CC-PVDZ AUX)
    Blend: DEF2-UNIVERSAL-JKFIT
  @DF-UKS Final Energy:  -361.74209550845347
    Total Energy =                       -361.7420955084535308
 Dipole X            :          0.0000000            0.0000000            0.0000000
 Dipole Y            :          0.0000000            0.0000000            0.0000000
 Dipole Z            :          1.3125812           -0.5813069            0.7312743
 Magnitude           :                                                    0.7312743
    Molecular point group: c2v
  Basis Set: CC-PVDZ
    Blend: CC-PVDZ
  Basis Set: (CC-PVDZ AUX)
    Blend: DEF2-UNIVERSAL-JKFIT
  Basis Set: CC-PVDZ
    Blend: CC-PVDZ
  Basis Set: (CC-PVDZ AUX)
    Blend: DEF2-UNIVERSAL-JKFIT
  @DF-UKS Final Energy:  -361.74876297337892
    Total Energy =                       -361.7487629733789163
  Basis Set: CC-PVDZ
    Blend: CC-PVDZ
  Basis Set: (CC-PVDZ AUX)
    Blend: DEF2-UNIVERSAL-JKFIT
  Basis Set: CC-PVDZ
    Blend: CC-PVDZ
  @DF-UKS Final Energy:  -361.76163217315633
    Total Energy =                       -361.7616321731563289
  @DF-UKS Final Energy:  -361.80833200979390
    Total Energy =                       -361.8083320097939009
  @DF-UKS Final Energy:  -362.02143509821479
    Total Energy =                       -362.0214350982147948
  @DF-UKS Final Energy:  -362.12964359175214
    Total Energy =                       -362.1296435917521421
  @DF-UKS Final Energy:  -362.20812500170763
    Total Energy =                       -362.2081250017076286
  @DF-UKS Final Energy:  -362.27005274109069
    Total Energy =                       -362.2700527410906943
  @DF-UKS Final Energy:  -362.30980410355608
    Total Energy =                       -362.3098041035561323
  @DF-UKS Final Energy:  -362.33114645695190
    Total Energy =                       -362.3311464569518421
  @DF-UKS Final Energy:  -362.33994216879614
    Total Energy =                       -362.3399421687961990
  @DF-UKS Final Energy:  -362.37663055983467
    Total Energy =                       -362.3766305598346662
  @DF-UKS Final Energy:  -362.38565963838369
    Total Energy =                       -362.3856596383836290
  @DF-UKS Final Energy:  -362.38567713363739
    Total Energy =                       -362.3856771336373868
  @DF-UKS Final Energy:  -362.38604708370343
    Total Energy =                       -362.3860470837034882
  @DF-UKS Final Energy:  -362.38607985865548
    Total Energy =                       -362.3860798586554779
  Basis Set: (CC-PVDZ AUX)
    Blend: DEF2-UNIVERSAL-JKFIT
  Basis Set: CC-PVDZ
    Blend: CC-PVDZ
  Basis Set: (CC-PVDZ AUX)
    Blend: DEF2-UNIVERSAL-JKFIT
  @DF-UKS Final Energy:  -362.38608258486215
    Total Energy =                       -362.3860825848621516
  Basis Set: CC-PVDZ
    Blend: CC-PVDZ
  Basis Set: (CC-PVDZ AUX)
    Blend: DEF2-UNIVERSAL-JKFIT
  Charge       = 0
  Multiplicity = 2
  Basis Set: CC-PVDZ
    Blend: CC-PVDZ
  Basis Set: (CC-PVDZ AUX)
    Blend: DEF2-UNIVERSAL-JKFIT

    Orbital Energies [Eh]
    ---------------------

    Alpha Occupied:

       1A1   -46.818775     2A1   -38.477965     3A1    -3.099050
       4A1    -2.222437     1B2    -1.842617     1B1    -1.842617
       5A1    -1.842000     2B2    -1.153501     2B1    -1.153501
       6A1    -1.153107     7A1    -0.206355     8A1    -0.122583

    Alpha Virtual:

       3B2    -0.041923     3B1    -0.041923     9A1    -0.038643
       4B1    -0.003049     4B2    -0.003049    10A1     0.019065
      11A1     0.055272     5B2     0.074322     5B1     0.074322
      12A1     0.088910    13A1     0.137930    14A1     0.159457
       1A2     0.159458     6B1     0.161038     6B2     0.161038
       7B2     0.178503     7B1     0.178503    15A1     0.181379
      16A1     0.271580     2A2     0.326299    17A1     0.326300
       8B1     0.375364     8B2     0.375364    18A1     0.481588

    Beta Occupied:

       1A1   -46.818377     2A1   -38.476719     3A1    -3.098405
       4A1    -2.219934     1B2    -1.842248     1B1    -1.842248
       5A1    -1.840961     2B2    -1.151855     2B1    -1.151855
       6A1    -1.151484     7A1    -0.198760

    Beta Virtual:

       8A1    -0.070759     3B1    -0.037972     3B2    -0.037972
       9A1    -0.020368     4B1     0.009041     4B2     0.009041
      10A1     0.023616    11A1     0.064670     5B2     0.087145
       5B1     0.087145    12A1     0.100580    13A1     0.151020
       6B2     0.172110     6B1     0.172110     1A2     0.180265
      14A1     0.180265    15A1     0.183998     7B2     0.186301
       7B1     0.186301    16A1     0.285305     2A2     0.328509
      17A1     0.328510     8B1     0.384013     8B2     0.384013
      18A1     0.490150

    Final Occupation by Irrep:
             A1    A2    B1    B2
    DOCC [     7,    0,    2,    2 ]
    SOCC [     1,    0,    0,    0 ]
    NA   [     8,    0,    2,    2 ]
    NB   [     7,    0,    2,    2 ]

  @DF-UKS Final Energy:  -362.38608280109065

   => Energetics <=

    Nuclear Repulsion Energy =             20.1529662628660944
    One-Electron Energy =                -547.5478859300545764
    Two-Electron Energy =                 189.9229369860634904
    DFT Exchange-Correlation Energy =     -24.9141001199656920
    Empirical Dispersion Energy =           0.0000000000000000
    VV10 Nonlocal Energy =                  0.0000000000000000
    Total Energy =                       -362.3860828010905948

  UHF NO Occupations:
  HONO-2 :    6 A1 1.9999990
  HONO-1 :    7 A1 1.9969510
  HONO-0 :    8 A1 1.0000000
  LUNO+0 :    9 A1 0.0030490
  LUNO+1 :   10 A1 0.0000010
  LUNO+2 :    3 B1 0.0000009
  LUNO+3 :    3 B2 0.0000009

Computation Completed

Properties will be evaluated at   0.000000,   0.000000,   0.000000 [a0]

Properties computed using the SCF density matrix

 Multipole Moments:

 ------------------------------------------------------------------------------------
     Multipole            Electronic (a.u.)      Nuclear  (a.u.)        Total (a.u.)
 ------------------------------------------------------------------------------------

 L = 1.  Multiply by 2.5417464519 to convert [e a0] to [Debye]
 Dipole X            :          0.0000000            0.0000000            0.0000000
 Dipole Y            :          0.0000000            0.0000000            0.0000000
 Dipole Z            :          1.9300397           -1.6790373            0.2510025
 Magnitude           :                                                    0.2510025

 ------------------------------------------------------------------------------------

*** tstop() called on Joses-MacBook-Pro-2.local at Wed Jul 16 19:40:25 2025
Module time:
	user time   =       6.26 seconds =       0.10 minutes
	system time =       2.42 seconds =       0.04 minutes
	total time  =          0 seconds =       0.00 minutes
Total time:
	user time   =     206.03 seconds =       3.43 minutes
	system time =      73.90 seconds =       1.23 minutes
	total time  =         26 seconds =       0.43 minutes

*** tstart() called on Joses-MacBook-Pro-2.local
*** at Wed Jul 16 19:40:25 2025

         ------------------------------------------------------------
                                   SCF GRAD
                          Rob Parrish, Justin Turney,
                       Andy Simmonett, and Alex Sokolov
         ------------------------------------------------------------

  ==> Geometry <==

    Molecular point group: c2v
    Full point group: C_inf_v

    Geometry (in Angstrom), charge = 0, multiplicity = 2:

       Center              X                  Y                   Z               Mass
    ------------   -----------------  -----------------  -----------------  -----------------
         NA           0.000000000000     0.000000000000     1.769748376893    22.989769282000
         MG           0.000000000000     0.000000000000    -1.696311700682    23.985041697000

  Nuclear repulsion =   20.152966262866094

  ==> Basis Set <==

  Basis Set: CC-PVDZ
    Blend: CC-PVDZ
    Number of shells: 16
    Number of basis functions: 36
    Number of Cartesian functions: 38
    Spherical Harmonics?: true
    Max angular momentum: 2

  ==> DFJKGrad: Density-Fitted SCF Gradients <==

    Gradient:                    1
    J tasked:                  Yes
    K tasked:                  Yes
    wK tasked:                  No
    OpenMP threads:              1
    Integrals threads:           1
    Memory [MiB]:              375
    Schwarz Cutoff:          1E-12
    Fitting Condition:       1E-10

   => Auxiliary Basis Set <=

  Basis Set: (CC-PVDZ AUX)
    Blend: DEF2-UNIVERSAL-JKFIT
    Number of shells: 68
    Number of basis functions: 224
    Number of Cartesian functions: 274
    Spherical Harmonics?: true
    Max angular momentum: 4

  ==> DFT Potential <==

   => LibXC <=

    Version 6.2.2
    S. Lehtola, C. Steigemann, M. J.T. Oliveira, and M. A.L. Marques.,  SoftwareX 7, 1â€“5 (2018) (10.1016/j.softx.2017.11.002)

   => Composite Functional: B3LYP <=

    B3LYP Hyb-GGA Exchange-Correlation Functional

    P. J. Stephens, F. J. Devlin, C. F. Chabalowski, and M. J. Frisch.,  J. Phys. Chem. 98, 11623 (1994) (10.1021/j100096a001)

    Deriv               =              1
    GGA                 =           TRUE
    Meta                =          FALSE

    Exchange Hybrid     =           TRUE
    MP2 Hybrid          =          FALSE

   => Exchange Functionals <=

    0.0800   Slater exchange
    0.7200         Becke 88

   => Exact (HF) Exchange <=

    0.2000               HF

   => Correlation Functionals <=

    0.1900   Vosko, Wilk & Nusair (VWN5_RPA)
    0.8100   Lee, Yang & Parr

   => LibXC Density Thresholds  <==

    XC_HYB_GGA_XC_B3LYP:  1.00E-15

   => Molecular Quadrature <=

    Radial Scheme          =       TREUTLER
    Pruning Scheme         =           NONE
    Nuclear Scheme         =       TREUTLER

    Blocking Scheme        =         OCTREE
    BS radius alpha        =              1
    Pruning alpha          =              1
    Radial Points          =             75
    Spherical Points       =            302
    Total Points           =          43627
    Total Blocks           =            461
    Max Points             =            255
    Max Functions          =             36
    Weights Tolerance      =       1.00E-15

  -Total Gradient:
     Atom            X                  Y                   Z
    ------   -----------------  -----------------  -----------------
       1        0.000000000000     0.000000000000    -0.000010719291
       2        0.000000000000     0.000000000000     0.000019057150

*** tstop() called on Joses-MacBook-Pro-2.local at Wed Jul 16 19:40:26 2025
Module time:
	user time   =       2.81 seconds =       0.05 minutes
	system time =       1.17 seconds =       0.02 minutes
	total time  =          1 seconds =       0.02 minutes
Total time:
	user time   =     208.84 seconds =       3.48 minutes
	system time =      75.07 seconds =       1.25 minutes
	total time  =         27 seconds =       0.45 minutes

    			-----------------------------------------

    			 OPTKING 3.0: for geometry optimizations

    			     By R.A. King, Bethel University

    			        with contributions from

    			    A.V. Copan, J. Cayton, A. Heide

    			-----------------------------------------

	                            ===> Fragment 1 <==

	 Z (Atomic Numbers)          Masses                          Geom
	      11.000000            22.989769          0.00000000  0.00000000  3.34433974
	      12.000000            23.985042          0.00000000  0.00000000 -3.20556454

	 - Coordinate -           - BOHR/RAD -       - ANG/DEG -
	 R(1,2)           =         6.549904           3.466060

	        --- Internal Coordinate Step in ANG or DEG, aJ/ANG or AJ/DEG ---
	-------------------------------------------------------------------------------
	           Coordinate      Previous         Force          Change          New
	           ----------      --------        ------          ------        ------
	               R(1,2)       3.46606        0.00012        0.00137       3.46743
	-------------------------------------------------------------------------------

	                                 ==> Convergence Check <==

	Measures of convergence in internal coordinates in au.

	Criteria marked as inactive (o), active & met (*), and active & unmet ( ).

	----------------------------------------------------------------------------------------------
	   Step    Total Energy     Delta E     Max Force     RMS Force      Max Disp      RMS Disp
	----------------------------------------------------------------------------------------------
	  Convergence Criteria     1.00e-06 *    3.00e-04 *             o    1.20e-03 *             o
	----------------------------------------------------------------------------------------------
	    18    -362.38608280   -2.16e-07 *    1.49e-05 *    1.49e-05 o    2.60e-03      2.60e-03 o  ~
	----------------------------------------------------------------------------------------------

Next Geometry in Ang
	Fragment 1 (Ang)

	   Na   0.0000000000   0.0000000000   1.7704350455
	   Mg   0.0000000000   0.0000000000  -1.6969983693

    Final optimized geometry and variables:
    Molecular point group: c2v
    Full point group: C_inf_v

    Geometry (in Angstrom), charge = 0, multiplicity = 2:

    NA           0.000000000000     0.000000000000     1.769748376893
    MG           0.000000000000     0.000000000000    -1.696311700682

    Psi4 stopped on: Wednesday, 16 July 2025 07:40PM
    Psi4 wall time for execution: 0:00:27.32

*** Psi4 exiting successfully. Buy a developer a beer!
