                               Psi4 1.9.1 release

  ==> Input File <==

--------------------------------------------------------------------------
molecule {
0 2
Na   0.00000        0.60000        0.00000
Si   0.00000       -0.60000        0.00000
}

set {
basis              cc-pvdz
reference          uks
maxiter            500
geom_maxiter       500
DAMPING_PERCENTAGE 1
guess              SAP
}

optimize('b3lyp')
--------------------------------------------------------------------------

    Molecular point group: c2v
  Charge       = 0
  Multiplicity = 2
  Basis Set: CC-PVDZ
    Blend: CC-PVDZ
  Basis Set: (CC-PVDZ AUX)
    Blend: CC-PVDZ-JKFIT + DEF2-UNIVERSAL-JKFIT
  @DF-UKS Final Energy:  -450.93221315038801
    Total Energy =                       -450.9322131503880087
 Dipole X            :          0.0000000            0.0000000            0.0000000
 Dipole Y            :          0.0000000            0.0000000            0.0000000
 Dipole Z            :          2.2505488           -0.6278248            1.6227240
 Magnitude           :                                                    1.6227240
    Molecular point group: c2v
  Basis Set: CC-PVDZ
    Blend: CC-PVDZ
  Basis Set: (CC-PVDZ AUX)
    Blend: CC-PVDZ-JKFIT + DEF2-UNIVERSAL-JKFIT
  Basis Set: CC-PVDZ
    Blend: CC-PVDZ
  Basis Set: (CC-PVDZ AUX)
    Blend: CC-PVDZ-JKFIT + DEF2-UNIVERSAL-JKFIT
  @DF-UKS Final Energy:  -450.94047103090577
    Total Energy =                       -450.9404710309057691
  Basis Set: CC-PVDZ
    Blend: CC-PVDZ
  Basis Set: (CC-PVDZ AUX)
    Blend: CC-PVDZ-JKFIT + DEF2-UNIVERSAL-JKFIT
  Basis Set: CC-PVDZ
    Blend: CC-PVDZ
  @DF-UKS Final Energy:  -450.95644859563720
    Total Energy =                       -450.9564485956371982
  @DF-UKS Final Energy:  -451.01479322524216
    Total Energy =                       -451.0147932252421583
  @DF-UKS Final Energy:  -451.28630765994029
    Total Energy =                       -451.2863076599402916
  @DF-UKS Final Energy:  -451.44138863874582
    Total Energy =                       -451.4413886387458206
  @DF-UKS Final Energy:  -451.54909883502961
    Total Energy =                       -451.5490988350296675
  @DF-UKS Final Energy:  -451.60874283227167
    Total Energy =                       -451.6087428322716733
  @DF-UKS Final Energy:  -451.63722678752742
    Total Energy =                       -451.6372267875273678
  @DF-UKS Final Energy:  -451.64905311207622
    Total Energy =                       -451.6490531120762739
  @DF-UKS Final Energy:  -451.70423871451965
    Total Energy =                       -451.7042387145195903
  @DF-UKS Final Energy:  -451.70948927763504
    Total Energy =                       -451.7094892776351571
  @DF-UKS Final Energy:  -451.70953457943199
    Total Energy =                       -451.7095345794319883
  @DF-UKS Final Energy:  -451.71008859282182
    Total Energy =                       -451.7100885928218190
  @DF-UKS Final Energy:  -451.71010769210636
    Total Energy =                       -451.7101076921063623
  Basis Set: (CC-PVDZ AUX)
    Blend: CC-PVDZ-JKFIT + DEF2-UNIVERSAL-JKFIT
  Basis Set: CC-PVDZ
    Blend: CC-PVDZ
  Basis Set: (CC-PVDZ AUX)
    Blend: CC-PVDZ-JKFIT + DEF2-UNIVERSAL-JKFIT
  @DF-UKS Final Energy:  -451.71010927969905
    Total Energy =                       -451.7101092796990542
  Basis Set: CC-PVDZ
    Blend: CC-PVDZ
  Basis Set: (CC-PVDZ AUX)
    Blend: CC-PVDZ-JKFIT + DEF2-UNIVERSAL-JKFIT
  Charge       = 0
  Multiplicity = 2
  Basis Set: CC-PVDZ
    Blend: CC-PVDZ
  Basis Set: (CC-PVDZ AUX)
    Blend: CC-PVDZ-JKFIT + DEF2-UNIVERSAL-JKFIT

    Orbital Energies [Eh]
    ---------------------

    Alpha Occupied:

       1A1   -66.103150     2A1   -38.514179     3A1    -5.246094
       1B1    -3.605933     1B2    -3.605933     4A1    -3.602124
       5A1    -2.258137     2B2    -1.189788     2B1    -1.189788
       6A1    -1.189517     7A1    -0.395013     3B2    -0.146244
       3B1    -0.146244

    Alpha Virtual:

       8A1    -0.102993     9A1    -0.050309     4B2    -0.005766
       4B1    -0.005766    10A1     0.014645    11A1     0.050335
       5B1     0.075085     5B2     0.075085    12A1     0.129425
      13A1     0.159038     1A2     0.159039     6B2     0.176565
       6B1     0.176565    14A1     0.237297     7B2     0.360763
       7B1     0.360763    15A1     0.397244     2A2     0.398137
      16A1     0.398139    17A1     0.426308     8B1     0.499760
       8B2     0.499760    18A1     0.693210

    Beta Occupied:

       1A1   -66.099905     2A1   -38.515086     3A1    -5.242494
       4A1    -3.605522     1B2    -3.596207     1B1    -3.596207
       5A1    -2.259939     6A1    -1.191112     2B2    -1.190767
       2B1    -1.190767     7A1    -0.359356     8A1    -0.160593

    Beta Virtual:

       9A1    -0.070375     3B2    -0.054907     3B1    -0.054907
       4B2     0.001673     4B1     0.001673    10A1     0.015140
      11A1     0.047486     5B1     0.070539     5B2     0.070539
      12A1     0.117970     1A2     0.155162    13A1     0.155162
       6B2     0.172352     6B1     0.172352    14A1     0.229535
       7B2     0.396411     7B1     0.396411    15A1     0.403553
      16A1     0.417042     2A2     0.467710    17A1     0.467715
       8B1     0.510035     8B2     0.510035    18A1     0.697378

    Final Occupation by Irrep:
             A1    A2    B1    B2
Warning! Irrep has more beta than alpha electrons in symmetry 0 orbitals.
Warning! Irrep has more beta than alpha electrons in symmetry 0 orbitals.
    DOCC [     7,    0,    2,    2 ]
    SOCC [     1,    0,    1,    1 ]
    NA   [     7,    0,    3,    3 ]
    NB   [     8,    0,    2,    2 ]

  @DF-UKS Final Energy:  -451.71010927971042

   => Energetics <=

    Nuclear Repulsion Energy =             29.2365069915974871
    One-Electron Energy =                -687.3889757885037852
    Two-Electron Energy =                 234.8953102675032198
    DFT Exchange-Correlation Energy =     -28.4529507503073127
    Empirical Dispersion Energy =           0.0000000000000000
    VV10 Nonlocal Energy =                  0.0000000000000000
    Total Energy =                       -451.7101092797104229

  UHF NO Occupations:
  HONO-2 :    7 A1 1.9944796
  HONO-1 :    3 B2 1.0000000
  HONO-0 :    8 A1 1.0000000
  LUNO+0 :    3 B1 1.0000000
  LUNO+1 :    9 A1 0.0055204
  LUNO+2 :   10 A1 0.0000012
  LUNO+3 :    4 B1 0.0000004

Computation Completed

Properties will be evaluated at   0.000000,   0.000000,   0.000000 [a0]

Properties computed using the SCF density matrix

 Multipole Moments:

 ------------------------------------------------------------------------------------
     Multipole            Electronic (a.u.)      Nuclear  (a.u.)        Total (a.u.)
 ------------------------------------------------------------------------------------

 L = 1.  Multiply by 2.5417464519 to convert [e a0] to [Debye]
 Dipole X            :          0.0000000            0.0000000            0.0000000
 Dipole Y            :          0.0000000            0.0000000            0.0000000
 Dipole Z            :          3.8312368           -1.4583225            2.3729144
 Magnitude           :                                                    2.3729144

 ------------------------------------------------------------------------------------
Warning! Irrep has more beta than alpha electrons in symmetry 0 orbitals.
Warning! Irrep has more beta than alpha electrons in symmetry 0 orbitals.

*** tstop() called on Joses-MacBook-Pro-2.local at Wed Jul 16 19:42:55 2025
Module time:
	user time   =       6.82 seconds =       0.11 minutes
	system time =       2.54 seconds =       0.04 minutes
	total time  =          1 seconds =       0.02 minutes
Total time:
	user time   =     200.82 seconds =       3.35 minutes
	system time =      59.77 seconds =       1.00 minutes
	total time  =         25 seconds =       0.42 minutes

*** tstart() called on Joses-MacBook-Pro-2.local
*** at Wed Jul 16 19:42:55 2025

         ------------------------------------------------------------
                                   SCF GRAD
                          Rob Parrish, Justin Turney,
                       Andy Simmonett, and Alex Sokolov
         ------------------------------------------------------------

  ==> Geometry <==

    Molecular point group: c2v
    Full point group: C_inf_v

    Geometry (in Angstrom), charge = 0, multiplicity = 2:

       Center              X                  Y                   Z               Mass
    ------------   -----------------  -----------------  -----------------  -----------------
         NA           0.000000000000     0.000000000000     1.530065041229    22.989769282000
         SI           0.000000000000     0.000000000000    -1.257316175912    27.976926534650

  Nuclear repulsion =   29.236506991597487

  ==> Basis Set <==

  Basis Set: CC-PVDZ
    Blend: CC-PVDZ
    Number of shells: 16
    Number of basis functions: 36
    Number of Cartesian functions: 38
    Spherical Harmonics?: true
    Max angular momentum: 2

  ==> DFJKGrad: Density-Fitted SCF Gradients <==

    Gradient:                    1
    J tasked:                  Yes
    K tasked:                  Yes
    wK tasked:                  No
    OpenMP threads:              1
    Integrals threads:           1
    Memory [MiB]:              375
    Schwarz Cutoff:          1E-12
    Fitting Condition:       1E-10

   => Auxiliary Basis Set <=

  Basis Set: (CC-PVDZ AUX)
    Blend: CC-PVDZ-JKFIT + DEF2-UNIVERSAL-JKFIT
    Number of shells: 70
    Number of basis functions: 224
    Number of Cartesian functions: 267
    Spherical Harmonics?: true
    Max angular momentum: 4

  ==> DFT Potential <==

   => LibXC <=

    Version 6.2.2
    S. Lehtola, C. Steigemann, M. J.T. Oliveira, and M. A.L. Marques.,  SoftwareX 7, 1â€“5 (2018) (10.1016/j.softx.2017.11.002)

   => Composite Functional: B3LYP <=

    B3LYP Hyb-GGA Exchange-Correlation Functional

    P. J. Stephens, F. J. Devlin, C. F. Chabalowski, and M. J. Frisch.,  J. Phys. Chem. 98, 11623 (1994) (10.1021/j100096a001)

    Deriv               =              1
    GGA                 =           TRUE
    Meta                =          FALSE

    Exchange Hybrid     =           TRUE
    MP2 Hybrid          =          FALSE

   => Exchange Functionals <=

    0.0800   Slater exchange
    0.7200         Becke 88

   => Exact (HF) Exchange <=

    0.2000               HF

   => Correlation Functionals <=

    0.1900   Vosko, Wilk & Nusair (VWN5_RPA)
    0.8100   Lee, Yang & Parr

   => LibXC Density Thresholds  <==

    XC_HYB_GGA_XC_B3LYP:  1.00E-15

   => Molecular Quadrature <=

    Radial Scheme          =       TREUTLER
    Pruning Scheme         =           NONE
    Nuclear Scheme         =       TREUTLER

    Blocking Scheme        =         OCTREE
    BS radius alpha        =              1
    Pruning alpha          =              1
    Radial Points          =             75
    Spherical Points       =            302
    Total Points           =          43849
    Total Blocks           =            450
    Max Points             =            256
    Max Functions          =             36
    Weights Tolerance      =       1.00E-15

  -Total Gradient:
     Atom            X                  Y                   Z
    ------   -----------------  -----------------  -----------------
       1        0.000000000000    -0.000000000000     0.000030035705
       2       -0.000000000000     0.000000000000    -0.000003115901

*** tstop() called on Joses-MacBook-Pro-2.local at Wed Jul 16 19:42:55 2025
Module time:
	user time   =       2.90 seconds =       0.05 minutes
	system time =       1.18 seconds =       0.02 minutes
	total time  =          0 seconds =       0.00 minutes
Total time:
	user time   =     203.72 seconds =       3.40 minutes
	system time =      60.95 seconds =       1.02 minutes
	total time  =         25 seconds =       0.42 minutes

    			-----------------------------------------

    			 OPTKING 3.0: for geometry optimizations

    			     By R.A. King, Bethel University

    			        with contributions from

    			    A.V. Copan, J. Cayton, A. Heide

    			-----------------------------------------

	                            ===> Fragment 1 <==

	 Z (Atomic Numbers)          Masses                          Geom
	      11.000000            22.989769          0.00000000  0.00000000  2.89140388
	      14.000000            27.976927          0.00000000  0.00000000 -2.37598323

	 - Coordinate -           - BOHR/RAD -       - ANG/DEG -
	 R(1,2)           =         5.267387           2.787381

	        --- Internal Coordinate Step in ANG or DEG, aJ/ANG or AJ/DEG ---
	-------------------------------------------------------------------------------
	           Coordinate      Previous         Force          Change          New
	           ----------      --------        ------          ------        ------
	               R(1,2)       2.78738       -0.00014       -0.00052       2.78686
	-------------------------------------------------------------------------------

	                                 ==> Convergence Check <==

	Measures of convergence in internal coordinates in au.

	Criteria marked as inactive (o), active & met (*), and active & unmet ( ).

	----------------------------------------------------------------------------------------------
	   Step    Total Energy     Delta E     Max Force     RMS Force      Max Disp      RMS Disp
	----------------------------------------------------------------------------------------------
	  Convergence Criteria     1.00e-06 *    3.00e-04 *             o    1.20e-03 *             o
	----------------------------------------------------------------------------------------------
	    17    -451.71010928   -1.14e-11 *    1.66e-05 *    1.66e-05 o    9.77e-04 *    9.77e-04 o  ~
	----------------------------------------------------------------------------------------------

Next Geometry in Ang
	Fragment 1 (Ang)

	   Na   0.0000000000   0.0000000000   1.5298064397
	   Si   0.0000000000   0.0000000000  -1.2570575744

    Final optimized geometry and variables:
    Molecular point group: c2v
    Full point group: C_inf_v

    Geometry (in Angstrom), charge = 0, multiplicity = 2:

    NA           0.000000000000     0.000000000000     1.530065041229
    SI           0.000000000000     0.000000000000    -1.257316175912

    Psi4 stopped on: Wednesday, 16 July 2025 07:42PM
    Psi4 wall time for execution: 0:00:25.70

*** Psi4 exiting successfully. Buy a developer a beer!
