                               Psi4 1.9.1 release

  ==> Input File <==

--------------------------------------------------------------------------
molecule {
0 2
Li   0.00000        0.60000        0.00000
C   0.00000       -0.60000        0.00000
}

set {
basis              cc-pvdz
reference          uks
maxiter            500
geom_maxiter       500
DAMPING_PERCENTAGE 1
guess              SAP
}

optimize('b3lyp')
--------------------------------------------------------------------------

    Molecular point group: c2v
  Charge       = 0
  Multiplicity = 2
  Basis Set: CC-PVDZ
    Blend: CC-PVDZ
  Basis Set: (CC-PVDZ AUX)
    Blend: CC-PVDZ-JKFIT + DEF2-UNIVERSAL-JKFIT
  @DF-UKS Final Energy:   -45.22799677809128
    Total Energy =                        -45.2279967780912813
 Dipole X            :          0.0000000            0.0000000            0.0000000
 Dipole Y            :          0.0000000            0.0000000            0.0000000
 Dipole Z            :          1.9343266           -0.7269546            1.2073719
 Magnitude           :                                                    1.2073719
    Molecular point group: c2v
  Basis Set: CC-PVDZ
    Blend: CC-PVDZ
  Basis Set: (CC-PVDZ AUX)
    Blend: CC-PVDZ-JKFIT + DEF2-UNIVERSAL-JKFIT
  Basis Set: CC-PVDZ
    Blend: CC-PVDZ
  Basis Set: (CC-PVDZ AUX)
    Blend: CC-PVDZ-JKFIT + DEF2-UNIVERSAL-JKFIT
  @DF-UKS Final Energy:   -45.30077001780935
    Total Energy =                        -45.3007700178093486
  Basis Set: CC-PVDZ
    Blend: CC-PVDZ
  Basis Set: (CC-PVDZ AUX)
    Blend: CC-PVDZ-JKFIT + DEF2-UNIVERSAL-JKFIT
  Basis Set: CC-PVDZ
    Blend: CC-PVDZ
  @DF-UKS Final Energy:   -45.33874839598722
    Total Energy =                        -45.3387483959872242
  @DF-UKS Final Energy:   -45.35196324112687
    Total Energy =                        -45.3519632411268745
  @DF-UKS Final Energy:   -45.35599290111645
    Total Energy =                        -45.3559929011164655
  @DF-UKS Final Energy:   -45.35664838232782
    Total Energy =                        -45.3566483823278190
  @DF-UKS Final Energy:   -45.35676878850445
    Total Energy =                        -45.3567687885044535
  @DF-UKS Final Energy:   -45.35679608384612
    Total Energy =                        -45.3567960838461204
  Basis Set: (CC-PVDZ AUX)
    Blend: CC-PVDZ-JKFIT + DEF2-UNIVERSAL-JKFIT
  Basis Set: CC-PVDZ
    Blend: CC-PVDZ
  Basis Set: (CC-PVDZ AUX)
    Blend: CC-PVDZ-JKFIT + DEF2-UNIVERSAL-JKFIT
  @DF-UKS Final Energy:   -45.35679822993778
    Total Energy =                        -45.3567982299377803
  Basis Set: CC-PVDZ
    Blend: CC-PVDZ
  Basis Set: (CC-PVDZ AUX)
    Blend: CC-PVDZ-JKFIT + DEF2-UNIVERSAL-JKFIT
  Charge       = 0
  Multiplicity = 2
  Basis Set: CC-PVDZ
    Blend: CC-PVDZ
  Basis Set: (CC-PVDZ AUX)
    Blend: CC-PVDZ-JKFIT + DEF2-UNIVERSAL-JKFIT

    Orbital Energies [Eh]
    ---------------------

    Alpha Occupied:

       1A1   -10.217523     2A1    -2.061165     3A1    -0.510823
       1B1    -0.203774     1B2    -0.162404

    Alpha Virtual:

       4A1    -0.118478     5A1    -0.057018     2B1     0.007515
       2B2     0.008879     6A1     0.033574     7A1     0.083690
       3B1     0.087862     3B2     0.088415     8A1     0.214402
       1A2     0.234211     9A1     0.235529     4B1     0.299118
       4B2     0.302628    10A1     0.462367     5B1     0.585038
       5B2     0.613033    11A1     0.639905    12A1     1.121057
       2A2     1.223816    13A1     1.226773     6B1     1.280946
       6B2     1.312764    14A1     1.370686

    Beta Occupied:

       1A1   -10.204460     2A1    -2.061289     3A1    -0.458546
       1B2    -0.145717

    Beta Virtual:

       4A1    -0.102953     1B1    -0.061578     5A1    -0.056525
       2B2     0.010411     2B1     0.028956     6A1     0.036230
       7A1     0.083896     3B2     0.086627     3B1     0.098085
       8A1     0.216863     1A2     0.235101     9A1     0.242563
       4B2     0.302266     4B1     0.316839    10A1     0.473846
       5B2     0.624051     5B1     0.645450    11A1     0.649367
      12A1     1.143605     2A2     1.276332    13A1     1.282440
       6B2     1.320948     6B1     1.338811    14A1     1.392341

    Final Occupation by Irrep:
             A1    A2    B1    B2
    DOCC [     3,    0,    0,    1 ]
    SOCC [     0,    0,    1,    0 ]
    NA   [     3,    0,    1,    1 ]
    NB   [     3,    0,    0,    1 ]

  @DF-UKS Final Energy:   -45.35679838918316

   => Energetics <=

    Nuclear Repulsion Energy =              5.2798895410726105
    One-Electron Energy =                 -71.0707092429107377
    Two-Electron Energy =                  26.2142884857929062
    DFT Exchange-Correlation Energy =      -5.7802671731379354
    Empirical Dispersion Energy =           0.0000000000000000
    VV10 Nonlocal Energy =                  0.0000000000000000
    Total Energy =                        -45.3567983891831616

  UHF NO Occupations:
  HONO-2 :    3 A1 1.9990037
  HONO-1 :    1 B2 1.9975726
  HONO-0 :    1 B1 1.0000000
  LUNO+0 :    2 B2 0.0024274
  LUNO+1 :    4 A1 0.0009963
  LUNO+2 :    5 A1 0.0000001
  LUNO+3 :    6 A1 0.0000000

Computation Completed

Properties will be evaluated at   0.000000,   0.000000,   0.000000 [a0]

Properties computed using the SCF density matrix

 Multipole Moments:

 ------------------------------------------------------------------------------------
     Multipole            Electronic (a.u.)      Nuclear  (a.u.)        Total (a.u.)
 ------------------------------------------------------------------------------------

 L = 1.  Multiply by 2.5417464519 to convert [e a0] to [Debye]
 Dipole X            :          0.0000000            0.0000000            0.0000000
 Dipole Y            :          0.0000000            0.0000000            0.0000000
 Dipole Z            :          2.8686194           -1.0928860            1.7757334
 Magnitude           :                                                    1.7757334

 ------------------------------------------------------------------------------------

*** tstop() called on Joses-MacBook-Pro-2.local at Wed Jul 16 18:29:23 2025
Module time:
	user time   =       3.24 seconds =       0.05 minutes
	system time =       3.29 seconds =       0.05 minutes
	total time  =          1 seconds =       0.02 minutes
Total time:
	user time   =      49.62 seconds =       0.83 minutes
	system time =      47.28 seconds =       0.79 minutes
	total time  =         10 seconds =       0.17 minutes

*** tstart() called on Joses-MacBook-Pro-2.local
*** at Wed Jul 16 18:29:23 2025

         ------------------------------------------------------------
                                   SCF GRAD
                          Rob Parrish, Justin Turney,
                       Andy Simmonett, and Alex Sokolov
         ------------------------------------------------------------

  ==> Geometry <==

    Molecular point group: c2v
    Full point group: C_inf_v

    Geometry (in Angstrom), charge = 0, multiplicity = 2:

       Center              X                  Y                   Z               Mass
    ------------   -----------------  -----------------  -----------------  -----------------
         LI           0.000000000000     0.000000000000     1.138441712260     7.016003436600
         C            0.000000000000     0.000000000000    -0.665609247132    12.000000000000

  Nuclear repulsion =    5.279889541072611

  ==> Basis Set <==

  Basis Set: CC-PVDZ
    Blend: CC-PVDZ
    Number of shells: 12
    Number of basis functions: 28
    Number of Cartesian functions: 30
    Spherical Harmonics?: true
    Max angular momentum: 2

  ==> DFJKGrad: Density-Fitted SCF Gradients <==

    Gradient:                    1
    J tasked:                  Yes
    K tasked:                  Yes
    wK tasked:                  No
    OpenMP threads:              1
    Integrals threads:           1
    Memory [MiB]:              375
    Schwarz Cutoff:          1E-12
    Fitting Condition:       1E-10

   => Auxiliary Basis Set <=

  Basis Set: (CC-PVDZ AUX)
    Blend: CC-PVDZ-JKFIT + DEF2-UNIVERSAL-JKFIT
    Number of shells: 41
    Number of basis functions: 121
    Number of Cartesian functions: 141
    Spherical Harmonics?: true
    Max angular momentum: 3

  ==> DFT Potential <==

   => LibXC <=

    Version 6.2.2
    S. Lehtola, C. Steigemann, M. J.T. Oliveira, and M. A.L. Marques.,  SoftwareX 7, 1â€“5 (2018) (10.1016/j.softx.2017.11.002)

   => Composite Functional: B3LYP <=

    B3LYP Hyb-GGA Exchange-Correlation Functional

    P. J. Stephens, F. J. Devlin, C. F. Chabalowski, and M. J. Frisch.,  J. Phys. Chem. 98, 11623 (1994) (10.1021/j100096a001)

    Deriv               =              1
    GGA                 =           TRUE
    Meta                =          FALSE

    Exchange Hybrid     =           TRUE
    MP2 Hybrid          =          FALSE

   => Exchange Functionals <=

    0.0800   Slater exchange
    0.7200         Becke 88

   => Exact (HF) Exchange <=

    0.2000               HF

   => Correlation Functionals <=

    0.1900   Vosko, Wilk & Nusair (VWN5_RPA)
    0.8100   Lee, Yang & Parr

   => LibXC Density Thresholds  <==

    XC_HYB_GGA_XC_B3LYP:  1.00E-15

   => Molecular Quadrature <=

    Radial Scheme          =       TREUTLER
    Pruning Scheme         =           NONE
    Nuclear Scheme         =       TREUTLER

    Blocking Scheme        =         OCTREE
    BS radius alpha        =              1
    Pruning alpha          =              1
    Radial Points          =             75
    Spherical Points       =            302
    Total Points           =          44302
    Total Blocks           =            425
    Max Points             =            254
    Max Functions          =             28
    Weights Tolerance      =       1.00E-15

  -Total Gradient:
     Atom            X                  Y                   Z
    ------   -----------------  -----------------  -----------------
       1        0.000000000000     0.000000000000    -0.000022004600
       2       -0.000000000000     0.000000000000     0.000028609746

*** tstop() called on Joses-MacBook-Pro-2.local at Wed Jul 16 18:29:23 2025
Module time:
	user time   =       0.49 seconds =       0.01 minutes
	system time =       1.22 seconds =       0.02 minutes
	total time  =          0 seconds =       0.00 minutes
Total time:
	user time   =      50.11 seconds =       0.84 minutes
	system time =      48.51 seconds =       0.81 minutes
	total time  =         10 seconds =       0.17 minutes

    			-----------------------------------------

    			 OPTKING 3.0: for geometry optimizations

    			     By R.A. King, Bethel University

    			        with contributions from

    			    A.V. Copan, J. Cayton, A. Heide

    			-----------------------------------------

	                            ===> Fragment 1 <==

	 Z (Atomic Numbers)          Masses                          Geom
	       3.000000             7.016003          0.00000000  0.00000000  2.15134305
	       6.000000            12.000000          0.00000000  0.00000000 -1.25781918

	 - Coordinate -           - BOHR/RAD -       - ANG/DEG -
	 R(1,2)           =         3.409162           1.804051

	        --- Internal Coordinate Step in ANG or DEG, aJ/ANG or AJ/DEG ---
	-------------------------------------------------------------------------------
	           Coordinate      Previous         Force          Change          New
	           ----------      --------        ------          ------        ------
	               R(1,2)       1.80405        0.00021        0.00016       1.80421
	-------------------------------------------------------------------------------

	                                 ==> Convergence Check <==

	Measures of convergence in internal coordinates in au.

	Criteria marked as inactive (o), active & met (*), and active & unmet ( ).

	----------------------------------------------------------------------------------------------
	   Step    Total Energy     Delta E     Max Force     RMS Force      Max Disp      RMS Disp
	----------------------------------------------------------------------------------------------
	  Convergence Criteria     1.00e-06 *    3.00e-04 *             o    1.20e-03 *             o
	----------------------------------------------------------------------------------------------
	    10     -45.35679839   -1.59e-07 *    2.53e-05 *    2.53e-05 o    2.98e-04 *    2.98e-04 o  ~
	----------------------------------------------------------------------------------------------

Next Geometry in Ang
	Fragment 1 (Ang)

	   Li   0.0000000000   0.0000000000   1.1385205256
	    C   0.0000000000   0.0000000000  -0.6656880605

    Final optimized geometry and variables:
    Molecular point group: c2v
    Full point group: C_inf_v

    Geometry (in Angstrom), charge = 0, multiplicity = 2:

    LI           0.000000000000     0.000000000000     1.138441712260
    C            0.000000000000     0.000000000000    -0.665609247132

    Psi4 stopped on: Wednesday, 16 July 2025 06:29PM
    Psi4 wall time for execution: 0:00:10.07

*** Psi4 exiting successfully. Buy a developer a beer!
