                               Psi4 1.9.1 release

  ==> Input File <==

--------------------------------------------------------------------------
molecule {
0 2
F   0.00000        0.60000        0.00000
Ne   0.00000       -0.60000        0.00000
}

set {
basis              cc-pvdz
reference          uks
maxiter            500
geom_maxiter       500
DAMPING_PERCENTAGE 1
guess              SAP
}

optimize('b3lyp')
--------------------------------------------------------------------------

    Molecular point group: c2v
  Charge       = 0
  Multiplicity = 2
  Basis Set: CC-PVDZ
    Blend: CC-PVDZ
  Basis Set: (CC-PVDZ AUX)
    Blend: CC-PVDZ-JKFIT
  @DF-UKS Final Energy:  -228.27646998837315
    Total Energy =                       -228.2764699883731510
 Dipole X            :          0.0000000            0.0000000            0.0000000
 Dipole Y            :          0.0000000            0.0000000            0.0000000
 Dipole Z            :         -0.1075819           -0.5846191           -0.6922010
 Magnitude           :                                                    0.6922010
    Molecular point group: c2v
  Basis Set: CC-PVDZ
    Blend: CC-PVDZ
  Basis Set: (CC-PVDZ AUX)
    Blend: CC-PVDZ-JKFIT
  Basis Set: CC-PVDZ
    Blend: CC-PVDZ
  Basis Set: (CC-PVDZ AUX)
    Blend: CC-PVDZ-JKFIT
  @DF-UKS Final Energy:  -228.54199011638764
    Total Energy =                       -228.5419901163876375
  Basis Set: CC-PVDZ
    Blend: CC-PVDZ
  Basis Set: (CC-PVDZ AUX)
    Blend: CC-PVDZ-JKFIT
  Basis Set: CC-PVDZ
    Blend: CC-PVDZ
  @DF-UKS Final Energy:  -228.58176253557593
    Total Energy =                       -228.5817625355759333
  @DF-UKS Final Energy:  -228.61299985005962
    Total Energy =                       -228.6129998500596230
  @DF-UKS Final Energy:  -228.62389730007891
    Total Energy =                       -228.6238973000789088
  @DF-UKS Final Energy:  -228.63009307478774
    Total Energy =                       -228.6300930747877374
  @DF-UKS Final Energy:  -228.63397992529531
    Total Energy =                       -228.6339799252953071
  @DF-UKS Final Energy:  -228.63594985577546
    Total Energy =                       -228.6359498557754648
  @DF-UKS Final Energy:  -228.63691781382357
    Total Energy =                       -228.6369178138235725
  @DF-UKS Final Energy:  -228.63737096555107
    Total Energy =                       -228.6373709655510709
  @DF-UKS Final Energy:  -228.63751614015246
    Total Energy =                       -228.6375161401524565
  @DF-UKS Final Energy:  -228.63758313455577
    Total Energy =                       -228.6375831345557685
  @DF-UKS Final Energy:  -228.63760184747002
    Total Energy =                       -228.6376018474700231
  @DF-UKS Final Energy:  -228.63760870180695
    Total Energy =                       -228.6376087018069541
  Basis Set: (CC-PVDZ AUX)
    Blend: CC-PVDZ-JKFIT
  Basis Set: CC-PVDZ
    Blend: CC-PVDZ
  Basis Set: (CC-PVDZ AUX)
    Blend: CC-PVDZ-JKFIT
  @DF-UKS Final Energy:  -228.63761023864436
    Total Energy =                       -228.6376102386443563
  Basis Set: CC-PVDZ
    Blend: CC-PVDZ
  Basis Set: (CC-PVDZ AUX)
    Blend: CC-PVDZ-JKFIT
  Charge       = 0
  Multiplicity = 2
  Basis Set: CC-PVDZ
    Blend: CC-PVDZ
  Basis Set: (CC-PVDZ AUX)
    Blend: CC-PVDZ-JKFIT

    Orbital Energies [Eh]
    ---------------------

    Alpha Occupied:

       1A1   -30.972733     2A1   -24.775864     3A1    -1.437311
       4A1    -1.206520     5A1    -0.561967     1B1    -0.544717
       1B2    -0.544717     6A1    -0.517947     2B2    -0.444675
       2B1    -0.444675

    Alpha Virtual:

       7A1     0.981390     3B1     1.090285     3B2     1.090285
       8A1     1.336422     4B1     1.362621     4B2     1.362621
       9A1     1.548826    10A1     1.873753    11A1     3.446825
       5B1     3.466190     5B2     3.466190    12A1     3.535079
       1A2     3.535105     6B1     4.719468     6B2     4.719468
      13A1     4.720626    14A1     4.720964     2A2     4.720976

    Beta Occupied:

       1A1   -30.972108     2A1   -24.745265     3A1    -1.436023
       4A1    -1.116358     5A1    -0.545657     1B1    -0.544188
       1B2    -0.544188     2B2    -0.413533     2B1    -0.413533

    Beta Virtual:

       6A1    -0.238698     7A1     1.068015     3B1     1.107784
       3B2     1.107784     4B1     1.363059     4B2     1.363059
       8A1     1.376824     9A1     1.572916    10A1     1.881284
      11A1     3.550166     1A2     3.550192     5B2     3.560703
       5B1     3.560703    12A1     3.581969     6B1     4.720896
       6B2     4.720896    13A1     4.721276     2A2     4.721288
      14A1     4.722412

    Final Occupation by Irrep:
             A1    A2    B1    B2
    DOCC [     5,    0,    2,    2 ]
    SOCC [     1,    0,    0,    0 ]
    NA   [     6,    0,    2,    2 ]
    NB   [     5,    0,    2,    2 ]

  @DF-UKS Final Energy:  -228.63761040173853

   => Energetics <=

    Nuclear Repulsion Energy =             20.0706272409861093
    One-Electron Energy =                -361.9715930914117052
    Two-Electron Energy =                 131.7712406609707614
    DFT Exchange-Correlation Energy =     -18.5078852122836608
    Empirical Dispersion Energy =           0.0000000000000000
    VV10 Nonlocal Energy =                  0.0000000000000000
    Total Energy =                       -228.6376104017385273

  UHF NO Occupations:
  HONO-2 :    2 B1 1.9999447
  HONO-1 :    5 A1 1.9996957
  HONO-0 :    6 A1 1.0000000
  LUNO+0 :    7 A1 0.0003043
  LUNO+1 :    3 B1 0.0000553
  LUNO+2 :    3 B2 0.0000553
  LUNO+3 :    8 A1 0.0000123

Computation Completed

Properties will be evaluated at   0.000000,   0.000000,   0.000000 [a0]

Properties computed using the SCF density matrix

 Multipole Moments:

 ------------------------------------------------------------------------------------
     Multipole            Electronic (a.u.)      Nuclear  (a.u.)        Total (a.u.)
 ------------------------------------------------------------------------------------

 L = 1.  Multiply by 2.5417464519 to convert [e a0] to [Debye]
 Dipole X            :          0.0000000            0.0000000            0.0000000
 Dipole Y            :          0.0000000            0.0000000            0.0000000
 Dipole Z            :          1.1062596           -1.1560442           -0.0497846
 Magnitude           :                                                    0.0497846

 ------------------------------------------------------------------------------------

*** tstop() called on Joses-MacBook-Pro-2.local at Wed Jul 16 19:25:26 2025
Module time:
	user time   =       3.32 seconds =       0.06 minutes
	system time =       2.32 seconds =       0.04 minutes
	total time  =          1 seconds =       0.02 minutes
Total time:
	user time   =      68.32 seconds =       1.14 minutes
	system time =      61.65 seconds =       1.03 minutes
	total time  =         13 seconds =       0.22 minutes

*** tstart() called on Joses-MacBook-Pro-2.local
*** at Wed Jul 16 19:25:26 2025

         ------------------------------------------------------------
                                   SCF GRAD
                          Rob Parrish, Justin Turney,
                       Andy Simmonett, and Alex Sokolov
         ------------------------------------------------------------

  ==> Geometry <==

    Molecular point group: c2v
    Full point group: C_inf_v

    Geometry (in Angstrom), charge = 0, multiplicity = 2:

       Center              X                  Y                   Z               Mass
    ------------   -----------------  -----------------  -----------------  -----------------
         F            0.000000000000     0.000000000000     1.216706626961    18.998403162730
         NE           0.000000000000     0.000000000000    -1.156211189132    19.992440176200

  Nuclear repulsion =   20.070627240986109

  ==> Basis Set <==

  Basis Set: CC-PVDZ
    Blend: CC-PVDZ
    Number of shells: 12
    Number of basis functions: 28
    Number of Cartesian functions: 30
    Spherical Harmonics?: true
    Max angular momentum: 2

  ==> DFJKGrad: Density-Fitted SCF Gradients <==

    Gradient:                    1
    J tasked:                  Yes
    K tasked:                  Yes
    wK tasked:                  No
    OpenMP threads:              1
    Integrals threads:           1
    Memory [MiB]:              375
    Schwarz Cutoff:          1E-12
    Fitting Condition:       1E-10

   => Auxiliary Basis Set <=

  Basis Set: (CC-PVDZ AUX)
    Blend: CC-PVDZ-JKFIT
    Number of shells: 48
    Number of basis functions: 140
    Number of Cartesian functions: 162
    Spherical Harmonics?: true
    Max angular momentum: 3

  ==> DFT Potential <==

   => LibXC <=

    Version 6.2.2
    S. Lehtola, C. Steigemann, M. J.T. Oliveira, and M. A.L. Marques.,  SoftwareX 7, 1â€“5 (2018) (10.1016/j.softx.2017.11.002)

   => Composite Functional: B3LYP <=

    B3LYP Hyb-GGA Exchange-Correlation Functional

    P. J. Stephens, F. J. Devlin, C. F. Chabalowski, and M. J. Frisch.,  J. Phys. Chem. 98, 11623 (1994) (10.1021/j100096a001)

    Deriv               =              1
    GGA                 =           TRUE
    Meta                =          FALSE

    Exchange Hybrid     =           TRUE
    MP2 Hybrid          =          FALSE

   => Exchange Functionals <=

    0.0800   Slater exchange
    0.7200         Becke 88

   => Exact (HF) Exchange <=

    0.2000               HF

   => Correlation Functionals <=

    0.1900   Vosko, Wilk & Nusair (VWN5_RPA)
    0.8100   Lee, Yang & Parr

   => LibXC Density Thresholds  <==

    XC_HYB_GGA_XC_B3LYP:  1.00E-15

   => Molecular Quadrature <=

    Radial Scheme          =       TREUTLER
    Pruning Scheme         =           NONE
    Nuclear Scheme         =       TREUTLER

    Blocking Scheme        =         OCTREE
    BS radius alpha        =              1
    Pruning alpha          =              1
    Radial Points          =             75
    Spherical Points       =            302
    Total Points           =          42374
    Total Blocks           =            377
    Max Points             =            253
    Max Functions          =             28
    Weights Tolerance      =       1.00E-15

  -Total Gradient:
     Atom            X                  Y                   Z
    ------   -----------------  -----------------  -----------------
       1        0.000000000000     0.000000000000    -0.000004432108
       2        0.000000000000     0.000000000000     0.000017102734

*** tstop() called on Joses-MacBook-Pro-2.local at Wed Jul 16 19:25:26 2025
Module time:
	user time   =       0.71 seconds =       0.01 minutes
	system time =       1.13 seconds =       0.02 minutes
	total time  =          0 seconds =       0.00 minutes
Total time:
	user time   =      69.04 seconds =       1.15 minutes
	system time =      62.78 seconds =       1.05 minutes
	total time  =         13 seconds =       0.22 minutes

    			-----------------------------------------

    			 OPTKING 3.0: for geometry optimizations

    			     By R.A. King, Bethel University

    			        with contributions from

    			    A.V. Copan, J. Cayton, A. Heide

    			-----------------------------------------

	                            ===> Fragment 1 <==

	 Z (Atomic Numbers)          Masses                          Geom
	       9.000000            18.998403          0.00000000  0.00000000  2.29924230
	      10.000000            19.992440          0.00000000  0.00000000 -2.18492249

	 - Coordinate -           - BOHR/RAD -       - ANG/DEG -
	 R(1,2)           =         4.484165           2.372918

	        --- Internal Coordinate Step in ANG or DEG, aJ/ANG or AJ/DEG ---
	-------------------------------------------------------------------------------
	           Coordinate      Previous         Force          Change          New
	           ----------      --------        ------          ------        ------
	               R(1,2)       2.37292        0.00009        0.00078       2.37369
	-------------------------------------------------------------------------------

	                                 ==> Convergence Check <==

	Measures of convergence in internal coordinates in au.

	Criteria marked as inactive (o), active & met (*), and active & unmet ( ).

	----------------------------------------------------------------------------------------------
	   Step    Total Energy     Delta E     Max Force     RMS Force      Max Disp      RMS Disp
	----------------------------------------------------------------------------------------------
	  Convergence Criteria     1.00e-06 *    3.00e-04 *             o    1.20e-03 *             o
	----------------------------------------------------------------------------------------------
	    16    -228.63761040   -1.63e-07 *    1.08e-05 *    1.08e-05 o    1.47e-03      1.47e-03 o  ~
	----------------------------------------------------------------------------------------------

Next Geometry in Ang
	Fragment 1 (Ang)

	    F   0.0000000000   0.0000000000   1.2170949169
	   Ne   0.0000000000   0.0000000000  -1.1565994791

    Final optimized geometry and variables:
    Molecular point group: c2v
    Full point group: C_inf_v

    Geometry (in Angstrom), charge = 0, multiplicity = 2:

    F            0.000000000000     0.000000000000     1.216706626961
    NE           0.000000000000     0.000000000000    -1.156211189132

    Psi4 stopped on: Wednesday, 16 July 2025 07:25PM
    Psi4 wall time for execution: 0:00:13.25

*** Psi4 exiting successfully. Buy a developer a beer!
