                               Psi4 1.9.1 release

  ==> Input File <==

--------------------------------------------------------------------------
molecule {
0 2
Mg   0.00000        0.60000        0.00000
P   0.00000       -0.60000        0.00000
}

set {
basis              cc-pvdz
reference          uks
maxiter            500
geom_maxiter       500
DAMPING_PERCENTAGE 1
guess              SAP
}

optimize('b3lyp')
--------------------------------------------------------------------------

    Molecular point group: c2v
  Charge       = 0
  Multiplicity = 2
  Basis Set: CC-PVDZ
    Blend: CC-PVDZ
  Basis Set: (CC-PVDZ AUX)
    Blend: CC-PVDZ-JKFIT + DEF2-UNIVERSAL-JKFIT
  @DF-UKS Final Energy:  -540.40620029444767
    Total Energy =                       -540.4062002944476717
 Dipole X            :          0.0000000            0.0000000            0.0000000
 Dipole Y            :          0.0000000            0.0000000            0.0000000
 Dipole Z            :          0.3824736            0.4914021            0.8738757
 Magnitude           :                                                    0.8738757
    Molecular point group: c2v
  Basis Set: CC-PVDZ
    Blend: CC-PVDZ
  Basis Set: (CC-PVDZ AUX)
    Blend: CC-PVDZ-JKFIT + DEF2-UNIVERSAL-JKFIT
  Basis Set: CC-PVDZ
    Blend: CC-PVDZ
  Basis Set: (CC-PVDZ AUX)
    Blend: CC-PVDZ-JKFIT + DEF2-UNIVERSAL-JKFIT
  @DF-UKS Final Energy:  -540.41941453001039
    Total Energy =                       -540.4194145300103855
  Basis Set: CC-PVDZ
    Blend: CC-PVDZ
  Basis Set: (CC-PVDZ AUX)
    Blend: CC-PVDZ-JKFIT + DEF2-UNIVERSAL-JKFIT
  Basis Set: CC-PVDZ
    Blend: CC-PVDZ
  @DF-UKS Final Energy:  -540.44491280341197
    Total Energy =                       -540.4449128034119667
  @DF-UKS Final Energy:  -540.53729674773354
    Total Energy =                       -540.5372967477335351
  @DF-UKS Final Energy:  -540.94047306200059
    Total Energy =                       -540.9404730620005921
  @DF-UKS Final Energy:  -541.14077215165673
    Total Energy =                       -541.1407721516567335
  @DF-UKS Final Energy:  -541.24586285745136
    Total Energy =                       -541.2458628574513568
  @DF-UKS Final Energy:  -541.34271379566462
    Total Energy =                       -541.3427137956646220
  @DF-UKS Final Energy:  -541.37626150633355
    Total Energy =                       -541.3762615063335488
  @DF-UKS Final Energy:  -541.37891281649729
    Total Energy =                       -541.3789128164972908
  @DF-UKS Final Energy:  -541.37968258534750
    Total Energy =                       -541.3796825853474957
  @DF-UKS Final Energy:  -541.37972245461981
    Total Energy =                       -541.3797224546198095
  Basis Set: (CC-PVDZ AUX)
    Blend: CC-PVDZ-JKFIT + DEF2-UNIVERSAL-JKFIT
  Basis Set: CC-PVDZ
    Blend: CC-PVDZ
  Basis Set: (CC-PVDZ AUX)
    Blend: CC-PVDZ-JKFIT + DEF2-UNIVERSAL-JKFIT
  @DF-UKS Final Energy:  -541.37972465914584
    Total Energy =                       -541.3797246591458361
  Basis Set: CC-PVDZ
    Blend: CC-PVDZ
  Basis Set: (CC-PVDZ AUX)
    Blend: CC-PVDZ-JKFIT + DEF2-UNIVERSAL-JKFIT
  Charge       = 0
  Multiplicity = 2
  Basis Set: CC-PVDZ
    Blend: CC-PVDZ
  Basis Set: (CC-PVDZ AUX)
    Blend: CC-PVDZ-JKFIT + DEF2-UNIVERSAL-JKFIT

    Orbital Energies [Eh]
    ---------------------

    Alpha Occupied:

       1A1   -77.055707     2A1   -46.867630     3A1    -6.523315
       1B2    -4.689910     4A1    -4.687218     1B1    -4.677543
       5A1    -3.148700     2B2    -1.893070     6A1    -1.892562
       2B1    -1.891241     7A1    -0.533253     8A1    -0.250428
       3B2    -0.215039     3B1    -0.181131

    Alpha Virtual:

       9A1    -0.124495     4B2    -0.028769     4B1    -0.021218
      10A1     0.027305    11A1     0.087230     5B2     0.139490
       5B1     0.144448    12A1     0.189535     6B2     0.279205
       6B1     0.291777    13A1     0.292791     1A2     0.293047
      14A1     0.319626     7B2     0.463986     7B1     0.489189
      15A1     0.508606     2A2     0.521741    16A1     0.527354
      17A1     0.598400     8B2     0.642045     8B1     0.665550
      18A1     0.950097

    Beta Occupied:

       1A1   -77.051115     2A1   -46.868087     3A1    -6.518410
       4A1    -4.681843     1B2    -4.676902     1B1    -4.674172
       5A1    -3.149661     2B2    -1.893251     6A1    -1.892930
       2B1    -1.892191     7A1    -0.487107     8A1    -0.236224
       3B1    -0.167135

    Beta Virtual:

       9A1    -0.121284     3B2    -0.105242     4B1    -0.025672
       4B2    -0.018573    10A1     0.029857    11A1     0.084160
       5B1     0.140564     5B2     0.141182    12A1     0.194219
       1A2     0.289225    13A1     0.289719     6B1     0.290349
       6B2     0.293634    14A1     0.330180     7B1     0.497711
       7B2     0.503718    15A1     0.532244     2A2     0.564215
      16A1     0.567998    17A1     0.610820     8B1     0.676273
       8B2     0.681091    18A1     0.968014

    Final Occupation by Irrep:
             A1    A2    B1    B2
    DOCC [     8,    0,    3,    2 ]
    SOCC [     0,    0,    0,    1 ]
    NA   [     8,    0,    3,    3 ]
    NB   [     8,    0,    3,    2 ]

  @DF-UKS Final Energy:  -541.37972477983033

   => Energetics <=

    Nuclear Repulsion Energy =             40.8189733292175916
    One-Electron Energy =                -832.9005744935541315
    Two-Electron Energy =                 282.6883115531004478
    DFT Exchange-Correlation Energy =     -31.9864351685941841
    Empirical Dispersion Energy =           0.0000000000000000
    VV10 Nonlocal Energy =                  0.0000000000000000
    Total Energy =                       -541.3797247798303260

  UHF NO Occupations:
  HONO-2 :    3 B1 1.9976215
  HONO-1 :    8 A1 1.9647252
  HONO-0 :    3 B2 1.0000000
  LUNO+0 :    9 A1 0.0352748
  LUNO+1 :    4 B1 0.0023785
  LUNO+2 :   10 A1 0.0007725
  LUNO+3 :    4 B2 0.0000002

Computation Completed

Properties will be evaluated at   0.000000,   0.000000,   0.000000 [a0]

Properties computed using the SCF density matrix

 Multipole Moments:

 ------------------------------------------------------------------------------------
     Multipole            Electronic (a.u.)      Nuclear  (a.u.)        Total (a.u.)
 ------------------------------------------------------------------------------------

 L = 1.  Multiply by 2.5417464519 to convert [e a0] to [Debye]
 Dipole X            :          0.0000000            0.0000000            0.0000000
 Dipole Y            :          0.0000000            0.0000000            0.0000000
 Dipole Z            :          0.9400182            0.9555807            1.8955989
 Magnitude           :                                                    1.8955989

 ------------------------------------------------------------------------------------

*** tstop() called on Joses-MacBook-Pro-2.local at Wed Jul 16 19:57:36 2025
Module time:
	user time   =       7.64 seconds =       0.13 minutes
	system time =       2.42 seconds =       0.04 minutes
	total time  =          1 seconds =       0.02 minutes
Total time:
	user time   =     194.97 seconds =       3.25 minutes
	system time =      50.09 seconds =       0.83 minutes
	total time  =         23 seconds =       0.38 minutes

*** tstart() called on Joses-MacBook-Pro-2.local
*** at Wed Jul 16 19:57:36 2025

         ------------------------------------------------------------
                                   SCF GRAD
                          Rob Parrish, Justin Turney,
                       Andy Simmonett, and Alex Sokolov
         ------------------------------------------------------------

  ==> Geometry <==

    Molecular point group: c2v
    Full point group: C_inf_v

    Geometry (in Angstrom), charge = 0, multiplicity = 2:

       Center              X                  Y                   Z               Mass
    ------------   -----------------  -----------------  -----------------  -----------------
         MG           0.000000000000     0.000000000000     1.315128673857    23.985041697000
         P            0.000000000000     0.000000000000    -1.018391504428    30.973761998420

  Nuclear repulsion =   40.818973329217592

  ==> Basis Set <==

  Basis Set: CC-PVDZ
    Blend: CC-PVDZ
    Number of shells: 16
    Number of basis functions: 36
    Number of Cartesian functions: 38
    Spherical Harmonics?: true
    Max angular momentum: 2

  ==> DFJKGrad: Density-Fitted SCF Gradients <==

    Gradient:                    1
    J tasked:                  Yes
    K tasked:                  Yes
    wK tasked:                  No
    OpenMP threads:              1
    Integrals threads:           1
    Memory [MiB]:              375
    Schwarz Cutoff:          1E-12
    Fitting Condition:       1E-10

   => Auxiliary Basis Set <=

  Basis Set: (CC-PVDZ AUX)
    Blend: CC-PVDZ-JKFIT + DEF2-UNIVERSAL-JKFIT
    Number of shells: 70
    Number of basis functions: 224
    Number of Cartesian functions: 267
    Spherical Harmonics?: true
    Max angular momentum: 4

  ==> DFT Potential <==

   => LibXC <=

    Version 6.2.2
    S. Lehtola, C. Steigemann, M. J.T. Oliveira, and M. A.L. Marques.,  SoftwareX 7, 1â€“5 (2018) (10.1016/j.softx.2017.11.002)

   => Composite Functional: B3LYP <=

    B3LYP Hyb-GGA Exchange-Correlation Functional

    P. J. Stephens, F. J. Devlin, C. F. Chabalowski, and M. J. Frisch.,  J. Phys. Chem. 98, 11623 (1994) (10.1021/j100096a001)

    Deriv               =              1
    GGA                 =           TRUE
    Meta                =          FALSE

    Exchange Hybrid     =           TRUE
    MP2 Hybrid          =          FALSE

   => Exchange Functionals <=

    0.0800   Slater exchange
    0.7200         Becke 88

   => Exact (HF) Exchange <=

    0.2000               HF

   => Correlation Functionals <=

    0.1900   Vosko, Wilk & Nusair (VWN5_RPA)
    0.8100   Lee, Yang & Parr

   => LibXC Density Thresholds  <==

    XC_HYB_GGA_XC_B3LYP:  1.00E-15

   => Molecular Quadrature <=

    Radial Scheme          =       TREUTLER
    Pruning Scheme         =           NONE
    Nuclear Scheme         =       TREUTLER

    Blocking Scheme        =         OCTREE
    BS radius alpha        =              1
    Pruning alpha          =              1
    Radial Points          =             75
    Spherical Points       =            302
    Total Points           =          43011
    Total Blocks           =            417
    Max Points             =            256
    Max Functions          =             36
    Weights Tolerance      =       1.00E-15

  -Total Gradient:
     Atom            X                  Y                   Z
    ------   -----------------  -----------------  -----------------
       1        0.000000000000    -0.000000000000    -0.000024505844
       2        0.000000000000    -0.000000000000     0.000049760528

*** tstop() called on Joses-MacBook-Pro-2.local at Wed Jul 16 19:57:37 2025
Module time:
	user time   =       2.32 seconds =       0.04 minutes
	system time =       1.59 seconds =       0.03 minutes
	total time  =          1 seconds =       0.02 minutes
Total time:
	user time   =     197.29 seconds =       3.29 minutes
	system time =      51.69 seconds =       0.86 minutes
	total time  =         24 seconds =       0.40 minutes

    			-----------------------------------------

    			 OPTKING 3.0: for geometry optimizations

    			     By R.A. King, Bethel University

    			        with contributions from

    			    A.V. Copan, J. Cayton, A. Heide

    			-----------------------------------------

	                            ===> Fragment 1 <==

	 Z (Atomic Numbers)          Masses                          Geom
	      12.000000            23.985042          0.00000000  0.00000000  2.48523301
	      15.000000            30.973762          0.00000000  0.00000000 -1.92448103

	 - Coordinate -           - BOHR/RAD -       - ANG/DEG -
	 R(1,2)           =         4.409714           2.333520

	        --- Internal Coordinate Step in ANG or DEG, aJ/ANG or AJ/DEG ---
	-------------------------------------------------------------------------------
	           Coordinate      Previous         Force          Change          New
	           ----------      --------        ------          ------        ------
	               R(1,2)       2.33352        0.00031        0.00020       2.33372
	-------------------------------------------------------------------------------

	                                 ==> Convergence Check <==

	Measures of convergence in internal coordinates in au.

	Criteria marked as inactive (o), active & met (*), and active & unmet ( ).

	----------------------------------------------------------------------------------------------
	   Step    Total Energy     Delta E     Max Force     RMS Force      Max Disp      RMS Disp
	----------------------------------------------------------------------------------------------
	  Convergence Criteria     1.00e-06 *    3.00e-04 *             o    1.20e-03 *             o
	----------------------------------------------------------------------------------------------
	    14    -541.37972478   -1.21e-07 *    3.71e-05 *    3.71e-05 o    3.76e-04 *    3.76e-04 o  ~
	----------------------------------------------------------------------------------------------

Next Geometry in Ang
	Fragment 1 (Ang)

	   Mg   0.0000000000   0.0000000000   1.3152281854
	    P   0.0000000000   0.0000000000  -1.0184910160

    Final optimized geometry and variables:
    Molecular point group: c2v
    Full point group: C_inf_v

    Geometry (in Angstrom), charge = 0, multiplicity = 2:

    MG           0.000000000000     0.000000000000     1.315128673857
    P            0.000000000000     0.000000000000    -1.018391504428

    Psi4 stopped on: Wednesday, 16 July 2025 07:57PM
    Psi4 wall time for execution: 0:00:24.57

*** Psi4 exiting successfully. Buy a developer a beer!
