                               Psi4 1.9.1 release

  ==> Input File <==

--------------------------------------------------------------------------
molecule {
0 2
Al   0.00000        0.60000        0.00000
Si   0.00000       -0.60000        0.00000
}

set {
basis              cc-pvdz
reference          uks
maxiter            500
geom_maxiter       500
DAMPING_PERCENTAGE 1
guess              SAP
}

optimize('b3lyp')
--------------------------------------------------------------------------

    Molecular point group: c2v
  Charge       = 0
  Multiplicity = 2
  Basis Set: CC-PVDZ
    Blend: CC-PVDZ
  Basis Set: (CC-PVDZ AUX)
    Blend: CC-PVDZ-JKFIT
  @DF-UKS Final Energy:  -530.78688800664577
    Total Energy =                       -530.7868880066457677
 Dipole X            :          0.0000000            0.0000000            0.0000000
 Dipole Y            :          0.0000000            0.0000000            0.0000000
 Dipole Z            :          0.9388427           -0.5793738            0.3594689
 Magnitude           :                                                    0.3594689
    Molecular point group: c2v
  Basis Set: CC-PVDZ
    Blend: CC-PVDZ
  Basis Set: (CC-PVDZ AUX)
    Blend: CC-PVDZ-JKFIT
  Basis Set: CC-PVDZ
    Blend: CC-PVDZ
  Basis Set: (CC-PVDZ AUX)
    Blend: CC-PVDZ-JKFIT
  @DF-UKS Final Energy:  -530.80114247774395
    Total Energy =                       -530.8011424777439515
  Basis Set: CC-PVDZ
    Blend: CC-PVDZ
  Basis Set: (CC-PVDZ AUX)
    Blend: CC-PVDZ-JKFIT
  Basis Set: CC-PVDZ
    Blend: CC-PVDZ
  @DF-UKS Final Energy:  -530.82865726569491
    Total Energy =                       -530.8286572656949147
  @DF-UKS Final Energy:  -530.92838639855495
    Total Energy =                       -530.9283863985549488
  @DF-UKS Final Energy:  -531.35781480353171
    Total Energy =                       -531.3578148035317099
  @DF-UKS Final Energy:  -531.61680687074022
    Total Energy =                       -531.6168068707402199
  @DF-UKS Final Energy:  -531.75193095685825
    Total Energy =                       -531.7519309568582457
  @DF-UKS Final Energy:  -531.79756228819690
    Total Energy =                       -531.7975622881969002
  @DF-UKS Final Energy:  -531.81548191919285
    Total Energy =                       -531.8154819191928482
  @DF-UKS Final Energy:  -531.82063145676818
    Total Energy =                       -531.8206314567681829
  @DF-UKS Final Energy:  -531.82148581796878
    Total Energy =                       -531.8214858179687781
  @DF-UKS Final Energy:  -531.82167533962752
    Total Energy =                       -531.8216753396275180
  @DF-UKS Final Energy:  -531.82169131283047
    Total Energy =                       -531.8216913128304668
  Basis Set: (CC-PVDZ AUX)
    Blend: CC-PVDZ-JKFIT
  Basis Set: CC-PVDZ
    Blend: CC-PVDZ
  Basis Set: (CC-PVDZ AUX)
    Blend: CC-PVDZ-JKFIT
  @DF-UKS Final Energy:  -531.82169273865907
    Total Energy =                       -531.8216927386590669
  Basis Set: CC-PVDZ
    Blend: CC-PVDZ
  Basis Set: (CC-PVDZ AUX)
    Blend: CC-PVDZ-JKFIT
  Charge       = 0
  Multiplicity = 2
  Basis Set: CC-PVDZ
    Blend: CC-PVDZ
  Basis Set: (CC-PVDZ AUX)
    Blend: CC-PVDZ-JKFIT

    Orbital Energies [Eh]
    ---------------------

    Alpha Occupied:

       1A1   -66.153897     2A1   -56.094137     3A1    -5.296599
       4A1    -4.174052     5A1    -3.657913     1B2    -3.657076
       1B1    -3.649612     6A1    -2.728222     2B2    -2.727598
       2B1    -2.723202     7A1    -0.476422     8A1    -0.306160
       3B2    -0.202142     3B1    -0.178884

    Alpha Virtual:

       9A1    -0.148914     4B2    -0.058600     4B1    -0.043999
      10A1     0.041124    11A1     0.141555     5B2     0.184222
      12A1     0.190935     5B1     0.196703    13A1     0.241663
       1A2     0.241995     6B2     0.245584     6B1     0.257899
      14A1     0.259078     7B2     0.332509     7B1     0.349373
      15A1     0.391623     2A2     0.393658    16A1     0.401983
      17A1     0.515332     8B2     0.535104     8B1     0.552779
      18A1     0.788655

    Beta Occupied:

       1A1   -66.151519     2A1   -56.093817     3A1    -5.293878
       4A1    -4.173702     5A1    -3.656222     1B2    -3.649208
       1B1    -3.647519     6A1    -2.728217     2B2    -2.725398
       2B1    -2.723557     7A1    -0.449810     8A1    -0.297297
       3B1    -0.171314

    Beta Virtual:

       9A1    -0.144014     3B2    -0.118154     4B1    -0.042879
       4B2    -0.032411    10A1     0.045875    11A1     0.149175
      12A1     0.194394     5B1     0.197234     5B2     0.201993
       1A2     0.253332    13A1     0.254823     6B1     0.256383
       6B2     0.259845    14A1     0.261975     7B1     0.354795
       7B2     0.358890    15A1     0.407513     2A2     0.421918
      16A1     0.424156    17A1     0.524725     8B1     0.556464
       8B2     0.560545    18A1     0.797230

    Final Occupation by Irrep:
             A1    A2    B1    B2
    DOCC [     8,    0,    3,    2 ]
    SOCC [     0,    0,    0,    1 ]
    NA   [     8,    0,    3,    3 ]
    NB   [     8,    0,    3,    2 ]

  @DF-UKS Final Energy:  -531.82169288194189

   => Energetics <=

    Nuclear Repulsion Energy =             42.0089427976433782
    One-Electron Energy =                -821.2181724518823103
    Two-Electron Energy =                 279.1632257934824111
    DFT Exchange-Correlation Energy =     -31.7756890211853431
    Empirical Dispersion Energy =           0.0000000000000000
    VV10 Nonlocal Energy =                  0.0000000000000000
    Total Energy =                       -531.8216928819418854

  UHF NO Occupations:
  HONO-2 :    8 A1 1.9975500
  HONO-1 :    3 B1 1.9974782
  HONO-0 :    3 B2 1.0000000
  LUNO+0 :    4 B1 0.0025218
  LUNO+1 :    9 A1 0.0024500
  LUNO+2 :   10 A1 0.0007718
  LUNO+3 :    4 B2 0.0000000

Computation Completed

Properties will be evaluated at   0.000000,   0.000000,   0.000000 [a0]

Properties computed using the SCF density matrix

 Multipole Moments:

 ------------------------------------------------------------------------------------
     Multipole            Electronic (a.u.)      Nuclear  (a.u.)        Total (a.u.)
 ------------------------------------------------------------------------------------

 L = 1.  Multiply by 2.5417464519 to convert [e a0] to [Debye]
 Dipole X            :          0.0000000            0.0000000            0.0000000
 Dipole Y            :          0.0000000            0.0000000            0.0000000
 Dipole Z            :          1.8326236           -1.1069000            0.7257237
 Magnitude           :                                                    0.7257237

 ------------------------------------------------------------------------------------

*** tstop() called on Joses-MacBook-Pro-2.local at Wed Jul 16 20:06:05 2025
Module time:
	user time   =      13.01 seconds =       0.22 minutes
	system time =       1.44 seconds =       0.02 minutes
	total time  =          1 seconds =       0.02 minutes
Total time:
	user time   =     412.17 seconds =       6.87 minutes
	system time =      62.40 seconds =       1.04 minutes
	total time  =         48 seconds =       0.80 minutes

*** tstart() called on Joses-MacBook-Pro-2.local
*** at Wed Jul 16 20:06:05 2025

         ------------------------------------------------------------
                                   SCF GRAD
                          Rob Parrish, Justin Turney,
                       Andy Simmonett, and Alex Sokolov
         ------------------------------------------------------------

  ==> Geometry <==

    Molecular point group: c2v
    Full point group: C_inf_v

    Geometry (in Angstrom), charge = 0, multiplicity = 2:

       Center              X                  Y                   Z               Mass
    ------------   -----------------  -----------------  -----------------  -----------------
         AL           0.000000000000     0.000000000000     1.167068040208    26.981538530000
         SI           0.000000000000     0.000000000000    -1.125545054243    27.976926534650

  Nuclear repulsion =   42.008942797643378

  ==> Basis Set <==

  Basis Set: CC-PVDZ
    Blend: CC-PVDZ
    Number of shells: 16
    Number of basis functions: 36
    Number of Cartesian functions: 38
    Spherical Harmonics?: true
    Max angular momentum: 2

  ==> DFJKGrad: Density-Fitted SCF Gradients <==

    Gradient:                    1
    J tasked:                  Yes
    K tasked:                  Yes
    wK tasked:                  No
    OpenMP threads:              1
    Integrals threads:           1
    Memory [MiB]:              375
    Schwarz Cutoff:          1E-12
    Fitting Condition:       1E-10

   => Auxiliary Basis Set <=

  Basis Set: (CC-PVDZ AUX)
    Blend: CC-PVDZ-JKFIT
    Number of shells: 72
    Number of basis functions: 224
    Number of Cartesian functions: 260
    Spherical Harmonics?: true
    Max angular momentum: 3

  ==> DFT Potential <==

   => LibXC <=

    Version 6.2.2
    S. Lehtola, C. Steigemann, M. J.T. Oliveira, and M. A.L. Marques.,  SoftwareX 7, 1â€“5 (2018) (10.1016/j.softx.2017.11.002)

   => Composite Functional: B3LYP <=

    B3LYP Hyb-GGA Exchange-Correlation Functional

    P. J. Stephens, F. J. Devlin, C. F. Chabalowski, and M. J. Frisch.,  J. Phys. Chem. 98, 11623 (1994) (10.1021/j100096a001)

    Deriv               =              1
    GGA                 =           TRUE
    Meta                =          FALSE

    Exchange Hybrid     =           TRUE
    MP2 Hybrid          =          FALSE

   => Exchange Functionals <=

    0.0800   Slater exchange
    0.7200         Becke 88

   => Exact (HF) Exchange <=

    0.2000               HF

   => Correlation Functionals <=

    0.1900   Vosko, Wilk & Nusair (VWN5_RPA)
    0.8100   Lee, Yang & Parr

   => LibXC Density Thresholds  <==

    XC_HYB_GGA_XC_B3LYP:  1.00E-15

   => Molecular Quadrature <=

    Radial Scheme          =       TREUTLER
    Pruning Scheme         =           NONE
    Nuclear Scheme         =       TREUTLER

    Blocking Scheme        =         OCTREE
    BS radius alpha        =              1
    Pruning alpha          =              1
    Radial Points          =             75
    Spherical Points       =            302
    Total Points           =          42389
    Total Blocks           =            402
    Max Points             =            256
    Max Functions          =             36
    Weights Tolerance      =       1.00E-15

  -Total Gradient:
     Atom            X                  Y                   Z
    ------   -----------------  -----------------  -----------------
       1       -0.000000000000     0.000000000000    -0.000022232662
       2        0.000000000000     0.000000000000     0.000026816817

*** tstop() called on Joses-MacBook-Pro-2.local at Wed Jul 16 20:06:06 2025
Module time:
	user time   =       4.06 seconds =       0.07 minutes
	system time =       0.59 seconds =       0.01 minutes
	total time  =          1 seconds =       0.02 minutes
Total time:
	user time   =     416.26 seconds =       6.94 minutes
	system time =      62.99 seconds =       1.05 minutes
	total time  =         49 seconds =       0.82 minutes

    			-----------------------------------------

    			 OPTKING 3.0: for geometry optimizations

    			     By R.A. King, Bethel University

    			        with contributions from

    			    A.V. Copan, J. Cayton, A. Heide

    			-----------------------------------------

	                            ===> Fragment 1 <==

	 Z (Atomic Numbers)          Masses                          Geom
	      13.000000            26.981539          0.00000000  0.00000000  2.20543897
	      14.000000            27.976927          0.00000000  0.00000000 -2.12697189

	 - Coordinate -           - BOHR/RAD -       - ANG/DEG -
	 R(1,2)           =         4.332411           2.292613

	        --- Internal Coordinate Step in ANG or DEG, aJ/ANG or AJ/DEG ---
	-------------------------------------------------------------------------------
	           Coordinate      Previous         Force          Change          New
	           ----------      --------        ------          ------        ------
	               R(1,2)       2.29261        0.00020        0.00013       2.29274
	-------------------------------------------------------------------------------

	                                 ==> Convergence Check <==

	Measures of convergence in internal coordinates in au.

	Criteria marked as inactive (o), active & met (*), and active & unmet ( ).

	----------------------------------------------------------------------------------------------
	   Step    Total Energy     Delta E     Max Force     RMS Force      Max Disp      RMS Disp
	----------------------------------------------------------------------------------------------
	  Convergence Criteria     1.00e-06 *    3.00e-04 *             o    1.20e-03 *             o
	----------------------------------------------------------------------------------------------
	    15    -531.82169288   -1.43e-07 *    2.45e-05 *    2.45e-05 o    2.36e-04 *    2.36e-04 o  ~
	----------------------------------------------------------------------------------------------

Next Geometry in Ang
	Fragment 1 (Ang)

	   Al   0.0000000000   0.0000000000   1.1671305634
	   Si   0.0000000000   0.0000000000  -1.1256075774

    Final optimized geometry and variables:
    Molecular point group: c2v
    Full point group: C_inf_v

    Geometry (in Angstrom), charge = 0, multiplicity = 2:

    AL           0.000000000000     0.000000000000     1.167068040208
    SI           0.000000000000     0.000000000000    -1.125545054243

    Psi4 stopped on: Wednesday, 16 July 2025 08:06PM
    Psi4 wall time for execution: 0:00:49.26

*** Psi4 exiting successfully. Buy a developer a beer!
