                               Psi4 1.9.1 release

  ==> Input File <==

--------------------------------------------------------------------------
molecule {
0 2
S   0.00000        0.60000        0.00000
Cl   0.00000       -0.60000        0.00000
}

set {
basis              cc-pvdz
reference          uks
maxiter            500
geom_maxiter       500
DAMPING_PERCENTAGE 1
guess              SAP
}

optimize('b3lyp')
--------------------------------------------------------------------------

    Molecular point group: c2v
  Charge       = 0
  Multiplicity = 2
  Basis Set: CC-PVDZ
    Blend: CC-PVDZ
  Basis Set: (CC-PVDZ AUX)
    Blend: CC-PVDZ-JKFIT
  @DF-UKS Final Energy:  -857.12609435877960
    Total Energy =                       -857.1260943587795964
 Dipole X            :          0.0000000            0.0000000            0.0000000
 Dipole Y            :          0.0000000            0.0000000            0.0000000
 Dipole Z            :         -1.2229013            0.5412130           -0.6816883
 Magnitude           :                                                    0.6816883
    Molecular point group: c2v
  Basis Set: CC-PVDZ
    Blend: CC-PVDZ
  Basis Set: (CC-PVDZ AUX)
    Blend: CC-PVDZ-JKFIT
  Basis Set: CC-PVDZ
    Blend: CC-PVDZ
  Basis Set: (CC-PVDZ AUX)
    Blend: CC-PVDZ-JKFIT
  @DF-UKS Final Energy:  -857.17290938702365
    Total Energy =                       -857.1729093870237648
  Basis Set: CC-PVDZ
    Blend: CC-PVDZ
  Basis Set: (CC-PVDZ AUX)
    Blend: CC-PVDZ-JKFIT
  Basis Set: CC-PVDZ
    Blend: CC-PVDZ
  @DF-UKS Final Energy:  -857.25887587422937
    Total Energy =                       -857.2588758742293749
  @DF-UKS Final Energy:  -857.53132096246622
    Total Energy =                       -857.5313209624663386
  @DF-UKS Final Energy:  -858.03370477403439
    Total Energy =                       -858.0337047740343905
  @DF-UKS Final Energy:  -858.20316847021843
    Total Energy =                       -858.2031684702184293
  @DF-UKS Final Energy:  -858.30826409777171
    Total Energy =                       -858.3082640977717119
  @DF-UKS Final Energy:  -858.34986524415308
    Total Energy =                       -858.3498652441530794
  @DF-UKS Final Energy:  -858.37016103468534
    Total Energy =                       -858.3701610346853386
  @DF-UKS Final Energy:  -858.37895188844402
    Total Energy =                       -858.3789518884439076
  @DF-UKS Final Energy:  -858.38120917913238
    Total Energy =                       -858.3812091791323837
  @DF-UKS Final Energy:  -858.38198717276305
    Total Energy =                       -858.3819871727630471
  @DF-UKS Final Energy:  -858.38213862137729
    Total Energy =                       -858.3821386213774076
  Basis Set: (CC-PVDZ AUX)
    Blend: CC-PVDZ-JKFIT
  Basis Set: CC-PVDZ
    Blend: CC-PVDZ
  Basis Set: (CC-PVDZ AUX)
    Blend: CC-PVDZ-JKFIT
  @DF-UKS Final Energy:  -858.38217408342348
    Total Energy =                       -858.3821740834233651
  Basis Set: CC-PVDZ
    Blend: CC-PVDZ
  Basis Set: (CC-PVDZ AUX)
    Blend: CC-PVDZ-JKFIT
  Charge       = 0
  Multiplicity = 2
  Basis Set: CC-PVDZ
    Blend: CC-PVDZ
  Basis Set: (CC-PVDZ AUX)
    Blend: CC-PVDZ-JKFIT

    Orbital Energies [Eh]
    ---------------------

    Alpha Occupied:

       1A1  -101.586675     2A1   -88.943187     3A1    -9.504271
       4A1    -8.002048     5A1    -7.266624     1B2    -7.260039
       1B1    -7.255115     2B2    -5.969553     6A1    -5.967522
       2B1    -5.951906     7A1    -0.893317     8A1    -0.694180
       9A1    -0.433998     3B2    -0.401972     3B1    -0.381746
       4B2    -0.294447     4B1    -0.259505

    Alpha Virtual:

      10A1    -0.082696    11A1     0.359228    12A1     0.443944
       5B2     0.445504     6B2     0.454080     5B1     0.471442
       6B1     0.480877    13A1     0.481218     7B2     0.542707
       1A2     0.547882    14A1     0.548762     7B1     0.552395
      15A1     0.701645     2A2     0.703477    16A1     0.711329
      17A1     0.767713     8B2     0.846234     8B1     0.865427
      18A1     1.269946

    Beta Occupied:

       1A1  -101.585426     2A1   -88.938282     3A1    -9.503063
       4A1    -7.997037     5A1    -7.266218     1B2    -7.255730
       1B1    -7.254386     6A1    -5.964528     2B2    -5.953199
       2B1    -5.948945     7A1    -0.882844     8A1    -0.661023
       9A1    -0.423320     3B1    -0.377593     3B2    -0.369894
       4B1    -0.248988

    Beta Virtual:

       4B2    -0.177208    10A1    -0.071490    11A1     0.368794
      12A1     0.451744     5B1     0.475516     5B2     0.479835
       6B1     0.486696    13A1     0.489000     6B2     0.489893
       7B2     0.552144     7B1     0.553610     1A2     0.589977
      14A1     0.593425     2A2     0.715745    15A1     0.715992
      16A1     0.716444    17A1     0.777059     8B1     0.868389
       8B2     0.869362    18A1     1.279035

    Final Occupation by Irrep:
             A1    A2    B1    B2
    DOCC [     9,    0,    4,    3 ]
    SOCC [     0,    0,    0,    1 ]
    NA   [     9,    0,    4,    4 ]
    NB   [     9,    0,    4,    3 ]

  @DF-UKS Final Energy:  -858.38217821273452

   => Energetics <=

    Nuclear Repulsion Energy =             70.8751930435983155
    One-Electron Energy =               -1325.9501809758696709
    Two-Electron Energy =                 440.1169983482906218
    DFT Exchange-Correlation Energy =     -43.4241886287537469
    Empirical Dispersion Energy =           0.0000000000000000
    VV10 Nonlocal Energy =                  0.0000000000000000
    Total Energy =                       -858.3821782127345159

  UHF NO Occupations:
  HONO-2 :    3 B2 1.9997512
  HONO-1 :    9 A1 1.9991563
  HONO-0 :    4 B2 1.0000000
  LUNO+0 :   10 A1 0.0008437
  LUNO+1 :    5 B2 0.0002488
  LUNO+2 :   11 A1 0.0001187
  LUNO+3 :   12 A1 0.0000234

Computation Completed

Properties will be evaluated at   0.000000,   0.000000,   0.000000 [a0]

Properties computed using the SCF density matrix

 Multipole Moments:

 ------------------------------------------------------------------------------------
     Multipole            Electronic (a.u.)      Nuclear  (a.u.)        Total (a.u.)
 ------------------------------------------------------------------------------------

 L = 1.  Multiply by 2.5417464519 to convert [e a0] to [Debye]
 Dipole X            :          0.0000000            0.0000000            0.0000000
 Dipole Y            :          0.0000000            0.0000000            0.0000000
 Dipole Z            :         -0.8394758            0.9159310            0.0764552
 Magnitude           :                                                    0.0764552

 ------------------------------------------------------------------------------------

*** tstop() called on Joses-MacBook-Pro-2.local at Wed Jul 16 20:29:28 2025
Module time:
	user time   =       7.08 seconds =       0.12 minutes
	system time =       2.60 seconds =       0.04 minutes
	total time  =          1 seconds =       0.02 minutes
Total time:
	user time   =     195.13 seconds =       3.25 minutes
	system time =      55.67 seconds =       0.93 minutes
	total time  =         24 seconds =       0.40 minutes

*** tstart() called on Joses-MacBook-Pro-2.local
*** at Wed Jul 16 20:29:28 2025

         ------------------------------------------------------------
                                   SCF GRAD
                          Rob Parrish, Justin Turney,
                       Andy Simmonett, and Alex Sokolov
         ------------------------------------------------------------

  ==> Geometry <==

    Molecular point group: c2v
    Full point group: C_inf_v

    Geometry (in Angstrom), charge = 0, multiplicity = 2:

       Center              X                  Y                   Z               Mass
    ------------   -----------------  -----------------  -----------------  -----------------
         S            0.000000000000     0.000000000000     1.060878049777    31.972071174400
         CL           0.000000000000     0.000000000000    -0.969962292537    34.968852682000

  Nuclear repulsion =   70.875193043598330

  ==> Basis Set <==

  Basis Set: CC-PVDZ
    Blend: CC-PVDZ
    Number of shells: 16
    Number of basis functions: 36
    Number of Cartesian functions: 38
    Spherical Harmonics?: true
    Max angular momentum: 2

  ==> DFJKGrad: Density-Fitted SCF Gradients <==

    Gradient:                    1
    J tasked:                  Yes
    K tasked:                  Yes
    wK tasked:                  No
    OpenMP threads:              1
    Integrals threads:           1
    Memory [MiB]:              375
    Schwarz Cutoff:          1E-12
    Fitting Condition:       1E-10

   => Auxiliary Basis Set <=

  Basis Set: (CC-PVDZ AUX)
    Blend: CC-PVDZ-JKFIT
    Number of shells: 72
    Number of basis functions: 224
    Number of Cartesian functions: 260
    Spherical Harmonics?: true
    Max angular momentum: 3

  ==> DFT Potential <==

   => LibXC <=

    Version 6.2.2
    S. Lehtola, C. Steigemann, M. J.T. Oliveira, and M. A.L. Marques.,  SoftwareX 7, 1â€“5 (2018) (10.1016/j.softx.2017.11.002)

   => Composite Functional: B3LYP <=

    B3LYP Hyb-GGA Exchange-Correlation Functional

    P. J. Stephens, F. J. Devlin, C. F. Chabalowski, and M. J. Frisch.,  J. Phys. Chem. 98, 11623 (1994) (10.1021/j100096a001)

    Deriv               =              1
    GGA                 =           TRUE
    Meta                =          FALSE

    Exchange Hybrid     =           TRUE
    MP2 Hybrid          =          FALSE

   => Exchange Functionals <=

    0.0800   Slater exchange
    0.7200         Becke 88

   => Exact (HF) Exchange <=

    0.2000               HF

   => Correlation Functionals <=

    0.1900   Vosko, Wilk & Nusair (VWN5_RPA)
    0.8100   Lee, Yang & Parr

   => LibXC Density Thresholds  <==

    XC_HYB_GGA_XC_B3LYP:  1.00E-15

   => Molecular Quadrature <=

    Radial Scheme          =       TREUTLER
    Pruning Scheme         =           NONE
    Nuclear Scheme         =       TREUTLER

    Blocking Scheme        =         OCTREE
    BS radius alpha        =              1
    Pruning alpha          =              1
    Radial Points          =             75
    Spherical Points       =            302
    Total Points           =          40232
    Total Blocks           =            358
    Max Points             =            256
    Max Functions          =             36
    Weights Tolerance      =       1.00E-15

  -Total Gradient:
     Atom            X                  Y                   Z
    ------   -----------------  -----------------  -----------------
       1        0.000000000000     0.000000000000    -0.000249082697
       2        0.000000000000     0.000000000000     0.000258383822

*** tstop() called on Joses-MacBook-Pro-2.local at Wed Jul 16 20:29:28 2025
Module time:
	user time   =       1.77 seconds =       0.03 minutes
	system time =       1.49 seconds =       0.02 minutes
	total time  =          0 seconds =       0.00 minutes
Total time:
	user time   =     196.90 seconds =       3.28 minutes
	system time =      57.17 seconds =       0.95 minutes
	total time  =         24 seconds =       0.40 minutes

    			-----------------------------------------

    			 OPTKING 3.0: for geometry optimizations

    			     By R.A. King, Bethel University

    			        with contributions from

    			    A.V. Copan, J. Cayton, A. Heide

    			-----------------------------------------

	                            ===> Fragment 1 <==

	 Z (Atomic Numbers)          Masses                          Geom
	      16.000000            31.972071          0.00000000  0.00000000  2.00476897
	      17.000000            34.968853          0.00000000  0.00000000 -1.83296308

	 - Coordinate -           - BOHR/RAD -       - ANG/DEG -
	 R(1,2)           =         3.837732           2.030840

	        --- Internal Coordinate Step in ANG or DEG, aJ/ANG or AJ/DEG ---
	-------------------------------------------------------------------------------
	           Coordinate      Previous         Force          Change          New
	           ----------      --------        ------          ------        ------
	               R(1,2)       2.03084        0.00209        0.00062       2.03146
	-------------------------------------------------------------------------------

	                                 ==> Convergence Check <==

	Measures of convergence in internal coordinates in au.

	Criteria marked as inactive (o), active & met (*), and active & unmet ( ).

	----------------------------------------------------------------------------------------------
	   Step    Total Energy     Delta E     Max Force     RMS Force      Max Disp      RMS Disp
	----------------------------------------------------------------------------------------------
	  Convergence Criteria     1.00e-06 *    3.00e-04 *             o    1.20e-03 *             o
	----------------------------------------------------------------------------------------------
	    15    -858.38217821   -4.13e-06      2.54e-04 *    2.54e-04 o    1.17e-03 *    1.17e-03 o  ~
	----------------------------------------------------------------------------------------------

Next Geometry in Ang
	Fragment 1 (Ang)

	    S   0.0000000000   0.0000000000   1.0611887041
	   Cl   0.0000000000   0.0000000000  -0.9702729468

    Final optimized geometry and variables:
    Molecular point group: c2v
    Full point group: C_inf_v

    Geometry (in Angstrom), charge = 0, multiplicity = 2:

    S            0.000000000000     0.000000000000     1.060878049777
    CL           0.000000000000     0.000000000000    -0.969962292537

    Psi4 stopped on: Wednesday, 16 July 2025 08:29PM
    Psi4 wall time for execution: 0:00:25.54

*** Psi4 exiting successfully. Buy a developer a beer!
