                               Psi4 1.9.1 release

  ==> Input File <==

--------------------------------------------------------------------------
molecule {
0 2
Li   0.00000        0.60000        0.00000
Ar   0.00000       -0.60000        0.00000
}

set {
basis              cc-pvdz
reference          uks
maxiter            500
geom_maxiter       500
DAMPING_PERCENTAGE 1
guess              SAP
}

optimize('b3lyp')
--------------------------------------------------------------------------

    Molecular point group: c2v
  Charge       = 0
  Multiplicity = 2
  Basis Set: CC-PVDZ
    Blend: CC-PVDZ
  Basis Set: (CC-PVDZ AUX)
    Blend: CC-PVDZ-JKFIT + DEF2-UNIVERSAL-JKFIT
  @DF-UKS Final Energy:  -534.52913490384958
    Total Energy =                       -534.5291349038495810
 Dipole X            :          0.0000000            0.0000000            0.0000000
 Dipole Y            :          0.0000000            0.0000000            0.0000000
 Dipole Z            :         -0.9478599           -0.3089754           -1.2568353
 Magnitude           :                                                    1.2568353
    Molecular point group: c2v
  Basis Set: CC-PVDZ
    Blend: CC-PVDZ
  Basis Set: (CC-PVDZ AUX)
    Blend: CC-PVDZ-JKFIT + DEF2-UNIVERSAL-JKFIT
  Basis Set: CC-PVDZ
    Blend: CC-PVDZ
  Basis Set: (CC-PVDZ AUX)
    Blend: CC-PVDZ-JKFIT + DEF2-UNIVERSAL-JKFIT
  @DF-UKS Final Energy:  -534.72952800596181
    Total Energy =                       -534.7295280059618108
  Basis Set: CC-PVDZ
    Blend: CC-PVDZ
  Basis Set: (CC-PVDZ AUX)
    Blend: CC-PVDZ-JKFIT + DEF2-UNIVERSAL-JKFIT
  Basis Set: CC-PVDZ
    Blend: CC-PVDZ
  @DF-UKS Final Energy:  -534.86721430388957
    Total Energy =                       -534.8672143038895683
  @DF-UKS Final Energy:  -534.94619069970736
    Total Energy =                       -534.9461906997073584
  @DF-UKS Final Energy:  -534.98631240554266
    Total Energy =                       -534.9863124055426624
  @DF-UKS Final Energy:  -535.00746686473497
    Total Energy =                       -535.0074668647349654
  @DF-UKS Final Energy:  -535.01862664853002
    Total Energy =                       -535.0186266485299029
  @DF-UKS Final Energy:  -535.02457320611620
    Total Energy =                       -535.0245732061162016
  @DF-UKS Final Energy:  -535.02783675768490
    Total Energy =                       -535.0278367576848950
  @DF-UKS Final Energy:  -535.02977758792508
    Total Energy =                       -535.0297775879250821
  @DF-UKS Final Energy:  -535.03110873688888
    Total Energy =                       -535.0311087368888820
  @DF-UKS Final Energy:  -535.03217775526184
    Total Energy =                       -535.0321777552618414
  @DF-UKS Final Energy:  -535.03304262635493
    Total Energy =                       -535.0330426263549271
  @DF-UKS Final Energy:  -535.03304758854676
    Total Energy =                       -535.0330475885467649
  @DF-UKS Final Energy:  -535.03305251703466
    Total Energy =                       -535.0330525170345481
  @DF-UKS Final Energy:  -535.03305741363283
    Total Energy =                       -535.0330574136328323
  @DF-UKS Final Energy:  -535.03361248115391
    Total Energy =                       -535.0336124811539094
  @DF-UKS Final Energy:  -535.03361399336313
    Total Energy =                       -535.0336139933631330
  @DF-UKS Final Energy:  -535.03361550162435
    Total Energy =                       -535.0336155016243538
  @DF-UKS Final Energy:  -535.03361700141750
    Total Energy =                       -535.0336170014174968
  @DF-UKS Final Energy:  -535.03361849286694
    Total Energy =                       -535.0336184928669354
  @DF-UKS Final Energy:  -535.03361997592401
    Total Energy =                       -535.0336199759240117
  Basis Set: (CC-PVDZ AUX)
    Blend: CC-PVDZ-JKFIT + DEF2-UNIVERSAL-JKFIT
  Basis Set: CC-PVDZ
    Blend: CC-PVDZ
  Basis Set: (CC-PVDZ AUX)
    Blend: CC-PVDZ-JKFIT + DEF2-UNIVERSAL-JKFIT
  @DF-UKS Final Energy:  -535.03384878380450
    Total Energy =                       -535.0338487838043875
  Basis Set: CC-PVDZ
    Blend: CC-PVDZ
  Basis Set: (CC-PVDZ AUX)
    Blend: CC-PVDZ-JKFIT + DEF2-UNIVERSAL-JKFIT
  Charge       = 0
  Multiplicity = 2
  Basis Set: CC-PVDZ
    Blend: CC-PVDZ
  Basis Set: (CC-PVDZ AUX)
    Blend: CC-PVDZ-JKFIT + DEF2-UNIVERSAL-JKFIT

    Orbital Energies [Eh]
    ---------------------

    Alpha Occupied:

       1A1  -115.103707     2A1   -11.139757     3A1    -8.689723
       1B2    -8.689567     1B1    -8.689567     4A1    -2.031393
       5A1    -0.967856     6A1    -0.426343     2B2    -0.425140
       2B1    -0.425140     7A1    -0.132946

    Alpha Virtual:

       3B2    -0.031631     3B1    -0.031631     8A1    -0.028084
       9A1     0.069880     4B1     0.071648     4B2     0.071648
      10A1     0.085284     5B1     0.217924     5B2     0.217924
      11A1     0.218054     1A2     0.218431    12A1     0.218431
       6B2     0.588028     6B1     0.588028    13A1     0.616828
      14A1     0.806074    15A1     0.832732     2A2     0.832747
       7B2     0.832856     7B1     0.832856    16A1     0.838713

    Beta Occupied:

       1A1  -115.103636     2A1   -11.139683     3A1    -8.689566
       1B1    -8.689512     1B2    -8.689512     4A1    -2.024099
       5A1    -0.967561     6A1    -0.425983     2B2    -0.425057
       2B1    -0.425057

    Beta Virtual:

       7A1    -0.054803     8A1     0.000234     3B2     0.001302
       3B1     0.001302     9A1     0.087590     4B1     0.090988
       4B2     0.090988    10A1     0.106042    11A1     0.256092
       5B1     0.262495     5B2     0.262495     1A2     0.267319
      12A1     0.267321     6B1     0.588403     6B2     0.588403
      13A1     0.618717    14A1     0.807654    15A1     0.832831
       2A2     0.832847     7B2     0.833139     7B1     0.833139
      16A1     0.839695

    Final Occupation by Irrep:
             A1    A2    B1    B2
    DOCC [     6,    0,    2,    2 ]
    SOCC [     1,    0,    0,    0 ]
    NA   [     7,    0,    2,    2 ]
    NB   [     6,    0,    2,    2 ]

  @DF-UKS Final Energy:  -535.03384914817821

   => Energetics <=

    Nuclear Repulsion Energy =              7.0306684211101729
    One-Electron Energy =                -752.0834750959122630
    Two-Electron Energy =                 236.3918675905477471
    DFT Exchange-Correlation Energy =     -26.3729100639238538
    Empirical Dispersion Energy =           0.0000000000000000
    VV10 Nonlocal Energy =                  0.0000000000000000
    Total Energy =                       -535.0338491481782057

  UHF NO Occupations:
  HONO-2 :    2 B2 1.9999998
  HONO-1 :    6 A1 1.9999971
  HONO-0 :    7 A1 1.0000000
  LUNO+0 :    8 A1 0.0000029
  LUNO+1 :    3 B1 0.0000002
  LUNO+2 :    3 B2 0.0000002
  LUNO+3 :    9 A1 0.0000001

Computation Completed

Properties will be evaluated at   0.000000,   0.000000,   0.000000 [a0]

Properties computed using the SCF density matrix

 Multipole Moments:

 ------------------------------------------------------------------------------------
     Multipole            Electronic (a.u.)      Nuclear  (a.u.)        Total (a.u.)
 ------------------------------------------------------------------------------------

 L = 1.  Multiply by 2.5417464519 to convert [e a0] to [Debye]
 Dipole X            :          0.0000000            0.0000000            0.0000000
 Dipole Y            :          0.0000000            0.0000000            0.0000000
 Dipole Z            :          0.8961007           -1.0465041           -0.1504034
 Magnitude           :                                                    0.1504034

 ------------------------------------------------------------------------------------

*** tstop() called on Joses-MacBook-Pro-2.local at Wed Jul 16 18:38:22 2025
Module time:
	user time   =       1.61 seconds =       0.03 minutes
	system time =       3.25 seconds =       0.05 minutes
	total time  =          0 seconds =       0.00 minutes
Total time:
	user time   =      93.71 seconds =       1.56 minutes
	system time =     121.76 seconds =       2.03 minutes
	total time  =         20 seconds =       0.33 minutes

*** tstart() called on Joses-MacBook-Pro-2.local
*** at Wed Jul 16 18:38:22 2025

         ------------------------------------------------------------
                                   SCF GRAD
                          Rob Parrish, Justin Turney,
                       Andy Simmonett, and Alex Sokolov
         ------------------------------------------------------------

  ==> Geometry <==

    Molecular point group: c2v
    Full point group: C_inf_v

    Geometry (in Angstrom), charge = 0, multiplicity = 2:

       Center              X                  Y                   Z               Mass
    ------------   -----------------  -----------------  -----------------  -----------------
         LI           0.000000000000     0.000000000000     3.457415369281     7.016003436600
         AR           0.000000000000     0.000000000000    -0.607001790598    39.962383123700

  Nuclear repulsion =    7.030668421110173

  ==> Basis Set <==

  Basis Set: CC-PVDZ
    Blend: CC-PVDZ
    Number of shells: 14
    Number of basis functions: 32
    Number of Cartesian functions: 34
    Spherical Harmonics?: true
    Max angular momentum: 2

  ==> DFJKGrad: Density-Fitted SCF Gradients <==

    Gradient:                    1
    J tasked:                  Yes
    K tasked:                  Yes
    wK tasked:                  No
    OpenMP threads:              1
    Integrals threads:           1
    Memory [MiB]:              375
    Schwarz Cutoff:          1E-12
    Fitting Condition:       1E-10

   => Auxiliary Basis Set <=

  Basis Set: (CC-PVDZ AUX)
    Blend: CC-PVDZ-JKFIT + DEF2-UNIVERSAL-JKFIT
    Number of shells: 53
    Number of basis functions: 163
    Number of Cartesian functions: 190
    Spherical Harmonics?: true
    Max angular momentum: 3

  ==> DFT Potential <==

   => LibXC <=

    Version 6.2.2
    S. Lehtola, C. Steigemann, M. J.T. Oliveira, and M. A.L. Marques.,  SoftwareX 7, 1â€“5 (2018) (10.1016/j.softx.2017.11.002)

   => Composite Functional: B3LYP <=

    B3LYP Hyb-GGA Exchange-Correlation Functional

    P. J. Stephens, F. J. Devlin, C. F. Chabalowski, and M. J. Frisch.,  J. Phys. Chem. 98, 11623 (1994) (10.1021/j100096a001)

    Deriv               =              1
    GGA                 =           TRUE
    Meta                =          FALSE

    Exchange Hybrid     =           TRUE
    MP2 Hybrid          =          FALSE

   => Exchange Functionals <=

    0.0800   Slater exchange
    0.7200         Becke 88

   => Exact (HF) Exchange <=

    0.2000               HF

   => Correlation Functionals <=

    0.1900   Vosko, Wilk & Nusair (VWN5_RPA)
    0.8100   Lee, Yang & Parr

   => LibXC Density Thresholds  <==

    XC_HYB_GGA_XC_B3LYP:  1.00E-15

   => Molecular Quadrature <=

    Radial Scheme          =       TREUTLER
    Pruning Scheme         =           NONE
    Nuclear Scheme         =       TREUTLER

    Blocking Scheme        =         OCTREE
    BS radius alpha        =              1
    Pruning alpha          =              1
    Radial Points          =             75
    Spherical Points       =            302
    Total Points           =          44397
    Total Blocks           =            455
    Max Points             =            252
    Max Functions          =             32
    Weights Tolerance      =       1.00E-15

  -Total Gradient:
     Atom            X                  Y                   Z
    ------   -----------------  -----------------  -----------------
       1        0.000000000000    -0.000000000000    -0.000271913751
       2        0.000000000000    -0.000000000000     0.000261915597

*** tstop() called on Joses-MacBook-Pro-2.local at Wed Jul 16 18:38:23 2025
Module time:
	user time   =       0.81 seconds =       0.01 minutes
	system time =       1.37 seconds =       0.02 minutes
	total time  =          1 seconds =       0.02 minutes
Total time:
	user time   =      94.52 seconds =       1.58 minutes
	system time =     123.13 seconds =       2.05 minutes
	total time  =         21 seconds =       0.35 minutes

    			-----------------------------------------

    			 OPTKING 3.0: for geometry optimizations

    			     By R.A. King, Bethel University

    			        with contributions from

    			    A.V. Copan, J. Cayton, A. Heide

    			-----------------------------------------

	                            ===> Fragment 1 <==

	 Z (Atomic Numbers)          Masses                          Geom
	       3.000000             7.016003          0.00000000  0.00000000  6.53356815
	      18.000000            39.962383          0.00000000  0.00000000 -1.14706714

	 - Coordinate -           - BOHR/RAD -       - ANG/DEG -
	 R(1,2)           =         7.680635           4.064417

	        --- Internal Coordinate Step in ANG or DEG, aJ/ANG or AJ/DEG ---
	-------------------------------------------------------------------------------
	           Coordinate      Previous         Force          Change          New
	           ----------      --------        ------          ------        ------
	               R(1,2)       4.06442        0.00220        0.00072       4.06514
	-------------------------------------------------------------------------------

	                                 ==> Convergence Check <==

	Measures of convergence in internal coordinates in au.

	Criteria marked as inactive (o), active & met (*), and active & unmet ( ).

	----------------------------------------------------------------------------------------------
	   Step    Total Energy     Delta E     Max Force     RMS Force      Max Disp      RMS Disp
	----------------------------------------------------------------------------------------------
	  Convergence Criteria     1.00e-06 *    3.00e-04 *             o    1.20e-03 *             o
	----------------------------------------------------------------------------------------------
	    24    -535.03384915   -3.64e-07 *    2.67e-04 *    2.67e-04 o    1.36e-03      1.36e-03 o  ~
	----------------------------------------------------------------------------------------------

Next Geometry in Ang
	Fragment 1 (Ang)

	   Li   0.0000000000   0.0000000000   3.4577756780
	   Ar   0.0000000000   0.0000000000  -0.6073620993

    Final optimized geometry and variables:
    Molecular point group: c2v
    Full point group: C_inf_v

    Geometry (in Angstrom), charge = 0, multiplicity = 2:

    LI           0.000000000000     0.000000000000     3.457415369281
    AR           0.000000000000     0.000000000000    -0.607001790598

    Psi4 stopped on: Wednesday, 16 July 2025 06:38PM
    Psi4 wall time for execution: 0:00:21.68

*** Psi4 exiting successfully. Buy a developer a beer!
