                               Psi4 1.9.1 release

  ==> Input File <==

--------------------------------------------------------------------------
molecule {
0 2
F   0.00000        0.60000        0.00000
Si   0.00000       -0.60000        0.00000
}

set {
basis              cc-pvdz
reference          uks
maxiter            500
geom_maxiter       500
DAMPING_PERCENTAGE 1
guess              SAP
}

optimize('b3lyp')
--------------------------------------------------------------------------

    Molecular point group: c2v
  Charge       = 0
  Multiplicity = 2
  Basis Set: CC-PVDZ
    Blend: CC-PVDZ
  Basis Set: (CC-PVDZ AUX)
    Blend: CC-PVDZ-JKFIT
  @DF-UKS Final Energy:  -389.03483873705966
    Total Energy =                       -389.0348387370596583
 Dipole X            :          0.0000000            0.0000000            0.0000000
 Dipole Y            :          0.0000000            0.0000000            0.0000000
 Dipole Z            :          0.9795237           -0.6847767            0.2947471
 Magnitude           :                                                    0.2947471
    Molecular point group: c2v
  Basis Set: CC-PVDZ
    Blend: CC-PVDZ
  Basis Set: (CC-PVDZ AUX)
    Blend: CC-PVDZ-JKFIT
  Basis Set: CC-PVDZ
    Blend: CC-PVDZ
  Basis Set: (CC-PVDZ AUX)
    Blend: CC-PVDZ-JKFIT
  @DF-UKS Final Energy:  -389.20434001046857
    Total Energy =                       -389.2043400104685134
  Basis Set: CC-PVDZ
    Blend: CC-PVDZ
  Basis Set: (CC-PVDZ AUX)
    Blend: CC-PVDZ-JKFIT
  Basis Set: CC-PVDZ
    Blend: CC-PVDZ
  @DF-UKS Final Energy:  -389.28263887432450
    Total Energy =                       -389.2826388743245047
  @DF-UKS Final Energy:  -389.30730996880436
    Total Energy =                       -389.3073099688043612
  @DF-UKS Final Energy:  -389.31945435918198
    Total Energy =                       -389.3194543591819752
  @DF-UKS Final Energy:  -389.32288980346482
    Total Energy =                       -389.3228898034648182
  @DF-UKS Final Energy:  -389.32426926227726
    Total Energy =                       -389.3242692622772552
  @DF-UKS Final Energy:  -389.32453172120250
    Total Energy =                       -389.3245317212025043
  @DF-UKS Final Energy:  -389.32459153328227
    Total Energy =                       -389.3245915332822733
  Basis Set: (CC-PVDZ AUX)
    Blend: CC-PVDZ-JKFIT
  Basis Set: CC-PVDZ
    Blend: CC-PVDZ
  Basis Set: (CC-PVDZ AUX)
    Blend: CC-PVDZ-JKFIT
  @DF-UKS Final Energy:  -389.32459878633188
    Total Energy =                       -389.3245987863318760
  Basis Set: CC-PVDZ
    Blend: CC-PVDZ
  Basis Set: (CC-PVDZ AUX)
    Blend: CC-PVDZ-JKFIT
  Charge       = 0
  Multiplicity = 2
  Basis Set: CC-PVDZ
    Blend: CC-PVDZ
  Basis Set: (CC-PVDZ AUX)
    Blend: CC-PVDZ-JKFIT

    Orbital Energies [Eh]
    ---------------------

    Alpha Occupied:

       1A1   -66.196980     2A1   -24.690991     3A1    -5.336248
       1B2    -3.697320     1B1    -3.693546     4A1    -3.693114
       5A1    -1.176041     6A1    -0.525356     2B1    -0.431642
       2B2    -0.426843     7A1    -0.361511     3B1    -0.170917

    Alpha Virtual:

       3B2    -0.105614     8A1     0.007771     9A1     0.245230
       4B1     0.291305     4B2     0.297728     1A2     0.335057
      10A1     0.339295    11A1     0.347593     5B1     0.394176
       5B2     0.401506    12A1     0.581499     6B2     1.240044
       6B1     1.240879    13A1     1.256066    14A1     2.149985
       2A2     3.562523    15A1     3.562677     7B2     3.600648
       7B1     3.602293    16A1     3.772161

    Beta Occupied:

       1A1   -66.194052     2A1   -24.688382     3A1    -5.332956
       1B2    -3.695627     4A1    -3.691510     1B1    -3.682662
       5A1    -1.170677     6A1    -0.514193     2B2    -0.425031
       2B1    -0.414663     7A1    -0.337035

    Beta Virtual:

       3B2    -0.096696     3B1    -0.064711     8A1     0.017587
       9A1     0.256747     4B2     0.301529     4B1     0.324474
      10A1     0.349908     1A2     0.377537    11A1     0.378764
       5B2     0.404310     5B1     0.431647    12A1     0.595027
       6B2     1.241008     6B1     1.250046    13A1     1.257936
      14A1     2.153461     2A2     3.569057    15A1     3.569081
       7B2     3.601578     7B1     3.609584    16A1     3.776116

    Final Occupation by Irrep:
             A1    A2    B1    B2
    DOCC [     7,    0,    2,    2 ]
    SOCC [     0,    0,    1,    0 ]
    NA   [     7,    0,    3,    2 ]
    NB   [     7,    0,    2,    2 ]

  @DF-UKS Final Energy:  -389.32459905736022

   => Energetics <=

    Nuclear Repulsion Energy =             40.0352582925222364
    One-Electron Energy =                -620.1180312116048299
    Two-Electron Energy =                 216.0391200258152082
    DFT Exchange-Correlation Energy =     -25.2809461640928568
    Empirical Dispersion Energy =           0.0000000000000000
    VV10 Nonlocal Energy =                  0.0000000000000000
    Total Energy =                       -389.3245990573602171

  UHF NO Occupations:
  HONO-2 :    2 B1 1.9999394
  HONO-1 :    7 A1 1.9980810
  HONO-0 :    3 B1 1.0000000
  LUNO+0 :    8 A1 0.0019190
  LUNO+1 :    4 B1 0.0000606
  LUNO+2 :    3 B2 0.0000176
  LUNO+3 :    9 A1 0.0000058

Computation Completed

Properties will be evaluated at   0.000000,   0.000000,   0.000000 [a0]

Properties computed using the SCF density matrix

 Multipole Moments:

 ------------------------------------------------------------------------------------
     Multipole            Electronic (a.u.)      Nuclear  (a.u.)        Total (a.u.)
 ------------------------------------------------------------------------------------

 L = 1.  Multiply by 2.5417464519 to convert [e a0] to [Debye]
 Dipole X            :          0.0000000            0.0000000            0.0000000
 Dipole Y            :          0.0000000            0.0000000            0.0000000
 Dipole Z            :          0.4652387           -0.9503789           -0.4851401
 Magnitude           :                                                    0.4851401

 ------------------------------------------------------------------------------------

*** tstop() called on Joses-MacBook-Pro-2.local at Wed Jul 16 19:28:19 2025
Module time:
	user time   =       3.02 seconds =       0.05 minutes
	system time =       2.37 seconds =       0.04 minutes
	total time  =          1 seconds =       0.02 minutes
Total time:
	user time   =      61.42 seconds =       1.02 minutes
	system time =      50.92 seconds =       0.85 minutes
	total time  =         11 seconds =       0.18 minutes

*** tstart() called on Joses-MacBook-Pro-2.local
*** at Wed Jul 16 19:28:19 2025

         ------------------------------------------------------------
                                   SCF GRAD
                          Rob Parrish, Justin Turney,
                       Andy Simmonett, and Alex Sokolov
         ------------------------------------------------------------

  ==> Geometry <==

    Molecular point group: c2v
    Full point group: C_inf_v

    Geometry (in Angstrom), charge = 0, multiplicity = 2:

       Center              X                  Y                   Z               Mass
    ------------   -----------------  -----------------  -----------------  -----------------
         F            0.000000000000     0.000000000000     0.991880171999    18.998403162730
         SI           0.000000000000     0.000000000000    -0.673560027168    27.976926534650

  Nuclear repulsion =   40.035258292522236

  ==> Basis Set <==

  Basis Set: CC-PVDZ
    Blend: CC-PVDZ
    Number of shells: 14
    Number of basis functions: 32
    Number of Cartesian functions: 34
    Spherical Harmonics?: true
    Max angular momentum: 2

  ==> DFJKGrad: Density-Fitted SCF Gradients <==

    Gradient:                    1
    J tasked:                  Yes
    K tasked:                  Yes
    wK tasked:                  No
    OpenMP threads:              1
    Integrals threads:           1
    Memory [MiB]:              375
    Schwarz Cutoff:          1E-12
    Fitting Condition:       1E-10

   => Auxiliary Basis Set <=

  Basis Set: (CC-PVDZ AUX)
    Blend: CC-PVDZ-JKFIT
    Number of shells: 60
    Number of basis functions: 182
    Number of Cartesian functions: 211
    Spherical Harmonics?: true
    Max angular momentum: 3

  ==> DFT Potential <==

   => LibXC <=

    Version 6.2.2
    S. Lehtola, C. Steigemann, M. J.T. Oliveira, and M. A.L. Marques.,  SoftwareX 7, 1â€“5 (2018) (10.1016/j.softx.2017.11.002)

   => Composite Functional: B3LYP <=

    B3LYP Hyb-GGA Exchange-Correlation Functional

    P. J. Stephens, F. J. Devlin, C. F. Chabalowski, and M. J. Frisch.,  J. Phys. Chem. 98, 11623 (1994) (10.1021/j100096a001)

    Deriv               =              1
    GGA                 =           TRUE
    Meta                =          FALSE

    Exchange Hybrid     =           TRUE
    MP2 Hybrid          =          FALSE

   => Exchange Functionals <=

    0.0800   Slater exchange
    0.7200         Becke 88

   => Exact (HF) Exchange <=

    0.2000               HF

   => Correlation Functionals <=

    0.1900   Vosko, Wilk & Nusair (VWN5_RPA)
    0.8100   Lee, Yang & Parr

   => LibXC Density Thresholds  <==

    XC_HYB_GGA_XC_B3LYP:  1.00E-15

   => Molecular Quadrature <=

    Radial Scheme          =       TREUTLER
    Pruning Scheme         =           NONE
    Nuclear Scheme         =       TREUTLER

    Blocking Scheme        =         OCTREE
    BS radius alpha        =              1
    Pruning alpha          =              1
    Radial Points          =             75
    Spherical Points       =            302
    Total Points           =          42909
    Total Blocks           =            392
    Max Points             =            255
    Max Functions          =             32
    Weights Tolerance      =       1.00E-15

  -Total Gradient:
     Atom            X                  Y                   Z
    ------   -----------------  -----------------  -----------------
       1        0.000000000000     0.000000000000    -0.000102445586
       2       -0.000000000000    -0.000000000000     0.000023103796

*** tstop() called on Joses-MacBook-Pro-2.local at Wed Jul 16 19:28:19 2025
Module time:
	user time   =       0.92 seconds =       0.02 minutes
	system time =       1.27 seconds =       0.02 minutes
	total time  =          0 seconds =       0.00 minutes
Total time:
	user time   =      62.35 seconds =       1.04 minutes
	system time =      52.19 seconds =       0.87 minutes
	total time  =         11 seconds =       0.18 minutes

    			-----------------------------------------

    			 OPTKING 3.0: for geometry optimizations

    			     By R.A. King, Bethel University

    			        with contributions from

    			    A.V. Copan, J. Cayton, A. Heide

    			-----------------------------------------

	                            ===> Fragment 1 <==

	 Z (Atomic Numbers)          Masses                          Geom
	       9.000000            18.998403          0.00000000  0.00000000  1.87438187
	      14.000000            27.976927          0.00000000  0.00000000 -1.27284398

	 - Coordinate -           - BOHR/RAD -       - ANG/DEG -
	 R(1,2)           =         3.147226           1.665440

	        --- Internal Coordinate Step in ANG or DEG, aJ/ANG or AJ/DEG ---
	-------------------------------------------------------------------------------
	           Coordinate      Previous         Force          Change          New
	           ----------      --------        ------          ------        ------
	               R(1,2)       1.66544        0.00052        0.00011       1.66555
	-------------------------------------------------------------------------------

	                                 ==> Convergence Check <==

	Measures of convergence in internal coordinates in au.

	Criteria marked as inactive (o), active & met (*), and active & unmet ( ).

	----------------------------------------------------------------------------------------------
	   Step    Total Energy     Delta E     Max Force     RMS Force      Max Disp      RMS Disp
	----------------------------------------------------------------------------------------------
	  Convergence Criteria     1.00e-06 *    3.00e-04 *             o    1.20e-03 *             o
	----------------------------------------------------------------------------------------------
	    11    -389.32459906   -2.71e-07 *    6.28e-05 *    6.28e-05 o    2.00e-04 *    2.00e-04 o  ~
	----------------------------------------------------------------------------------------------

Next Geometry in Ang
	Fragment 1 (Ang)

	    F   0.0000000000   0.0000000000   0.9919330488
	   Si   0.0000000000   0.0000000000  -0.6736129040

    Final optimized geometry and variables:
    Molecular point group: c2v
    Full point group: C_inf_v

    Geometry (in Angstrom), charge = 0, multiplicity = 2:

    F            0.000000000000     0.000000000000     0.991880171999
    SI           0.000000000000     0.000000000000    -0.673560027168

    Psi4 stopped on: Wednesday, 16 July 2025 07:28PM
    Psi4 wall time for execution: 0:00:12.03

*** Psi4 exiting successfully. Buy a developer a beer!
