                               Psi4 1.9.1 release

  ==> Input File <==

--------------------------------------------------------------------------
molecule {
0 2
O   0.00000        0.60000        0.00000
Cl   0.00000       -0.60000        0.00000
}

set {
basis              cc-pvdz
reference          uks
maxiter            500
geom_maxiter       500
DAMPING_PERCENTAGE 1
guess              SAP
}

optimize('b3lyp')
--------------------------------------------------------------------------

    Molecular point group: c2v
  Charge       = 0
  Multiplicity = 2
  Basis Set: CC-PVDZ
    Blend: CC-PVDZ
  Basis Set: (CC-PVDZ AUX)
    Blend: CC-PVDZ-JKFIT
  @DF-UKS Final Energy:  -535.08172380454425
    Total Energy =                       -535.0817238045442537
 Dipole X            :          0.0000000            0.0000000            0.0000000
 Dipole Y            :          0.0000000            0.0000000            0.0000000
 Dipole Z            :         -0.7798560            0.3487254           -0.4311306
 Magnitude           :                                                    0.4311306
    Molecular point group: c2v
  Basis Set: CC-PVDZ
    Blend: CC-PVDZ
  Basis Set: (CC-PVDZ AUX)
    Blend: CC-PVDZ-JKFIT
  Basis Set: CC-PVDZ
    Blend: CC-PVDZ
  Basis Set: (CC-PVDZ AUX)
    Blend: CC-PVDZ-JKFIT
  @DF-UKS Final Energy:  -535.21887935570317
    Total Energy =                       -535.2188793557031659
  Basis Set: CC-PVDZ
    Blend: CC-PVDZ
  Basis Set: (CC-PVDZ AUX)
    Blend: CC-PVDZ-JKFIT
  Basis Set: CC-PVDZ
    Blend: CC-PVDZ
  @DF-UKS Final Energy:  -535.28380469873309
    Total Energy =                       -535.2838046987330927
  @DF-UKS Final Energy:  -535.30406067600723
    Total Energy =                       -535.3040606760072251
  @DF-UKS Final Energy:  -535.31421767050358
    Total Energy =                       -535.3142176705035808
  @DF-UKS Final Energy:  -535.31721019983411
    Total Energy =                       -535.3172101998341077
  @DF-UKS Final Energy:  -535.31847693078237
    Total Energy =                       -535.3184769307823672
  @DF-UKS Final Energy:  -535.31872914304006
    Total Energy =                       -535.3187291430400592
  @DF-UKS Final Energy:  -535.31878983182924
    Total Energy =                       -535.3187898318292355
  Basis Set: (CC-PVDZ AUX)
    Blend: CC-PVDZ-JKFIT
  Basis Set: CC-PVDZ
    Blend: CC-PVDZ
  Basis Set: (CC-PVDZ AUX)
    Blend: CC-PVDZ-JKFIT
  @DF-UKS Final Energy:  -535.31879788633512
    Total Energy =                       -535.3187978863351191
  Basis Set: CC-PVDZ
    Blend: CC-PVDZ
  Basis Set: (CC-PVDZ AUX)
    Blend: CC-PVDZ-JKFIT
  Charge       = 0
  Multiplicity = 2
  Basis Set: CC-PVDZ
    Blend: CC-PVDZ
  Basis Set: (CC-PVDZ AUX)
    Blend: CC-PVDZ-JKFIT

    Orbital Energies [Eh]
    ---------------------

    Alpha Occupied:

       1A1  -101.622910     2A1   -19.240977     3A1    -9.538235
       4A1    -7.302171     1B1    -7.294634     1B2    -7.287629
       5A1    -1.078571     6A1    -0.797961     7A1    -0.480690
       2B1    -0.470756     2B2    -0.431820     3B1    -0.329464
       3B2    -0.290485

    Alpha Virtual:

       8A1    -0.057086     9A1     0.469823     4B1     0.506335
       4B2     0.517667    10A1     0.565113     5B1     0.632237
       5B2     0.654398     1A2     0.673191    11A1     0.673196
      12A1     0.845450     6B1     0.948402     6B2     0.982129
      13A1     1.034476    14A1     1.582219    15A1     2.516772
       2A2     2.517446     7B1     2.565263     7B2     2.611115
      16A1     2.973464

    Beta Occupied:

       1A1  -101.621223     2A1   -19.219943     3A1    -9.536612
       4A1    -7.301871     1B1    -7.288546     1B2    -7.286663
       5A1    -1.039396     6A1    -0.767573     7A1    -0.462237
       2B2    -0.421826     2B1    -0.398724     3B2    -0.275513

    Beta Virtual:

       3B1    -0.166949     8A1    -0.041678     9A1     0.472711
       4B1     0.516467     4B2     0.519001    10A1     0.569336
       5B2     0.657513     5B1     0.665245     1A2     0.687487
      11A1     0.687818    12A1     0.860976     6B2     0.992291
       6B1     1.011367    13A1     1.046549    14A1     1.608246
       2A2     2.580776    15A1     2.586607     7B2     2.622562
       7B1     2.631988    16A1     3.003169

    Final Occupation by Irrep:
             A1    A2    B1    B2
    DOCC [     7,    0,    2,    3 ]
    SOCC [     0,    0,    1,    0 ]
    NA   [     7,    0,    3,    3 ]
    NB   [     7,    0,    2,    3 ]

  @DF-UKS Final Energy:  -535.31879828531464

   => Energetics <=

    Nuclear Repulsion Energy =             44.1183938391911923
    One-Electron Energy =                -825.9779980996357835
    Two-Electron Energy =                 276.1732150788750459
    DFT Exchange-Correlation Energy =     -29.6324091037450934
    Empirical Dispersion Energy =           0.0000000000000000
    VV10 Nonlocal Energy =                  0.0000000000000000
    Total Energy =                       -535.3187982853146423

  UHF NO Occupations:
  HONO-2 :    7 A1 1.9994797
  HONO-1 :    2 B1 1.9992785
  HONO-0 :    3 B1 1.0000000
  LUNO+0 :    4 B1 0.0007215
  LUNO+1 :    8 A1 0.0005203
  LUNO+2 :    9 A1 0.0002298
  LUNO+3 :    4 B2 0.0000559

Computation Completed

Properties will be evaluated at   0.000000,   0.000000,   0.000000 [a0]

Properties computed using the SCF density matrix

 Multipole Moments:

 ------------------------------------------------------------------------------------
     Multipole            Electronic (a.u.)      Nuclear  (a.u.)        Total (a.u.)
 ------------------------------------------------------------------------------------

 L = 1.  Multiply by 2.5417464519 to convert [e a0] to [Debye]
 Dipole X            :          0.0000000            0.0000000            0.0000000
 Dipole Y            :          0.0000000            0.0000000            0.0000000
 Dipole Z            :         -0.9844355            0.4740484           -0.5103872
 Magnitude           :                                                    0.5103872

 ------------------------------------------------------------------------------------

*** tstop() called on Joses-MacBook-Pro-2.local at Wed Jul 16 19:23:26 2025
Module time:
	user time   =       9.32 seconds =       0.16 minutes
	system time =       2.16 seconds =       0.04 minutes
	total time  =          2 seconds =       0.03 minutes
Total time:
	user time   =      73.63 seconds =       1.23 minutes
	system time =      60.52 seconds =       1.01 minutes
	total time  =         14 seconds =       0.23 minutes

*** tstart() called on Joses-MacBook-Pro-2.local
*** at Wed Jul 16 19:23:26 2025

         ------------------------------------------------------------
                                   SCF GRAD
                          Rob Parrish, Justin Turney,
                       Andy Simmonett, and Alex Sokolov
         ------------------------------------------------------------

  ==> Geometry <==

    Molecular point group: c2v
    Full point group: C_inf_v

    Geometry (in Angstrom), charge = 0, multiplicity = 2:

       Center              X                  Y                   Z               Mass
    ------------   -----------------  -----------------  -----------------  -----------------
         O            0.000000000000     0.000000000000     1.119283772275    15.994914619570
         CL           0.000000000000     0.000000000000    -0.511965563624    34.968852682000

  Nuclear repulsion =   44.118393839191192

  ==> Basis Set <==

  Basis Set: CC-PVDZ
    Blend: CC-PVDZ
    Number of shells: 14
    Number of basis functions: 32
    Number of Cartesian functions: 34
    Spherical Harmonics?: true
    Max angular momentum: 2

  ==> DFJKGrad: Density-Fitted SCF Gradients <==

    Gradient:                    1
    J tasked:                  Yes
    K tasked:                  Yes
    wK tasked:                  No
    OpenMP threads:              1
    Integrals threads:           1
    Memory [MiB]:              375
    Schwarz Cutoff:          1E-12
    Fitting Condition:       1E-10

   => Auxiliary Basis Set <=

  Basis Set: (CC-PVDZ AUX)
    Blend: CC-PVDZ-JKFIT
    Number of shells: 60
    Number of basis functions: 182
    Number of Cartesian functions: 211
    Spherical Harmonics?: true
    Max angular momentum: 3

  ==> DFT Potential <==

   => LibXC <=

    Version 6.2.2
    S. Lehtola, C. Steigemann, M. J.T. Oliveira, and M. A.L. Marques.,  SoftwareX 7, 1â€“5 (2018) (10.1016/j.softx.2017.11.002)

   => Composite Functional: B3LYP <=

    B3LYP Hyb-GGA Exchange-Correlation Functional

    P. J. Stephens, F. J. Devlin, C. F. Chabalowski, and M. J. Frisch.,  J. Phys. Chem. 98, 11623 (1994) (10.1021/j100096a001)

    Deriv               =              1
    GGA                 =           TRUE
    Meta                =          FALSE

    Exchange Hybrid     =           TRUE
    MP2 Hybrid          =          FALSE

   => Exchange Functionals <=

    0.0800   Slater exchange
    0.7200         Becke 88

   => Exact (HF) Exchange <=

    0.2000               HF

   => Correlation Functionals <=

    0.1900   Vosko, Wilk & Nusair (VWN5_RPA)
    0.8100   Lee, Yang & Parr

   => LibXC Density Thresholds  <==

    XC_HYB_GGA_XC_B3LYP:  1.00E-15

   => Molecular Quadrature <=

    Radial Scheme          =       TREUTLER
    Pruning Scheme         =           NONE
    Nuclear Scheme         =       TREUTLER

    Blocking Scheme        =         OCTREE
    BS radius alpha        =              1
    Pruning alpha          =              1
    Radial Points          =             75
    Spherical Points       =            302
    Total Points           =          41341
    Total Blocks           =            369
    Max Points             =            253
    Max Functions          =             32
    Weights Tolerance      =       1.00E-15

  -Total Gradient:
     Atom            X                  Y                   Z
    ------   -----------------  -----------------  -----------------
       1        0.000000000000    -0.000000000000    -0.000077867463
       2        0.000000000000     0.000000000000     0.000060976496

*** tstop() called on Joses-MacBook-Pro-2.local at Wed Jul 16 19:23:26 2025
Module time:
	user time   =       1.56 seconds =       0.03 minutes
	system time =       1.55 seconds =       0.03 minutes
	total time  =          0 seconds =       0.00 minutes
Total time:
	user time   =      75.20 seconds =       1.25 minutes
	system time =      62.07 seconds =       1.03 minutes
	total time  =         14 seconds =       0.23 minutes

    			-----------------------------------------

    			 OPTKING 3.0: for geometry optimizations

    			     By R.A. King, Bethel University

    			        with contributions from

    			    A.V. Copan, J. Cayton, A. Heide

    			-----------------------------------------

	                            ===> Fragment 1 <==

	 Z (Atomic Numbers)          Masses                          Geom
	       8.000000            15.994915          0.00000000  0.00000000  2.11513979
	      17.000000            34.968853          0.00000000  0.00000000 -0.96747470

	 - Coordinate -           - BOHR/RAD -       - ANG/DEG -
	 R(1,2)           =         3.082614           1.631249

	        --- Internal Coordinate Step in ANG or DEG, aJ/ANG or AJ/DEG ---
	-------------------------------------------------------------------------------
	           Coordinate      Previous         Force          Change          New
	           ----------      --------        ------          ------        ------
	               R(1,2)       1.63125        0.00057        0.00012       1.63137
	-------------------------------------------------------------------------------

	                                 ==> Convergence Check <==

	Measures of convergence in internal coordinates in au.

	Criteria marked as inactive (o), active & met (*), and active & unmet ( ).

	----------------------------------------------------------------------------------------------
	   Step    Total Energy     Delta E     Max Force     RMS Force      Max Disp      RMS Disp
	----------------------------------------------------------------------------------------------
	  Convergence Criteria     1.00e-06 *    3.00e-04 *             o    1.20e-03 *             o
	----------------------------------------------------------------------------------------------
	    11    -535.31879829   -3.99e-07 *    6.94e-05 *    6.94e-05 o    2.36e-04 *    2.36e-04 o  ~
	----------------------------------------------------------------------------------------------

Next Geometry in Ang
	Fragment 1 (Ang)

	    O   0.0000000000   0.0000000000   1.1193461894
	   Cl   0.0000000000   0.0000000000  -0.5120279807

    Final optimized geometry and variables:
    Molecular point group: c2v
    Full point group: C_inf_v

    Geometry (in Angstrom), charge = 0, multiplicity = 2:

    O            0.000000000000     0.000000000000     1.119283772275
    CL           0.000000000000     0.000000000000    -0.511965563624

    Psi4 stopped on: Wednesday, 16 July 2025 07:23PM
    Psi4 wall time for execution: 0:00:14.32

*** Psi4 exiting successfully. Buy a developer a beer!
