                               Psi4 1.9.1 release

  ==> Input File <==

--------------------------------------------------------------------------
molecule {
0 2
O   0.00000        0.60000        0.00000
P   0.00000       -0.60000        0.00000
}

set {
basis              cc-pvdz
reference          uks
maxiter            500
geom_maxiter       500
DAMPING_PERCENTAGE 1
guess              SAP
}

optimize('b3lyp')
--------------------------------------------------------------------------

    Molecular point group: c2v
  Charge       = 0
  Multiplicity = 2
  Basis Set: CC-PVDZ
    Blend: CC-PVDZ
  Basis Set: (CC-PVDZ AUX)
    Blend: CC-PVDZ-JKFIT
  @DF-UKS Final Energy:  -416.35671883357975
    Total Energy =                       -416.3567188335797482
 Dipole X            :          0.0000000            0.0000000            0.0000000
 Dipole Y            :          0.0000000            0.0000000            0.0000000
 Dipole Z            :         -0.7942861            0.3797926           -0.4144935
 Magnitude           :                                                    0.4144935
    Molecular point group: c2v
  Basis Set: CC-PVDZ
    Blend: CC-PVDZ
  Basis Set: (CC-PVDZ AUX)
    Blend: CC-PVDZ-JKFIT
  Basis Set: CC-PVDZ
    Blend: CC-PVDZ
  Basis Set: (CC-PVDZ AUX)
    Blend: CC-PVDZ-JKFIT
  @DF-UKS Final Energy:  -416.48361183237614
    Total Energy =                       -416.4836118323761411
  Basis Set: CC-PVDZ
    Blend: CC-PVDZ
  Basis Set: (CC-PVDZ AUX)
    Blend: CC-PVDZ-JKFIT
  Basis Set: CC-PVDZ
    Blend: CC-PVDZ
  @DF-UKS Final Energy:  -416.53244351254671
    Total Energy =                       -416.5324435125467062
  @DF-UKS Final Energy:  -416.54429034961311
    Total Energy =                       -416.5442903496131066
  @DF-UKS Final Energy:  -416.54775232158181
    Total Energy =                       -416.5477523215818678
  @DF-UKS Final Energy:  -416.54915889490513
    Total Energy =                       -416.5491588949051334
  @DF-UKS Final Energy:  -416.54942135756585
    Total Energy =                       -416.5494213575658478
  @DF-UKS Final Energy:  -416.54948153773825
    Total Energy =                       -416.5494815377382452
  Basis Set: (CC-PVDZ AUX)
    Blend: CC-PVDZ-JKFIT
  Basis Set: CC-PVDZ
    Blend: CC-PVDZ
  Basis Set: (CC-PVDZ AUX)
    Blend: CC-PVDZ-JKFIT
  @DF-UKS Final Energy:  -416.54948649970328
    Total Energy =                       -416.5494864997032778
  Basis Set: CC-PVDZ
    Blend: CC-PVDZ
  Basis Set: (CC-PVDZ AUX)
    Blend: CC-PVDZ-JKFIT
  Charge       = 0
  Multiplicity = 2
  Basis Set: CC-PVDZ
    Blend: CC-PVDZ
  Basis Set: (CC-PVDZ AUX)
    Blend: CC-PVDZ-JKFIT

    Orbital Energies [Eh]
    ---------------------

    Alpha Occupied:

       1A1   -77.152574     2A1   -19.177097     3A1    -6.620034
       1B2    -4.784001     1B1    -4.780487     4A1    -4.779138
       5A1    -1.015580     6A1    -0.557715     2B1    -0.396985
       7A1    -0.382958     2B2    -0.380759     3B1    -0.194924

    Alpha Virtual:

       3B2    -0.122441     8A1     0.046254     9A1     0.334641
       4B1     0.387771     4B2     0.389512     1A2     0.430504
      10A1     0.433242    11A1     0.449429     5B1     0.519511
       5B2     0.525257    12A1     0.743874     6B1     0.986400
       6B2     0.990749    13A1     1.062559    14A1     1.670585
       2A2     2.569657    15A1     2.570373     7B2     2.713462
       7B1     2.714074    16A1     3.161450

    Beta Occupied:

       1A1   -77.149478     2A1   -19.169129     3A1    -6.616757
       1B2    -4.782202     4A1    -4.777475     1B1    -4.769490
       5A1    -0.999256     6A1    -0.530565     2B2    -0.374196
       7A1    -0.367181     2B1    -0.349185

    Beta Virtual:

       3B2    -0.112212     3B1    -0.079848     8A1     0.056712
       9A1     0.347176     4B2     0.393692     4B1     0.415930
      10A1     0.452782     1A2     0.467844    11A1     0.470082
       5B2     0.529111     5B1     0.557517    12A1     0.753374
       6B2     0.994716     6B1     1.011868    13A1     1.071331
      14A1     1.679299    15A1     2.592932     2A2     2.593019
       7B2     2.717098     7B1     2.737561    16A1     3.173109

    Final Occupation by Irrep:
             A1    A2    B1    B2
    DOCC [     7,    0,    2,    2 ]
    SOCC [     0,    0,    1,    0 ]
    NA   [     7,    0,    3,    2 ]
    NB   [     7,    0,    2,    2 ]

  @DF-UKS Final Energy:  -416.54948664948733

   => Energetics <=

    Nuclear Repulsion Energy =             41.9622120950041833
    One-Electron Energy =                -658.6217702392998490
    Two-Electron Energy =                 225.7463436887498460
    DFT Exchange-Correlation Energy =     -25.6362721939414762
    Empirical Dispersion Energy =           0.0000000000000000
    VV10 Nonlocal Energy =                  0.0000000000000000
    Total Energy =                       -416.5494866494873349

  UHF NO Occupations:
  HONO-2 :    2 B1 1.9994422
  HONO-1 :    7 A1 1.9991254
  HONO-0 :    3 B1 1.0000000
  LUNO+0 :    8 A1 0.0008746
  LUNO+1 :    4 B1 0.0005578
  LUNO+2 :    9 A1 0.0000465
  LUNO+3 :    3 B2 0.0000179

Computation Completed

Properties will be evaluated at   0.000000,   0.000000,   0.000000 [a0]

Properties computed using the SCF density matrix

 Multipole Moments:

 ------------------------------------------------------------------------------------
     Multipole            Electronic (a.u.)      Nuclear  (a.u.)        Total (a.u.)
 ------------------------------------------------------------------------------------

 L = 1.  Multiply by 2.5417464519 to convert [e a0] to [Debye]
 Dipole X            :          0.0000000            0.0000000            0.0000000
 Dipole Y            :          0.0000000            0.0000000            0.0000000
 Dipole Z            :         -1.2735744            0.4789490           -0.7946253
 Magnitude           :                                                    0.7946253

 ------------------------------------------------------------------------------------

*** tstop() called on Joses-MacBook-Pro-2.local at Wed Jul 16 19:21:58 2025
Module time:
	user time   =       3.17 seconds =       0.05 minutes
	system time =       3.07 seconds =       0.05 minutes
	total time  =          0 seconds =       0.00 minutes
Total time:
	user time   =      46.80 seconds =       0.78 minutes
	system time =      54.30 seconds =       0.90 minutes
	total time  =          9 seconds =       0.15 minutes

*** tstart() called on Joses-MacBook-Pro-2.local
*** at Wed Jul 16 19:21:58 2025

         ------------------------------------------------------------
                                   SCF GRAD
                          Rob Parrish, Justin Turney,
                       Andy Simmonett, and Alex Sokolov
         ------------------------------------------------------------

  ==> Geometry <==

    Molecular point group: c2v
    Full point group: C_inf_v

    Geometry (in Angstrom), charge = 0, multiplicity = 2:

       Center              X                  Y                   Z               Mass
    ------------   -----------------  -----------------  -----------------  -----------------
         O            0.000000000000     0.000000000000     0.997951964548    15.994914619570
         P            0.000000000000     0.000000000000    -0.515344454064    30.973761998420

  Nuclear repulsion =   41.962212095004183

  ==> Basis Set <==

  Basis Set: CC-PVDZ
    Blend: CC-PVDZ
    Number of shells: 14
    Number of basis functions: 32
    Number of Cartesian functions: 34
    Spherical Harmonics?: true
    Max angular momentum: 2

  ==> DFJKGrad: Density-Fitted SCF Gradients <==

    Gradient:                    1
    J tasked:                  Yes
    K tasked:                  Yes
    wK tasked:                  No
    OpenMP threads:              1
    Integrals threads:           1
    Memory [MiB]:              375
    Schwarz Cutoff:          1E-12
    Fitting Condition:       1E-10

   => Auxiliary Basis Set <=

  Basis Set: (CC-PVDZ AUX)
    Blend: CC-PVDZ-JKFIT
    Number of shells: 60
    Number of basis functions: 182
    Number of Cartesian functions: 211
    Spherical Harmonics?: true
    Max angular momentum: 3

  ==> DFT Potential <==

   => LibXC <=

    Version 6.2.2
    S. Lehtola, C. Steigemann, M. J.T. Oliveira, and M. A.L. Marques.,  SoftwareX 7, 1â€“5 (2018) (10.1016/j.softx.2017.11.002)

   => Composite Functional: B3LYP <=

    B3LYP Hyb-GGA Exchange-Correlation Functional

    P. J. Stephens, F. J. Devlin, C. F. Chabalowski, and M. J. Frisch.,  J. Phys. Chem. 98, 11623 (1994) (10.1021/j100096a001)

    Deriv               =              1
    GGA                 =           TRUE
    Meta                =          FALSE

    Exchange Hybrid     =           TRUE
    MP2 Hybrid          =          FALSE

   => Exchange Functionals <=

    0.0800   Slater exchange
    0.7200         Becke 88

   => Exact (HF) Exchange <=

    0.2000               HF

   => Correlation Functionals <=

    0.1900   Vosko, Wilk & Nusair (VWN5_RPA)
    0.8100   Lee, Yang & Parr

   => LibXC Density Thresholds  <==

    XC_HYB_GGA_XC_B3LYP:  1.00E-15

   => Molecular Quadrature <=

    Radial Scheme          =       TREUTLER
    Pruning Scheme         =           NONE
    Nuclear Scheme         =       TREUTLER

    Blocking Scheme        =         OCTREE
    BS radius alpha        =              1
    Pruning alpha          =              1
    Radial Points          =             75
    Spherical Points       =            302
    Total Points           =          42202
    Total Blocks           =            381
    Max Points             =            255
    Max Functions          =             32
    Weights Tolerance      =       1.00E-15

  -Total Gradient:
     Atom            X                  Y                   Z
    ------   -----------------  -----------------  -----------------
       1       -0.000000000000     0.000000000000    -0.000056084715
       2        0.000000000000    -0.000000000000     0.000033365971

*** tstop() called on Joses-MacBook-Pro-2.local at Wed Jul 16 19:21:59 2025
Module time:
	user time   =       1.06 seconds =       0.02 minutes
	system time =       1.38 seconds =       0.02 minutes
	total time  =          1 seconds =       0.02 minutes
Total time:
	user time   =      47.87 seconds =       0.80 minutes
	system time =      55.68 seconds =       0.93 minutes
	total time  =         10 seconds =       0.17 minutes

    			-----------------------------------------

    			 OPTKING 3.0: for geometry optimizations

    			     By R.A. King, Bethel University

    			        with contributions from

    			    A.V. Copan, J. Cayton, A. Heide

    			-----------------------------------------

	                            ===> Fragment 1 <==

	 Z (Atomic Numbers)          Masses                          Geom
	       8.000000            15.994915          0.00000000  0.00000000  1.88585590
	      15.000000            30.973762          0.00000000  0.00000000 -0.97385988

	 - Coordinate -           - BOHR/RAD -       - ANG/DEG -
	 R(1,2)           =         2.859716           1.513296

	        --- Internal Coordinate Step in ANG or DEG, aJ/ANG or AJ/DEG ---
	-------------------------------------------------------------------------------
	           Coordinate      Previous         Force          Change          New
	           ----------      --------        ------          ------        ------
	               R(1,2)       1.51330        0.00037        0.00004       1.51334
	-------------------------------------------------------------------------------

	                                 ==> Convergence Check <==

	Measures of convergence in internal coordinates in au.

	Criteria marked as inactive (o), active & met (*), and active & unmet ( ).

	----------------------------------------------------------------------------------------------
	   Step    Total Energy     Delta E     Max Force     RMS Force      Max Disp      RMS Disp
	----------------------------------------------------------------------------------------------
	  Convergence Criteria     1.00e-06 *    3.00e-04 *             o    1.20e-03 *             o
	----------------------------------------------------------------------------------------------
	    10    -416.54948665   -1.50e-07 *    4.47e-05 *    4.47e-05 o    7.39e-05 *    7.39e-05 o  ~
	----------------------------------------------------------------------------------------------

Next Geometry in Ang
	Fragment 1 (Ang)

	    O   0.0000000000   0.0000000000   0.9979715183
	    P   0.0000000000   0.0000000000  -0.5153640078

    Final optimized geometry and variables:
    Molecular point group: c2v
    Full point group: C_inf_v

    Geometry (in Angstrom), charge = 0, multiplicity = 2:

    O            0.000000000000     0.000000000000     0.997951964548
    P            0.000000000000     0.000000000000    -0.515344454064

    Psi4 stopped on: Wednesday, 16 July 2025 07:21PM
    Psi4 wall time for execution: 0:00:10.43

*** Psi4 exiting successfully. Buy a developer a beer!
