                               Psi4 1.9.1 release

  ==> Input File <==

--------------------------------------------------------------------------
molecule {
0 2
F   0.00000        0.60000        0.00000
S   0.00000       -0.60000        0.00000
}

set {
basis              cc-pvdz
reference          uks
maxiter            500
geom_maxiter       500
DAMPING_PERCENTAGE 1
guess              SAP
}

optimize('b3lyp')
--------------------------------------------------------------------------

    Molecular point group: c2v
  Charge       = 0
  Multiplicity = 2
  Basis Set: CC-PVDZ
    Blend: CC-PVDZ
  Basis Set: (CC-PVDZ AUX)
    Blend: CC-PVDZ-JKFIT
  @DF-UKS Final Energy:  -497.70244172166741
    Total Energy =                       -497.7024417216674124
 Dipole X            :          0.0000000            0.0000000            0.0000000
 Dipole Y            :          0.0000000            0.0000000            0.0000000
 Dipole Z            :          1.1824524           -0.7218847            0.4605677
 Magnitude           :                                                    0.4605677
    Molecular point group: c2v
  Basis Set: CC-PVDZ
    Blend: CC-PVDZ
  Basis Set: (CC-PVDZ AUX)
    Blend: CC-PVDZ-JKFIT
  Basis Set: CC-PVDZ
    Blend: CC-PVDZ
  Basis Set: (CC-PVDZ AUX)
    Blend: CC-PVDZ-JKFIT
  @DF-UKS Final Energy:  -497.86226161835833
    Total Energy =                       -497.8622616183583318
  Basis Set: CC-PVDZ
    Blend: CC-PVDZ
  Basis Set: (CC-PVDZ AUX)
    Blend: CC-PVDZ-JKFIT
  Basis Set: CC-PVDZ
    Blend: CC-PVDZ
  @DF-UKS Final Energy:  -497.93641152279730
    Total Energy =                       -497.9364115227973002
  @DF-UKS Final Energy:  -497.95925959384550
    Total Energy =                       -497.9592595938455020
  @DF-UKS Final Energy:  -497.97033862789499
    Total Energy =                       -497.9703386278949893
  @DF-UKS Final Energy:  -497.97344867957707
    Total Energy =                       -497.9734486795770749
  @DF-UKS Final Energy:  -497.97468623888233
    Total Energy =                       -497.9746862388823274
  @DF-UKS Final Energy:  -497.97491510667521
    Total Energy =                       -497.9749151066752120
  @DF-UKS Final Energy:  -497.97496559304466
    Total Energy =                       -497.9749655930446579
  Basis Set: (CC-PVDZ AUX)
    Blend: CC-PVDZ-JKFIT
  Basis Set: CC-PVDZ
    Blend: CC-PVDZ
  Basis Set: (CC-PVDZ AUX)
    Blend: CC-PVDZ-JKFIT
  @DF-UKS Final Energy:  -497.97497140586682
    Total Energy =                       -497.9749714058668246
  Basis Set: CC-PVDZ
    Blend: CC-PVDZ
  Basis Set: (CC-PVDZ AUX)
    Blend: CC-PVDZ-JKFIT
  Charge       = 0
  Multiplicity = 2
  Basis Set: CC-PVDZ
    Blend: CC-PVDZ
  Basis Set: (CC-PVDZ AUX)
    Blend: CC-PVDZ-JKFIT

    Orbital Energies [Eh]
    ---------------------

    Alpha Occupied:

       1A1   -88.966496     2A1   -24.733599     3A1    -8.022263
       1B2    -5.990029     4A1    -5.989043     1B1    -5.971257
       5A1    -1.223529     6A1    -0.726316     7A1    -0.490238
       2B2    -0.478767     2B1    -0.460412     3B2    -0.306716
       3B1    -0.264971

    Alpha Virtual:

       8A1    -0.066152     9A1     0.431095     4B2     0.441435
      10A1     0.453832     4B1     0.469985     5B2     0.540547
      11A1     0.543911     1A2     0.544230     5B1     0.575334
      12A1     0.761290     6B2     1.197060     6B1     1.209361
      13A1     1.226086    14A1     2.068530    15A1     3.532312
       2A2     3.532368     7B2     3.551126     7B1     3.562814
      16A1     3.783716

    Beta Occupied:

       1A1   -88.961326     2A1   -24.729109     3A1    -8.016976
       4A1    -5.986067     1B2    -5.972651     1B1    -5.968132
       5A1    -1.213343     6A1    -0.691574     7A1    -0.476180
       2B1    -0.455762     2B2    -0.444446     3B1    -0.252821

    Beta Virtual:

       3B2    -0.173563     8A1    -0.051776     9A1     0.442560
      10A1     0.463777     4B1     0.476212     4B2     0.480615
       5B1     0.581123     5B2     0.588146     1A2     0.591248
      11A1     0.595455    12A1     0.778130     6B1     1.211556
       6B2     1.212363    13A1     1.229053    14A1     2.073758
       2A2     3.544698    15A1     3.544909     7B2     3.563626
       7B1     3.564393    16A1     3.789768

    Final Occupation by Irrep:
             A1    A2    B1    B2
    DOCC [     7,    0,    3,    2 ]
    SOCC [     0,    0,    0,    1 ]
    NA   [     7,    0,    3,    3 ]
    NB   [     7,    0,    3,    2 ]

  @DF-UKS Final Energy:  -497.97497160077813

   => Energetics <=

    Nuclear Repulsion Energy =             46.2171440557317723
    One-Electron Energy =                -780.8326922491130517
    Two-Electron Energy =                 265.7594730235766178
    DFT Exchange-Correlation Energy =     -29.1188964309734715
    Empirical Dispersion Energy =           0.0000000000000000
    VV10 Nonlocal Energy =                  0.0000000000000000
    Total Energy =                       -497.9749716007781331

  UHF NO Occupations:
  HONO-2 :    2 B2 1.9998362
  HONO-1 :    7 A1 1.9989788
  HONO-0 :    3 B2 1.0000000
  LUNO+0 :    8 A1 0.0010212
  LUNO+1 :    4 B2 0.0001638
  LUNO+2 :    9 A1 0.0000356
  LUNO+3 :    4 B1 0.0000222

Computation Completed

Properties will be evaluated at   0.000000,   0.000000,   0.000000 [a0]

Properties computed using the SCF density matrix

 Multipole Moments:

 ------------------------------------------------------------------------------------
     Multipole            Electronic (a.u.)      Nuclear  (a.u.)        Total (a.u.)
 ------------------------------------------------------------------------------------

 L = 1.  Multiply by 2.5417464519 to convert [e a0] to [Debye]
 Dipole X            :          0.0000000            0.0000000            0.0000000
 Dipole Y            :          0.0000000            0.0000000            0.0000000
 Dipole Z            :          0.5507642           -0.9918525           -0.4410883
 Magnitude           :                                                    0.4410883

 ------------------------------------------------------------------------------------

*** tstop() called on Joses-MacBook-Pro-2.local at Wed Jul 16 19:29:56 2025
Module time:
	user time   =       3.85 seconds =       0.06 minutes
	system time =       2.83 seconds =       0.05 minutes
	total time  =          1 seconds =       0.02 minutes
Total time:
	user time   =      53.99 seconds =       0.90 minutes
	system time =      56.24 seconds =       0.94 minutes
	total time  =         10 seconds =       0.17 minutes

*** tstart() called on Joses-MacBook-Pro-2.local
*** at Wed Jul 16 19:29:56 2025

         ------------------------------------------------------------
                                   SCF GRAD
                          Rob Parrish, Justin Turney,
                       Andy Simmonett, and Alex Sokolov
         ------------------------------------------------------------

  ==> Geometry <==

    Molecular point group: c2v
    Full point group: C_inf_v

    Geometry (in Angstrom), charge = 0, multiplicity = 2:

       Center              X                  Y                   Z               Mass
    ------------   -----------------  -----------------  -----------------  -----------------
         F            0.000000000000     0.000000000000     1.034219246514    18.998403162730
         S            0.000000000000     0.000000000000    -0.614552435366    31.972071174400

  Nuclear repulsion =   46.217144055731772

  ==> Basis Set <==

  Basis Set: CC-PVDZ
    Blend: CC-PVDZ
    Number of shells: 14
    Number of basis functions: 32
    Number of Cartesian functions: 34
    Spherical Harmonics?: true
    Max angular momentum: 2

  ==> DFJKGrad: Density-Fitted SCF Gradients <==

    Gradient:                    1
    J tasked:                  Yes
    K tasked:                  Yes
    wK tasked:                  No
    OpenMP threads:              1
    Integrals threads:           1
    Memory [MiB]:              375
    Schwarz Cutoff:          1E-12
    Fitting Condition:       1E-10

   => Auxiliary Basis Set <=

  Basis Set: (CC-PVDZ AUX)
    Blend: CC-PVDZ-JKFIT
    Number of shells: 60
    Number of basis functions: 182
    Number of Cartesian functions: 211
    Spherical Harmonics?: true
    Max angular momentum: 3

  ==> DFT Potential <==

   => LibXC <=

    Version 6.2.2
    S. Lehtola, C. Steigemann, M. J.T. Oliveira, and M. A.L. Marques.,  SoftwareX 7, 1â€“5 (2018) (10.1016/j.softx.2017.11.002)

   => Composite Functional: B3LYP <=

    B3LYP Hyb-GGA Exchange-Correlation Functional

    P. J. Stephens, F. J. Devlin, C. F. Chabalowski, and M. J. Frisch.,  J. Phys. Chem. 98, 11623 (1994) (10.1021/j100096a001)

    Deriv               =              1
    GGA                 =           TRUE
    Meta                =          FALSE

    Exchange Hybrid     =           TRUE
    MP2 Hybrid          =          FALSE

   => Exchange Functionals <=

    0.0800   Slater exchange
    0.7200         Becke 88

   => Exact (HF) Exchange <=

    0.2000               HF

   => Correlation Functionals <=

    0.1900   Vosko, Wilk & Nusair (VWN5_RPA)
    0.8100   Lee, Yang & Parr

   => LibXC Density Thresholds  <==

    XC_HYB_GGA_XC_B3LYP:  1.00E-15

   => Molecular Quadrature <=

    Radial Scheme          =       TREUTLER
    Pruning Scheme         =           NONE
    Nuclear Scheme         =       TREUTLER

    Blocking Scheme        =         OCTREE
    BS radius alpha        =              1
    Pruning alpha          =              1
    Radial Points          =             75
    Spherical Points       =            302
    Total Points           =          42131
    Total Blocks           =            378
    Max Points             =            256
    Max Functions          =             32
    Weights Tolerance      =       1.00E-15

  -Total Gradient:
     Atom            X                  Y                   Z
    ------   -----------------  -----------------  -----------------
       1        0.000000000000     0.000000000000    -0.000088192629
       2       -0.000000000000    -0.000000000000     0.000017509817

*** tstop() called on Joses-MacBook-Pro-2.local at Wed Jul 16 19:29:56 2025
Module time:
	user time   =       0.75 seconds =       0.01 minutes
	system time =       1.69 seconds =       0.03 minutes
	total time  =          0 seconds =       0.00 minutes
Total time:
	user time   =      54.74 seconds =       0.91 minutes
	system time =      57.93 seconds =       0.97 minutes
	total time  =         10 seconds =       0.17 minutes

    			-----------------------------------------

    			 OPTKING 3.0: for geometry optimizations

    			     By R.A. King, Bethel University

    			        with contributions from

    			    A.V. Copan, J. Cayton, A. Heide

    			-----------------------------------------

	                            ===> Fragment 1 <==

	 Z (Atomic Numbers)          Masses                          Geom
	       9.000000            18.998403          0.00000000  0.00000000  1.95439113
	      16.000000            31.972071          0.00000000  0.00000000 -1.16133579

	 - Coordinate -           - BOHR/RAD -       - ANG/DEG -
	 R(1,2)           =         3.115727           1.648772

	        --- Internal Coordinate Step in ANG or DEG, aJ/ANG or AJ/DEG ---
	-------------------------------------------------------------------------------
	           Coordinate      Previous         Force          Change          New
	           ----------      --------        ------          ------        ------
	               R(1,2)       1.64877        0.00044        0.00009       1.64886
	-------------------------------------------------------------------------------

	                                 ==> Convergence Check <==

	Measures of convergence in internal coordinates in au.

	Criteria marked as inactive (o), active & met (*), and active & unmet ( ).

	----------------------------------------------------------------------------------------------
	   Step    Total Energy     Delta E     Max Force     RMS Force      Max Disp      RMS Disp
	----------------------------------------------------------------------------------------------
	  Convergence Criteria     1.00e-06 *    3.00e-04 *             o    1.20e-03 *             o
	----------------------------------------------------------------------------------------------
	    11    -497.97497160   -1.95e-07 *    5.29e-05 *    5.29e-05 o    1.65e-04 *    1.65e-04 o  ~
	----------------------------------------------------------------------------------------------

Next Geometry in Ang
	Fragment 1 (Ang)

	    F   0.0000000000   0.0000000000   1.0342629473
	    S   0.0000000000   0.0000000000  -0.6145961361

    Final optimized geometry and variables:
    Molecular point group: c2v
    Full point group: C_inf_v

    Geometry (in Angstrom), charge = 0, multiplicity = 2:

    F            0.000000000000     0.000000000000     1.034219246514
    S            0.000000000000     0.000000000000    -0.614552435366

    Psi4 stopped on: Wednesday, 16 July 2025 07:29PM
    Psi4 wall time for execution: 0:00:11.33

*** Psi4 exiting successfully. Buy a developer a beer!
