                               Psi4 1.9.1 release

  ==> Input File <==

--------------------------------------------------------------------------
molecule {
0 2
C   0.00000        0.60000        0.00000
Cl   0.00000       -0.60000        0.00000
}

set {
basis              cc-pvdz
reference          uks
maxiter            500
geom_maxiter       500
DAMPING_PERCENTAGE 1
guess              SAP
}

optimize('b3lyp')
--------------------------------------------------------------------------

    Molecular point group: c2v
  Charge       = 0
  Multiplicity = 2
  Basis Set: CC-PVDZ
    Blend: CC-PVDZ
  Basis Set: (CC-PVDZ AUX)
    Blend: CC-PVDZ-JKFIT
  @DF-UKS Final Energy:  -497.86027931765358
    Total Energy =                       -497.8602793176535783
 Dipole X            :          0.0000000            0.0000000            0.0000000
 Dipole Y            :          0.0000000            0.0000000            0.0000000
 Dipole Z            :         -1.6038374            0.2806591           -1.3231783
 Magnitude           :                                                    1.3231783
    Molecular point group: c2v
  Basis Set: CC-PVDZ
    Blend: CC-PVDZ
  Basis Set: (CC-PVDZ AUX)
    Blend: CC-PVDZ-JKFIT
  Basis Set: CC-PVDZ
    Blend: CC-PVDZ
  Basis Set: (CC-PVDZ AUX)
    Blend: CC-PVDZ-JKFIT
  @DF-UKS Final Energy:  -498.03723314048420
    Total Energy =                       -498.0372331404842043
  Basis Set: CC-PVDZ
    Blend: CC-PVDZ
  Basis Set: (CC-PVDZ AUX)
    Blend: CC-PVDZ-JKFIT
  Basis Set: CC-PVDZ
    Blend: CC-PVDZ
  @DF-UKS Final Energy:  -498.11420055156441
    Total Energy =                       -498.1142005515644087
  @DF-UKS Final Energy:  -498.13933747788957
    Total Energy =                       -498.1393374778895691
  @DF-UKS Final Energy:  -498.15282682865728
    Total Energy =                       -498.1528268286572825
  @DF-UKS Final Energy:  -498.15707582689487
    Total Energy =                       -498.1570758268948680
  @DF-UKS Final Energy:  -498.15904342220983
    Total Energy =                       -498.1590434222098338
  @DF-UKS Final Energy:  -498.15950451387954
    Total Energy =                       -498.1595045138795399
  @DF-UKS Final Energy:  -498.15963886508416
    Total Energy =                       -498.1596388650842187
  Basis Set: (CC-PVDZ AUX)
    Blend: CC-PVDZ-JKFIT
  Basis Set: CC-PVDZ
    Blend: CC-PVDZ
  Basis Set: (CC-PVDZ AUX)
    Blend: CC-PVDZ-JKFIT
  @DF-UKS Final Energy:  -498.15966263641172
    Total Energy =                       -498.1596626364117242
  Basis Set: CC-PVDZ
    Blend: CC-PVDZ
  Basis Set: (CC-PVDZ AUX)
    Blend: CC-PVDZ-JKFIT
  Charge       = 0
  Multiplicity = 2
  Basis Set: CC-PVDZ
    Blend: CC-PVDZ
  Basis Set: (CC-PVDZ AUX)
    Blend: CC-PVDZ-JKFIT

    Orbital Energies [Eh]
    ---------------------

    Alpha Occupied:

       1A1  -101.601474     2A1   -10.305434     3A1    -9.520261
       4A1    -7.279684     1B2    -7.275801     1B1    -7.273684
       5A1    -0.917917     6A1    -0.605563     2B1    -0.408549
       2B2    -0.399989     7A1    -0.359738     3B1    -0.223289

    Alpha Virtual:

       3B2    -0.126535     8A1     0.051636     9A1     0.406172
       4B1     0.456665     4B2     0.472863    10A1     0.483841
       5B1     0.529580     5B2     0.531593    11A1     0.538422
       6B1     0.653040     6B2     0.653795     1A2     0.668060
      12A1     0.668375    13A1     0.832975    14A1     1.105098
       2A2     1.129899    15A1     1.136644     7B1     1.368344
       7B2     1.374582    16A1     1.755294

    Beta Occupied:

       1A1  -101.600805     2A1   -10.291240     3A1    -9.519612
       4A1    -7.279591     1B2    -7.275785     1B1    -7.270864
       5A1    -0.908543     6A1    -0.575153     2B2    -0.398052
       2B1    -0.382187     7A1    -0.336329

    Beta Virtual:

       3B2    -0.110108     3B1    -0.067953     8A1     0.065260
       9A1     0.411320     4B2     0.480006    10A1     0.488542
       4B1     0.501920     5B2     0.534523    11A1     0.552612
       5B1     0.554092     6B2     0.654915     6B1     0.671721
       1A2     0.674792    12A1     0.674850    13A1     0.849588
      14A1     1.112952     2A2     1.188486    15A1     1.189354
       7B2     1.380622     7B1     1.413026    16A1     1.773638

    Final Occupation by Irrep:
             A1    A2    B1    B2
    DOCC [     7,    0,    2,    2 ]
    SOCC [     0,    0,    1,    0 ]
    NA   [     7,    0,    3,    2 ]
    NB   [     7,    0,    2,    2 ]

  @DF-UKS Final Energy:  -498.15966444082358

   => Energetics <=

    Nuclear Repulsion Energy =             31.9455266956745341
    One-Electron Energy =                -748.9571384109119663
    Two-Electron Energy =                 245.8708804227663904
    DFT Exchange-Correlation Energy =     -27.0189331483525450
    Empirical Dispersion Energy =           0.0000000000000000
    VV10 Nonlocal Energy =                  0.0000000000000000
    Total Energy =                       -498.1596644408235761

  UHF NO Occupations:
  HONO-2 :    2 B2 1.9996379
  HONO-1 :    7 A1 1.9989525
  HONO-0 :    3 B1 1.0000000
  LUNO+0 :    8 A1 0.0010475
  LUNO+1 :    3 B2 0.0003621
  LUNO+2 :    4 B1 0.0003362
  LUNO+3 :    9 A1 0.0000690

Computation Completed

Properties will be evaluated at   0.000000,   0.000000,   0.000000 [a0]

Properties computed using the SCF density matrix

 Multipole Moments:

 ------------------------------------------------------------------------------------
     Multipole            Electronic (a.u.)      Nuclear  (a.u.)        Total (a.u.)
 ------------------------------------------------------------------------------------

 L = 1.  Multiply by 2.5417464519 to convert [e a0] to [Debye]
 Dipole X            :          0.0000000            0.0000000            0.0000000
 Dipole Y            :          0.0000000            0.0000000            0.0000000
 Dipole Z            :         -0.8852056            0.3951747           -0.4900309
 Magnitude           :                                                    0.4900309

 ------------------------------------------------------------------------------------

*** tstop() called on Joses-MacBook-Pro-2.local at Wed Jul 16 19:05:44 2025
Module time:
	user time   =       4.55 seconds =       0.08 minutes
	system time =       2.75 seconds =       0.05 minutes
	total time  =          1 seconds =       0.02 minutes
Total time:
	user time   =      54.66 seconds =       0.91 minutes
	system time =      58.62 seconds =       0.98 minutes
	total time  =         11 seconds =       0.18 minutes

*** tstart() called on Joses-MacBook-Pro-2.local
*** at Wed Jul 16 19:05:44 2025

         ------------------------------------------------------------
                                   SCF GRAD
                          Rob Parrish, Justin Turney,
                       Andy Simmonett, and Alex Sokolov
         ------------------------------------------------------------

  ==> Geometry <==

    Molecular point group: c2v
    Full point group: C_inf_v

    Geometry (in Angstrom), charge = 0, multiplicity = 2:

       Center              X                  Y                   Z               Mass
    ------------   -----------------  -----------------  -----------------  -----------------
         C            0.000000000000     0.000000000000     1.257947983878    12.000000000000
         CL           0.000000000000     0.000000000000    -0.431680614283    34.968852682000

  Nuclear repulsion =   31.945526695674534

  ==> Basis Set <==

  Basis Set: CC-PVDZ
    Blend: CC-PVDZ
    Number of shells: 14
    Number of basis functions: 32
    Number of Cartesian functions: 34
    Spherical Harmonics?: true
    Max angular momentum: 2

  ==> DFJKGrad: Density-Fitted SCF Gradients <==

    Gradient:                    1
    J tasked:                  Yes
    K tasked:                  Yes
    wK tasked:                  No
    OpenMP threads:              1
    Integrals threads:           1
    Memory [MiB]:              375
    Schwarz Cutoff:          1E-12
    Fitting Condition:       1E-10

   => Auxiliary Basis Set <=

  Basis Set: (CC-PVDZ AUX)
    Blend: CC-PVDZ-JKFIT
    Number of shells: 60
    Number of basis functions: 182
    Number of Cartesian functions: 211
    Spherical Harmonics?: true
    Max angular momentum: 3

  ==> DFT Potential <==

   => LibXC <=

    Version 6.2.2
    S. Lehtola, C. Steigemann, M. J.T. Oliveira, and M. A.L. Marques.,  SoftwareX 7, 1â€“5 (2018) (10.1016/j.softx.2017.11.002)

   => Composite Functional: B3LYP <=

    B3LYP Hyb-GGA Exchange-Correlation Functional

    P. J. Stephens, F. J. Devlin, C. F. Chabalowski, and M. J. Frisch.,  J. Phys. Chem. 98, 11623 (1994) (10.1021/j100096a001)

    Deriv               =              1
    GGA                 =           TRUE
    Meta                =          FALSE

    Exchange Hybrid     =           TRUE
    MP2 Hybrid          =          FALSE

   => Exchange Functionals <=

    0.0800   Slater exchange
    0.7200         Becke 88

   => Exact (HF) Exchange <=

    0.2000               HF

   => Correlation Functionals <=

    0.1900   Vosko, Wilk & Nusair (VWN5_RPA)
    0.8100   Lee, Yang & Parr

   => LibXC Density Thresholds  <==

    XC_HYB_GGA_XC_B3LYP:  1.00E-15

   => Molecular Quadrature <=

    Radial Scheme          =       TREUTLER
    Pruning Scheme         =           NONE
    Nuclear Scheme         =       TREUTLER

    Blocking Scheme        =         OCTREE
    BS radius alpha        =              1
    Pruning alpha          =              1
    Radial Points          =             75
    Spherical Points       =            302
    Total Points           =          41114
    Total Blocks           =            365
    Max Points             =            256
    Max Functions          =             32
    Weights Tolerance      =       1.00E-15

  -Total Gradient:
     Atom            X                  Y                   Z
    ------   -----------------  -----------------  -----------------
       1        0.000000000000     0.000000000000    -0.000181695612
       2        0.000000000000    -0.000000000000     0.000168295819

*** tstop() called on Joses-MacBook-Pro-2.local at Wed Jul 16 19:05:44 2025
Module time:
	user time   =       0.91 seconds =       0.02 minutes
	system time =       1.53 seconds =       0.03 minutes
	total time  =          0 seconds =       0.00 minutes
Total time:
	user time   =      55.58 seconds =       0.93 minutes
	system time =      60.15 seconds =       1.00 minutes
	total time  =         11 seconds =       0.18 minutes

    			-----------------------------------------

    			 OPTKING 3.0: for geometry optimizations

    			     By R.A. King, Bethel University

    			        with contributions from

    			    A.V. Copan, J. Cayton, A. Heide

    			-----------------------------------------

	                            ===> Fragment 1 <==

	 Z (Atomic Numbers)          Masses                          Geom
	       6.000000            12.000000          0.00000000  0.00000000  2.37717717
	      17.000000            34.968853          0.00000000  0.00000000 -0.81575813

	 - Coordinate -           - BOHR/RAD -       - ANG/DEG -
	 R(1,2)           =         3.192935           1.689629

	        --- Internal Coordinate Step in ANG or DEG, aJ/ANG or AJ/DEG ---
	-------------------------------------------------------------------------------
	           Coordinate      Previous         Force          Change          New
	           ----------      --------        ------          ------        ------
	               R(1,2)       1.68963        0.00144        0.00035       1.68998
	-------------------------------------------------------------------------------

	                                 ==> Convergence Check <==

	Measures of convergence in internal coordinates in au.

	Criteria marked as inactive (o), active & met (*), and active & unmet ( ).

	----------------------------------------------------------------------------------------------
	   Step    Total Energy     Delta E     Max Force     RMS Force      Max Disp      RMS Disp
	----------------------------------------------------------------------------------------------
	  Convergence Criteria     1.00e-06 *    3.00e-04 *             o    1.20e-03 *             o
	----------------------------------------------------------------------------------------------
	    11    -498.15966444   -1.80e-06      1.75e-04 *    1.75e-04 o    6.56e-04 *    6.56e-04 o  ~
	----------------------------------------------------------------------------------------------

Next Geometry in Ang
	Fragment 1 (Ang)

	    C   0.0000000000   0.0000000000   1.2581215285
	   Cl   0.0000000000   0.0000000000  -0.4318541589

    Final optimized geometry and variables:
    Molecular point group: c2v
    Full point group: C_inf_v

    Geometry (in Angstrom), charge = 0, multiplicity = 2:

    C            0.000000000000     0.000000000000     1.257947983878
    CL           0.000000000000     0.000000000000    -0.431680614283

    Psi4 stopped on: Wednesday, 16 July 2025 07:05PM
    Psi4 wall time for execution: 0:00:11.63

*** Psi4 exiting successfully. Buy a developer a beer!
