                               Psi4 1.9.1 release

  ==> Input File <==

--------------------------------------------------------------------------
molecule {
0 2
H   0.00000        0.60000        0.00000
Ar   0.00000       -0.60000        0.00000
}

set {
basis              cc-pvdz
reference          uks
maxiter            500
geom_maxiter       500
DAMPING_PERCENTAGE 1
guess              SAP
}

optimize('b3lyp')
--------------------------------------------------------------------------

    Molecular point group: c2v
  Charge       = 0
  Multiplicity = 2
  Basis Set: CC-PVDZ
    Blend: CC-PVDZ
  Basis Set: (CC-PVDZ AUX)
    Blend: CC-PVDZ-JKFIT
  @DF-UKS Final Energy:  -527.88564679793319
    Total Energy =                       -527.8856467979331910
 Dipole X            :          0.0000000            0.0000000            0.0000000
 Dipole Y            :          0.0000000            0.0000000            0.0000000
 Dipole Z            :         -2.0833256            1.2078060           -0.8755196
 Magnitude           :                                                    0.8755196
    Molecular point group: c2v
  Basis Set: CC-PVDZ
    Blend: CC-PVDZ
  Basis Set: (CC-PVDZ AUX)
    Blend: CC-PVDZ-JKFIT
  Basis Set: CC-PVDZ
    Blend: CC-PVDZ
  Basis Set: (CC-PVDZ AUX)
    Blend: CC-PVDZ-JKFIT
  @DF-UKS Final Energy:  -527.97082978304604
    Total Energy =                       -527.9708297830460424
  Basis Set: CC-PVDZ
    Blend: CC-PVDZ
  Basis Set: (CC-PVDZ AUX)
    Blend: CC-PVDZ-JKFIT
  Basis Set: CC-PVDZ
    Blend: CC-PVDZ
  @DF-UKS Final Energy:  -528.00104875459772
    Total Energy =                       -528.0010487545977185
  @DF-UKS Final Energy:  -528.02093292364361
    Total Energy =                       -528.0209329236436133
  @DF-UKS Final Energy:  -528.03148171438386
    Total Energy =                       -528.0314817143838582
  @DF-UKS Final Energy:  -528.03737699224928
    Total Energy =                       -528.0373769922493921
  @DF-UKS Final Energy:  -528.04054760143367
    Total Energy =                       -528.0405476014336728
  @DF-UKS Final Energy:  -528.04215325233667
    Total Energy =                       -528.0421532523366750
  @DF-UKS Final Energy:  -528.04292411127778
    Total Energy =                       -528.0429241112777845
  @DF-UKS Final Energy:  -528.04328028298721
    Total Energy =                       -528.0432802829872116
  @DF-UKS Final Energy:  -528.04343901892514
    Total Energy =                       -528.0434390189251417
  @DF-UKS Final Energy:  -528.04350724741425
    Total Energy =                       -528.0435072474141407
  @DF-UKS Final Energy:  -528.04353564403937
    Total Energy =                       -528.0435356440393662
  @DF-UKS Final Energy:  -528.04354416783826
    Total Energy =                       -528.0435441678382631
  @DF-UKS Final Energy:  -528.04354843429019
    Total Energy =                       -528.0435484342901873
  Basis Set: (CC-PVDZ AUX)
    Blend: CC-PVDZ-JKFIT
  Basis Set: CC-PVDZ
    Blend: CC-PVDZ
  Basis Set: (CC-PVDZ AUX)
    Blend: CC-PVDZ-JKFIT
  @DF-UKS Final Energy:  -528.04354980803339
    Total Energy =                       -528.0435498080333900
  Basis Set: CC-PVDZ
    Blend: CC-PVDZ
  Basis Set: (CC-PVDZ AUX)
    Blend: CC-PVDZ-JKFIT
  Charge       = 0
  Multiplicity = 2
  Basis Set: CC-PVDZ
    Blend: CC-PVDZ
  Basis Set: (CC-PVDZ AUX)
    Blend: CC-PVDZ-JKFIT

    Orbital Energies [Eh]
    ---------------------

    Alpha Occupied:

       1A1  -115.098113     2A1   -11.134187     3A1    -8.684086
       1B1    -8.684048     1B2    -8.684048     4A1    -0.962451
       5A1    -0.420414     2B1    -0.420128     2B2    -0.420128
       6A1    -0.318984

    Alpha Virtual:

       7A1     0.406584     3B2     0.583668     3B1     0.583668
       8A1     0.603394     9A1     0.733807     4B1     0.837722
       4B2     0.837722    10A1     0.837769     1A2     0.837770
      11A1     0.838337     5B2     1.210175     5B1     1.210175
      12A1     1.210850

    Beta Occupied:

       1A1  -115.098088     2A1   -11.134163     1B1    -8.684030
       1B2    -8.684030     3A1    -8.684021     4A1    -0.962356
       5A1    -0.420227     2B1    -0.420111     2B2    -0.420111

    Beta Virtual:

       6A1    -0.045954     7A1     0.555977     3B2     0.583545
       3B1     0.583545     8A1     0.658955     9A1     0.742055
      10A1     0.837796     1A2     0.837797     4B1     0.837818
       4B2     0.837818    11A1     0.838955     5B2     1.418160
       5B1     1.418160    12A1     1.432577

    Final Occupation by Irrep:
             A1    A2    B1    B2
    DOCC [     5,    0,    2,    2 ]
    SOCC [     1,    0,    0,    0 ]
    NA   [     6,    0,    2,    2 ]
    NB   [     5,    0,    2,    2 ]

  @DF-UKS Final Energy:  -528.04355051660150

   => Energetics <=

    Nuclear Repulsion Energy =              2.5958743166270524
    One-Electron Energy =                -734.0888268947738879
    Two-Electron Energy =                 228.5917721487635959
    DFT Exchange-Correlation Energy =     -25.1423700872182607
    Empirical Dispersion Energy =           0.0000000000000000
    VV10 Nonlocal Energy =                  0.0000000000000000
    Total Energy =                       -528.0435505166014991

  UHF NO Occupations:
  HONO-2 :    2 B1 2.0000000
  HONO-1 :    5 A1 1.9999985
  HONO-0 :    6 A1 1.0000000
  LUNO+0 :    7 A1 0.0000015
  LUNO+1 :    3 B2 0.0000000
  LUNO+2 :    3 B1 0.0000000
  LUNO+3 :    8 A1 0.0000000

Computation Completed

Properties will be evaluated at   0.000000,   0.000000,   0.000000 [a0]

Properties computed using the SCF density matrix

 Multipole Moments:

 ------------------------------------------------------------------------------------
     Multipole            Electronic (a.u.)      Nuclear  (a.u.)        Total (a.u.)
 ------------------------------------------------------------------------------------

 L = 1.  Multiply by 2.5417464519 to convert [e a0] to [Debye]
 Dipole X            :          0.0000000            0.0000000            0.0000000
 Dipole Y            :          0.0000000            0.0000000            0.0000000
 Dipole Z            :         -3.6977667            3.6932263           -0.0045403
 Magnitude           :                                                    0.0045403

 ------------------------------------------------------------------------------------

*** tstop() called on Joses-MacBook-Pro-2.local at Wed Jul 16 18:18:08 2025
Module time:
	user time   =       2.85 seconds =       0.05 minutes
	system time =       1.91 seconds =       0.03 minutes
	total time  =          0 seconds =       0.00 minutes
Total time:
	user time   =      61.55 seconds =       1.03 minutes
	system time =      70.87 seconds =       1.18 minutes
	total time  =         12 seconds =       0.20 minutes

*** tstart() called on Joses-MacBook-Pro-2.local
*** at Wed Jul 16 18:18:08 2025

         ------------------------------------------------------------
                                   SCF GRAD
                          Rob Parrish, Justin Turney,
                       Andy Simmonett, and Alex Sokolov
         ------------------------------------------------------------

  ==> Geometry <==

    Molecular point group: c2v
    Full point group: C_inf_v

    Geometry (in Angstrom), charge = 0, multiplicity = 2:

       Center              X                  Y                   Z               Mass
    ------------   -----------------  -----------------  -----------------  -----------------
         H            0.000000000000     0.000000000000     3.579094661412     1.007825032230
         AR           0.000000000000     0.000000000000    -0.090262414564    39.962383123700

  Nuclear repulsion =    2.595874316627052

  ==> Basis Set <==

  Basis Set: CC-PVDZ
    Blend: CC-PVDZ
    Number of shells: 11
    Number of basis functions: 23
    Number of Cartesian functions: 24
    Spherical Harmonics?: true
    Max angular momentum: 2

  ==> DFJKGrad: Density-Fitted SCF Gradients <==

    Gradient:                    1
    J tasked:                  Yes
    K tasked:                  Yes
    wK tasked:                  No
    OpenMP threads:              1
    Integrals threads:           1
    Memory [MiB]:              375
    Schwarz Cutoff:          1E-12
    Fitting Condition:       1E-10

   => Auxiliary Basis Set <=

  Basis Set: (CC-PVDZ AUX)
    Blend: CC-PVDZ-JKFIT
    Number of shells: 45
    Number of basis functions: 135
    Number of Cartesian functions: 155
    Spherical Harmonics?: true
    Max angular momentum: 3

  ==> DFT Potential <==

   => LibXC <=

    Version 6.2.2
    S. Lehtola, C. Steigemann, M. J.T. Oliveira, and M. A.L. Marques.,  SoftwareX 7, 1â€“5 (2018) (10.1016/j.softx.2017.11.002)

   => Composite Functional: B3LYP <=

    B3LYP Hyb-GGA Exchange-Correlation Functional

    P. J. Stephens, F. J. Devlin, C. F. Chabalowski, and M. J. Frisch.,  J. Phys. Chem. 98, 11623 (1994) (10.1021/j100096a001)

    Deriv               =              1
    GGA                 =           TRUE
    Meta                =          FALSE

    Exchange Hybrid     =           TRUE
    MP2 Hybrid          =          FALSE

   => Exchange Functionals <=

    0.0800   Slater exchange
    0.7200         Becke 88

   => Exact (HF) Exchange <=

    0.2000               HF

   => Correlation Functionals <=

    0.1900   Vosko, Wilk & Nusair (VWN5_RPA)
    0.8100   Lee, Yang & Parr

   => LibXC Density Thresholds  <==

    XC_HYB_GGA_XC_B3LYP:  1.00E-15

   => Molecular Quadrature <=

    Radial Scheme          =       TREUTLER
    Pruning Scheme         =           NONE
    Nuclear Scheme         =       TREUTLER

    Blocking Scheme        =         OCTREE
    BS radius alpha        =              1
    Pruning alpha          =              1
    Radial Points          =             75
    Spherical Points       =            302
    Total Points           =          42573
    Total Blocks           =            392
    Max Points             =            256
    Max Functions          =             23
    Weights Tolerance      =       1.00E-15

  -Total Gradient:
     Atom            X                  Y                   Z
    ------   -----------------  -----------------  -----------------
       1        0.000000000000    -0.000000000000    -0.000006683967
       2        0.000000000000     0.000000000000     0.000005938956

*** tstop() called on Joses-MacBook-Pro-2.local at Wed Jul 16 18:18:08 2025
Module time:
	user time   =       0.49 seconds =       0.01 minutes
	system time =       1.24 seconds =       0.02 minutes
	total time  =          0 seconds =       0.00 minutes
Total time:
	user time   =      62.05 seconds =       1.03 minutes
	system time =      72.11 seconds =       1.20 minutes
	total time  =         12 seconds =       0.20 minutes

    			-----------------------------------------

    			 OPTKING 3.0: for geometry optimizations

    			     By R.A. King, Bethel University

    			        with contributions from

    			    A.V. Copan, J. Cayton, A. Heide

    			-----------------------------------------

	                            ===> Fragment 1 <==

	 Z (Atomic Numbers)          Masses                          Geom
	       1.000000             1.007825          0.00000000  0.00000000  6.76350869
	      18.000000            39.962383          0.00000000  0.00000000 -0.17057124

	 - Coordinate -           - BOHR/RAD -       - ANG/DEG -
	 R(1,2)           =         6.934080           3.669357

	        --- Internal Coordinate Step in ANG or DEG, aJ/ANG or AJ/DEG ---
	-------------------------------------------------------------------------------
	           Coordinate      Previous         Force          Change          New
	           ----------      --------        ------          ------        ------
	               R(1,2)       3.66936        0.00005        0.01838       3.68773
	-------------------------------------------------------------------------------

	                                 ==> Convergence Check <==

	Measures of convergence in internal coordinates in au.

	Criteria marked as inactive (o), active & met (*), and active & unmet ( ).

	----------------------------------------------------------------------------------------------
	   Step    Total Energy     Delta E     Max Force     RMS Force      Max Disp      RMS Disp
	----------------------------------------------------------------------------------------------
	  Convergence Criteria     1.00e-06 *    3.00e-04 *             o    1.20e-03 *             o
	----------------------------------------------------------------------------------------------
	    17    -528.04355052   -7.09e-07 *    6.31e-06 *    6.31e-06 o    3.47e-02      3.47e-02 o  ~
	----------------------------------------------------------------------------------------------

Next Geometry in Ang
	Fragment 1 (Ang)

	    H   0.0000000000   0.0000000000   3.5882836098
	   Ar   0.0000000000   0.0000000000  -0.0994513630

    Final optimized geometry and variables:
    Molecular point group: c2v
    Full point group: C_inf_v

    Geometry (in Angstrom), charge = 0, multiplicity = 2:

    H            0.000000000000     0.000000000000     3.579094661412
    AR           0.000000000000     0.000000000000    -0.090262414564

    Psi4 stopped on: Wednesday, 16 July 2025 06:18PM
    Psi4 wall time for execution: 0:00:13.26

*** Psi4 exiting successfully. Buy a developer a beer!
