                               Psi4 1.9.1 release

  ==> Input File <==

--------------------------------------------------------------------------
molecule {
0 2
Si   0.00000        0.60000        0.00000
P   0.00000       -0.60000        0.00000
}

set {
basis              cc-pvdz
reference          uks
maxiter            500
geom_maxiter       500
DAMPING_PERCENTAGE 1
guess              SAP
}

optimize('b3lyp')
--------------------------------------------------------------------------

    Molecular point group: c2v
  Charge       = 0
  Multiplicity = 2
  Basis Set: CC-PVDZ
    Blend: CC-PVDZ
  Basis Set: (CC-PVDZ AUX)
    Blend: CC-PVDZ-JKFIT
  @DF-UKS Final Energy:  -629.67841978144827
    Total Energy =                       -629.6784197814481558
 Dipole X            :          0.0000000            0.0000000            0.0000000
 Dipole Y            :          0.0000000            0.0000000            0.0000000
 Dipole Z            :         -0.4120640            0.5377250            0.1256609
 Magnitude           :                                                    0.1256609
    Molecular point group: c2v
  Basis Set: CC-PVDZ
    Blend: CC-PVDZ
  Basis Set: (CC-PVDZ AUX)
    Blend: CC-PVDZ-JKFIT
  Basis Set: CC-PVDZ
    Blend: CC-PVDZ
  Basis Set: (CC-PVDZ AUX)
    Blend: CC-PVDZ-JKFIT
  @DF-UKS Final Energy:  -629.70528868756935
    Total Energy =                       -629.7052886875692366
  Basis Set: CC-PVDZ
    Blend: CC-PVDZ
  Basis Set: (CC-PVDZ AUX)
    Blend: CC-PVDZ-JKFIT
  Basis Set: CC-PVDZ
    Blend: CC-PVDZ
  @DF-UKS Final Energy:  -629.75646371269295
    Total Energy =                       -629.7564637126929483
  @DF-UKS Final Energy:  -629.93475353602150
    Total Energy =                       -629.9347535360215034
  @DF-UKS Final Energy:  -630.49891658005242
    Total Energy =                       -630.4989165800524233
  @DF-UKS Final Energy:  -630.67784026238496
    Total Energy =                       -630.6778402623849615
  @DF-UKS Final Energy:  -630.75525875033827
    Total Energy =                       -630.7552587503382711
  @DF-UKS Final Energy:  -630.78156711939459
    Total Energy =                       -630.7815671193944809
  @DF-UKS Final Energy:  -630.78737030534865
    Total Energy =                       -630.7873703053486452
  @DF-UKS Final Energy:  -630.78920342142590
    Total Energy =                       -630.7892034214257819
  @DF-UKS Final Energy:  -630.78946864100999
    Total Energy =                       -630.7894686410101031
  @DF-UKS Final Energy:  -630.78951043574284
    Total Energy =                       -630.7895104357429545
  Basis Set: (CC-PVDZ AUX)
    Blend: CC-PVDZ-JKFIT
  Basis Set: CC-PVDZ
    Blend: CC-PVDZ
  Basis Set: (CC-PVDZ AUX)
    Blend: CC-PVDZ-JKFIT
  @DF-UKS Final Energy:  -630.78951818109817
    Total Energy =                       -630.7895181810981740
  Basis Set: CC-PVDZ
    Blend: CC-PVDZ
  Basis Set: (CC-PVDZ AUX)
    Blend: CC-PVDZ-JKFIT
  Charge       = 0
  Multiplicity = 2
  Basis Set: CC-PVDZ
    Blend: CC-PVDZ
  Basis Set: (CC-PVDZ AUX)
    Blend: CC-PVDZ-JKFIT

    Orbital Energies [Eh]
    ---------------------

    Alpha Occupied:

       1A1   -77.093792     2A1   -66.179963     3A1    -6.564140
       4A1    -5.324606     5A1    -4.730343     1B2    -4.722457
       1B1    -4.722457     6A1    -3.685472     2B2    -3.681409
       2B1    -3.681409     7A1    -0.624657     8A1    -0.421789
       9A1    -0.283449     3B2    -0.248043     3B1    -0.248043

    Alpha Virtual:

       4B1    -0.079556     4B2    -0.079556    10A1     0.054808
      11A1     0.199631    12A1     0.261581     5B2     0.265500
       5B1     0.265500    13A1     0.335774     1A2     0.335775
       6B2     0.337541     6B1     0.337541    14A1     0.348166
       7B1     0.457043     7B2     0.457043    15A1     0.520153
       2A2     0.520153    16A1     0.535783    17A1     0.677433
       8B2     0.706290     8B1     0.706290    18A1     1.035332

    Beta Occupied:

       1A1   -77.091215     2A1   -66.177760     3A1    -6.561426
       4A1    -5.322056     5A1    -4.721345     1B2    -4.720872
       1B1    -4.720872     2B2    -3.680039     2B1    -3.680039
       6A1    -3.677767     7A1    -0.599016     8A1    -0.385089
       3B2    -0.242362     3B1    -0.242362

    Beta Virtual:

       9A1    -0.186674     4B1    -0.068884     4B2    -0.068884
      10A1     0.073016    11A1     0.214623     5B2     0.277592
       5B1     0.277592    12A1     0.286477    13A1     0.339715
       1A2     0.339716     6B2     0.357167     6B1     0.357167
      14A1     0.374373     7B1     0.460691     7B2     0.460691
      15A1     0.523766     2A2     0.523767    16A1     0.548366
      17A1     0.696027     8B2     0.727899     8B1     0.727899
      18A1     1.057200

    Final Occupation by Irrep:
             A1    A2    B1    B2
    DOCC [     8,    0,    3,    3 ]
    SOCC [     1,    0,    0,    0 ]
    NA   [     9,    0,    3,    3 ]
    NB   [     8,    0,    3,    3 ]

  @DF-UKS Final Energy:  -630.78951864961550

   => Energetics <=

    Nuclear Repulsion Energy =             55.4966034256349019
    One-Electron Energy =                -983.2515410582279856
    Two-Electron Energy =                 332.4707633385373811
    DFT Exchange-Correlation Energy =     -35.5053443555598633
    Empirical Dispersion Energy =           0.0000000000000000
    VV10 Nonlocal Energy =                  0.0000000000000000
    Total Energy =                       -630.7895186496155020

  UHF NO Occupations:
  HONO-2 :    7 A1 1.9995066
  HONO-1 :    8 A1 1.9976411
  HONO-0 :    9 A1 1.0000000
  LUNO+0 :   10 A1 0.0023589
  LUNO+1 :   11 A1 0.0004934
  LUNO+2 :    4 B1 0.0000618
  LUNO+3 :    4 B2 0.0000618

Computation Completed

Properties will be evaluated at   0.000000,   0.000000,   0.000000 [a0]

Properties computed using the SCF density matrix

 Multipole Moments:

 ------------------------------------------------------------------------------------
     Multipole            Electronic (a.u.)      Nuclear  (a.u.)        Total (a.u.)
 ------------------------------------------------------------------------------------

 L = 1.  Multiply by 2.5417464519 to convert [e a0] to [Debye]
 Dipole X            :          0.0000000            0.0000000            0.0000000
 Dipole Y            :          0.0000000            0.0000000            0.0000000
 Dipole Z            :         -0.3806651            0.8972903            0.5166252
 Magnitude           :                                                    0.5166252

 ------------------------------------------------------------------------------------

*** tstop() called on Joses-MacBook-Pro-2.local at Wed Jul 16 20:14:28 2025
Module time:
	user time   =       7.35 seconds =       0.12 minutes
	system time =       1.99 seconds =       0.03 minutes
	total time  =          1 seconds =       0.02 minutes
Total time:
	user time   =     215.89 seconds =       3.60 minutes
	system time =      45.44 seconds =       0.76 minutes
	total time  =         26 seconds =       0.43 minutes

*** tstart() called on Joses-MacBook-Pro-2.local
*** at Wed Jul 16 20:14:28 2025

         ------------------------------------------------------------
                                   SCF GRAD
                          Rob Parrish, Justin Turney,
                       Andy Simmonett, and Alex Sokolov
         ------------------------------------------------------------

  ==> Geometry <==

    Molecular point group: c2v
    Full point group: C_inf_v

    Geometry (in Angstrom), charge = 0, multiplicity = 2:

       Center              X                  Y                   Z               Mass
    ------------   -----------------  -----------------  -----------------  -----------------
         SI           0.000000000000     0.000000000000     1.052105034544    27.976926534650
         P            0.000000000000     0.000000000000    -0.950309660792    30.973761998420

  Nuclear repulsion =   55.496603425634902

  ==> Basis Set <==

  Basis Set: CC-PVDZ
    Blend: CC-PVDZ
    Number of shells: 16
    Number of basis functions: 36
    Number of Cartesian functions: 38
    Spherical Harmonics?: true
    Max angular momentum: 2

  ==> DFJKGrad: Density-Fitted SCF Gradients <==

    Gradient:                    1
    J tasked:                  Yes
    K tasked:                  Yes
    wK tasked:                  No
    OpenMP threads:              1
    Integrals threads:           1
    Memory [MiB]:              375
    Schwarz Cutoff:          1E-12
    Fitting Condition:       1E-10

   => Auxiliary Basis Set <=

  Basis Set: (CC-PVDZ AUX)
    Blend: CC-PVDZ-JKFIT
    Number of shells: 72
    Number of basis functions: 224
    Number of Cartesian functions: 260
    Spherical Harmonics?: true
    Max angular momentum: 3

  ==> DFT Potential <==

   => LibXC <=

    Version 6.2.2
    S. Lehtola, C. Steigemann, M. J.T. Oliveira, and M. A.L. Marques.,  SoftwareX 7, 1â€“5 (2018) (10.1016/j.softx.2017.11.002)

   => Composite Functional: B3LYP <=

    B3LYP Hyb-GGA Exchange-Correlation Functional

    P. J. Stephens, F. J. Devlin, C. F. Chabalowski, and M. J. Frisch.,  J. Phys. Chem. 98, 11623 (1994) (10.1021/j100096a001)

    Deriv               =              1
    GGA                 =           TRUE
    Meta                =          FALSE

    Exchange Hybrid     =           TRUE
    MP2 Hybrid          =          FALSE

   => Exchange Functionals <=

    0.0800   Slater exchange
    0.7200         Becke 88

   => Exact (HF) Exchange <=

    0.2000               HF

   => Correlation Functionals <=

    0.1900   Vosko, Wilk & Nusair (VWN5_RPA)
    0.8100   Lee, Yang & Parr

   => LibXC Density Thresholds  <==

    XC_HYB_GGA_XC_B3LYP:  1.00E-15

   => Molecular Quadrature <=

    Radial Scheme          =       TREUTLER
    Pruning Scheme         =           NONE
    Nuclear Scheme         =       TREUTLER

    Blocking Scheme        =         OCTREE
    BS radius alpha        =              1
    Pruning alpha          =              1
    Radial Points          =             75
    Spherical Points       =            302
    Total Points           =          41590
    Total Blocks           =            383
    Max Points             =            256
    Max Functions          =             36
    Weights Tolerance      =       1.00E-15

  -Total Gradient:
     Atom            X                  Y                   Z
    ------   -----------------  -----------------  -----------------
       1       -0.000000000000     0.000000000000    -0.000065241391
       2        0.000000000000    -0.000000000000     0.000070017876

*** tstop() called on Joses-MacBook-Pro-2.local at Wed Jul 16 20:14:28 2025
Module time:
	user time   =       2.41 seconds =       0.04 minutes
	system time =       1.25 seconds =       0.02 minutes
	total time  =          0 seconds =       0.00 minutes
Total time:
	user time   =     218.30 seconds =       3.64 minutes
	system time =      46.70 seconds =       0.78 minutes
	total time  =         26 seconds =       0.43 minutes

    			-----------------------------------------

    			 OPTKING 3.0: for geometry optimizations

    			     By R.A. King, Bethel University

    			        with contributions from

    			    A.V. Copan, J. Cayton, A. Heide

    			-----------------------------------------

	                            ===> Fragment 1 <==

	 Z (Atomic Numbers)          Masses                          Geom
	      14.000000            27.976927          0.00000000  0.00000000  1.98819037
	      15.000000            30.973762          0.00000000  0.00000000 -1.79582499

	 - Coordinate -           - BOHR/RAD -       - ANG/DEG -
	 R(1,2)           =         3.784015           2.002415

	        --- Internal Coordinate Step in ANG or DEG, aJ/ANG or AJ/DEG ---
	-------------------------------------------------------------------------------
	           Coordinate      Previous         Force          Change          New
	           ----------      --------        ------          ------        ------
	               R(1,2)       2.00241        0.00056        0.00013       2.00255
	-------------------------------------------------------------------------------

	                                 ==> Convergence Check <==

	Measures of convergence in internal coordinates in au.

	Criteria marked as inactive (o), active & met (*), and active & unmet ( ).

	----------------------------------------------------------------------------------------------
	   Step    Total Energy     Delta E     Max Force     RMS Force      Max Disp      RMS Disp
	----------------------------------------------------------------------------------------------
	  Convergence Criteria     1.00e-06 *    3.00e-04 *             o    1.20e-03 *             o
	----------------------------------------------------------------------------------------------
	    14    -630.78951865   -4.69e-07 *    6.76e-05 *    6.76e-05 o    2.47e-04 *    2.47e-04 o  ~
	----------------------------------------------------------------------------------------------

Next Geometry in Ang
	Fragment 1 (Ang)

	   Si   0.0000000000   0.0000000000   1.0521703429
	    P   0.0000000000   0.0000000000  -0.9503749692

    Final optimized geometry and variables:
    Molecular point group: c2v
    Full point group: C_inf_v

    Geometry (in Angstrom), charge = 0, multiplicity = 2:

    SI           0.000000000000     0.000000000000     1.052105034544
    P            0.000000000000     0.000000000000    -0.950309660792

    Psi4 stopped on: Wednesday, 16 July 2025 08:14PM
    Psi4 wall time for execution: 0:00:26.53

*** Psi4 exiting successfully. Buy a developer a beer!
