                               Psi4 1.9.1 release

  ==> Input File <==

--------------------------------------------------------------------------
molecule {
0 4
B   0.00000        0.60000        0.00000
Ar   0.00000       -0.60000        0.00000
}

set {
basis              cc-pvdz
reference          uks
maxiter            500
geom_maxiter       500
DAMPING_PERCENTAGE 1
guess              SAP
}

optimize('b3lyp')
--------------------------------------------------------------------------

    Molecular point group: c2v
  Charge       = 0
  Multiplicity = 4
  Basis Set: CC-PVDZ
    Blend: CC-PVDZ
  Basis Set: (CC-PVDZ AUX)
    Blend: CC-PVDZ-JKFIT
  @DF-UKS Final Energy:  -551.64540454927794
    Total Energy =                       -551.6454045492779414
 Dipole X            :          0.0000000            0.0000000            0.0000000
 Dipole Y            :          0.0000000            0.0000000            0.0000000
 Dipole Z            :         -1.6564836            0.0731583           -1.5833253
 Magnitude           :                                                    1.5833253
    Molecular point group: c2v
  Basis Set: CC-PVDZ
    Blend: CC-PVDZ
  Basis Set: (CC-PVDZ AUX)
    Blend: CC-PVDZ-JKFIT
  Basis Set: CC-PVDZ
    Blend: CC-PVDZ
  Basis Set: (CC-PVDZ AUX)
    Blend: CC-PVDZ-JKFIT
  @DF-UKS Final Energy:  -551.86382915151944
    Total Energy =                       -551.8638291515193259
  Basis Set: CC-PVDZ
    Blend: CC-PVDZ
  Basis Set: (CC-PVDZ AUX)
    Blend: CC-PVDZ-JKFIT
  Basis Set: CC-PVDZ
    Blend: CC-PVDZ
  @DF-UKS Final Energy:  -551.97507671920869
    Total Energy =                       -551.9750767192086869
  @DF-UKS Final Energy:  -552.03029486855792
    Total Energy =                       -552.0302948685580304
  @DF-UKS Final Energy:  -552.05717628402124
    Total Energy =                       -552.0571762840213523
  @DF-UKS Final Energy:  -552.06704893477183
    Total Energy =                       -552.0670489347718330
  @DF-UKS Final Energy:  -552.07319338154025
    Total Energy =                       -552.0731933815402499
  @DF-UKS Final Energy:  -552.07649954509475
    Total Energy =                       -552.0764995450947481
  @DF-UKS Final Energy:  -552.07788807939892
    Total Energy =                       -552.0778880793989174
  @DF-UKS Final Energy:  -552.07833046989492
    Total Energy =                       -552.0783304698949223
  @DF-UKS Final Energy:  -552.07853257248712
    Total Energy =                       -552.0785325724871200
  @DF-UKS Final Energy:  -552.07859002502323
    Total Energy =                       -552.0785900250232316
  @DF-UKS Final Energy:  -552.07861153973340
    Total Energy =                       -552.0786115397334015
  Basis Set: (CC-PVDZ AUX)
    Blend: CC-PVDZ-JKFIT
  Basis Set: CC-PVDZ
    Blend: CC-PVDZ
  Basis Set: (CC-PVDZ AUX)
    Blend: CC-PVDZ-JKFIT
  @DF-UKS Final Energy:  -552.07861617382628
    Total Energy =                       -552.0786161738262763
  Basis Set: CC-PVDZ
    Blend: CC-PVDZ
  Basis Set: (CC-PVDZ AUX)
    Blend: CC-PVDZ-JKFIT
  Charge       = 0
  Multiplicity = 4
  Basis Set: CC-PVDZ
    Blend: CC-PVDZ
  Basis Set: (CC-PVDZ AUX)
    Blend: CC-PVDZ-JKFIT

    Orbital Energies [Eh]
    ---------------------

    Alpha Occupied:

       1A1  -115.169678     2A1   -11.205581     3A1    -8.758188
       1B2    -8.754257     1B1    -8.754257     4A1    -6.835870
       5A1    -1.035066     6A1    -0.537440     2B1    -0.482588
       2B2    -0.482588     7A1    -0.369600     3B2    -0.182567
       3B1    -0.182567

    Alpha Virtual:

       8A1    -0.044396     9A1     0.280117     4B1     0.283190
       4B2     0.283190    10A1     0.351694    11A1     0.514652
       5B1     0.541536     5B2     0.541536     6B2     0.625534
       6B1     0.625534     1A2     0.669697    12A1     0.669697
      13A1     0.735019    14A1     0.782276     2A2     0.782279
      15A1     0.828240     7B2     0.914640     7B1     0.914640
      16A1     1.307057

    Beta Occupied:

       1A1  -115.168570     2A1   -11.204480     3A1    -8.755930
       1B2    -8.753132     1B1    -8.753132     4A1    -6.798534
       5A1    -1.029212     6A1    -0.513128     2B1    -0.478406
       2B2    -0.478406

    Beta Virtual:

       7A1    -0.156833     3B2     0.016408     3B1     0.016408
       8A1     0.027634     9A1     0.309544     4B1     0.376612
       4B2     0.376612    10A1     0.432856    11A1     0.530372
       5B1     0.562406     5B2     0.562406     6B2     0.667476
       6B1     0.667476    12A1     0.767348    13A1     0.768373
       1A2     0.768376    14A1     0.836891     2A2     0.836891
      15A1     0.858728     7B2     0.969682     7B1     0.969682
      16A1     1.343705

    Final Occupation by Irrep:
             A1    A2    B1    B2
    DOCC [     6,    0,    2,    2 ]
    SOCC [     1,    0,    1,    1 ]
    NA   [     7,    0,    3,    3 ]
    NB   [     6,    0,    2,    2 ]

  @DF-UKS Final Energy:  -552.07861662582650

   => Energetics <=

    Nuclear Repulsion Energy =             21.6763615732850923
    One-Electron Energy =                -802.8560299798721189
    Two-Electron Energy =                 257.1800725707853985
    DFT Exchange-Correlation Energy =     -28.0790207900249662
    Empirical Dispersion Energy =           0.0000000000000000
    VV10 Nonlocal Energy =                  0.0000000000000000
    Total Energy =                       -552.0786166258264984

  UHF NO Occupations:
  HONO-2 :    7 A1 1.0000000
  HONO-1 :    3 B2 1.0000000
  HONO-0 :    3 B1 1.0000000
  LUNO+0 :    8 A1 0.0003532
  LUNO+1 :    4 B2 0.0000228
  LUNO+2 :    4 B1 0.0000228
  LUNO+3 :    9 A1 0.0000026

Computation Completed

Properties will be evaluated at   0.000000,   0.000000,   0.000000 [a0]

Properties computed using the SCF density matrix

 Multipole Moments:

 ------------------------------------------------------------------------------------
     Multipole            Electronic (a.u.)      Nuclear  (a.u.)        Total (a.u.)
 ------------------------------------------------------------------------------------

 L = 1.  Multiply by 2.5417464519 to convert [e a0] to [Debye]
 Dipole X            :          0.0000000            0.0000000            0.0000000
 Dipole Y            :          0.0000000            0.0000000            0.0000000
 Dipole Z            :         -0.9529544            0.1339490           -0.8190053
 Magnitude           :                                                    0.8190053

 ------------------------------------------------------------------------------------

*** tstop() called on Joses-MacBook-Pro-2.local at Wed Jul 16 18:58:45 2025
Module time:
	user time   =       3.61 seconds =       0.06 minutes
	system time =       2.95 seconds =       0.05 minutes
	total time  =          1 seconds =       0.02 minutes
Total time:
	user time   =      70.90 seconds =       1.18 minutes
	system time =      85.15 seconds =       1.42 minutes
	total time  =         17 seconds =       0.28 minutes

*** tstart() called on Joses-MacBook-Pro-2.local
*** at Wed Jul 16 18:58:45 2025

         ------------------------------------------------------------
                                   SCF GRAD
                          Rob Parrish, Justin Turney,
                       Andy Simmonett, and Alex Sokolov
         ------------------------------------------------------------

  ==> Geometry <==

    Molecular point group: c2v
    Full point group: C_inf_v

    Geometry (in Angstrom), charge = 0, multiplicity = 4:

       Center              X                  Y                   Z               Mass
    ------------   -----------------  -----------------  -----------------  -----------------
         B            0.000000000000     0.000000000000     1.722580848400    11.009305360000
         AR           0.000000000000     0.000000000000    -0.474556747745    39.962383123700

  Nuclear repulsion =   21.676361573285092

  ==> Basis Set <==

  Basis Set: CC-PVDZ
    Blend: CC-PVDZ
    Number of shells: 14
    Number of basis functions: 32
    Number of Cartesian functions: 34
    Spherical Harmonics?: true
    Max angular momentum: 2

  ==> DFJKGrad: Density-Fitted SCF Gradients <==

    Gradient:                    1
    J tasked:                  Yes
    K tasked:                  Yes
    wK tasked:                  No
    OpenMP threads:              1
    Integrals threads:           1
    Memory [MiB]:              375
    Schwarz Cutoff:          1E-12
    Fitting Condition:       1E-10

   => Auxiliary Basis Set <=

  Basis Set: (CC-PVDZ AUX)
    Blend: CC-PVDZ-JKFIT
    Number of shells: 60
    Number of basis functions: 182
    Number of Cartesian functions: 211
    Spherical Harmonics?: true
    Max angular momentum: 3

  ==> DFT Potential <==

   => LibXC <=

    Version 6.2.2
    S. Lehtola, C. Steigemann, M. J.T. Oliveira, and M. A.L. Marques.,  SoftwareX 7, 1â€“5 (2018) (10.1016/j.softx.2017.11.002)

   => Composite Functional: B3LYP <=

    B3LYP Hyb-GGA Exchange-Correlation Functional

    P. J. Stephens, F. J. Devlin, C. F. Chabalowski, and M. J. Frisch.,  J. Phys. Chem. 98, 11623 (1994) (10.1021/j100096a001)

    Deriv               =              1
    GGA                 =           TRUE
    Meta                =          FALSE

    Exchange Hybrid     =           TRUE
    MP2 Hybrid          =          FALSE

   => Exchange Functionals <=

    0.0800   Slater exchange
    0.7200         Becke 88

   => Exact (HF) Exchange <=

    0.2000               HF

   => Correlation Functionals <=

    0.1900   Vosko, Wilk & Nusair (VWN5_RPA)
    0.8100   Lee, Yang & Parr

   => LibXC Density Thresholds  <==

    XC_HYB_GGA_XC_B3LYP:  1.00E-15

   => Molecular Quadrature <=

    Radial Scheme          =       TREUTLER
    Pruning Scheme         =           NONE
    Nuclear Scheme         =       TREUTLER

    Blocking Scheme        =         OCTREE
    BS radius alpha        =              1
    Pruning alpha          =              1
    Radial Points          =             75
    Spherical Points       =            302
    Total Points           =          42038
    Total Blocks           =            386
    Max Points             =            256
    Max Functions          =             32
    Weights Tolerance      =       1.00E-15

  -Total Gradient:
     Atom            X                  Y                   Z
    ------   -----------------  -----------------  -----------------
       1        0.000000000000    -0.000000000000    -0.000029006670
       2        0.000000000000     0.000000000000     0.000033916853

*** tstop() called on Joses-MacBook-Pro-2.local at Wed Jul 16 18:58:45 2025
Module time:
	user time   =       1.39 seconds =       0.02 minutes
	system time =       1.27 seconds =       0.02 minutes
	total time  =          0 seconds =       0.00 minutes
Total time:
	user time   =      72.29 seconds =       1.20 minutes
	system time =      86.43 seconds =       1.44 minutes
	total time  =         17 seconds =       0.28 minutes

    			-----------------------------------------

    			 OPTKING 3.0: for geometry optimizations

    			     By R.A. King, Bethel University

    			        with contributions from

    			    A.V. Copan, J. Cayton, A. Heide

    			-----------------------------------------

	                            ===> Fragment 1 <==

	 Z (Atomic Numbers)          Masses                          Geom
	       5.000000            11.009305          0.00000000  0.00000000  3.25520603
	      18.000000            39.962383          0.00000000  0.00000000 -0.89678228

	 - Coordinate -           - BOHR/RAD -       - ANG/DEG -
	 R(1,2)           =         4.151988           2.197138

	        --- Internal Coordinate Step in ANG or DEG, aJ/ANG or AJ/DEG ---
	-------------------------------------------------------------------------------
	           Coordinate      Previous         Force          Change          New
	           ----------      --------        ------          ------        ------
	               R(1,2)       2.19714        0.00026        0.00073       2.19787
	-------------------------------------------------------------------------------

	                                 ==> Convergence Check <==

	Measures of convergence in internal coordinates in au.

	Criteria marked as inactive (o), active & met (*), and active & unmet ( ).

	----------------------------------------------------------------------------------------------
	   Step    Total Energy     Delta E     Max Force     RMS Force      Max Disp      RMS Disp
	----------------------------------------------------------------------------------------------
	  Convergence Criteria     1.00e-06 *    3.00e-04 *             o    1.20e-03 *             o
	----------------------------------------------------------------------------------------------
	    15    -552.07861663   -4.52e-07 *    3.15e-05 *    3.15e-05 o    1.39e-03      1.39e-03 o  ~
	----------------------------------------------------------------------------------------------

Next Geometry in Ang
	Fragment 1 (Ang)

	    B   0.0000000000   0.0000000000   1.7229478824
	   Ar   0.0000000000   0.0000000000  -0.4749237818

    Final optimized geometry and variables:
    Molecular point group: c2v
    Full point group: C_inf_v

    Geometry (in Angstrom), charge = 0, multiplicity = 4:

    B            0.000000000000     0.000000000000     1.722580848400
    AR           0.000000000000     0.000000000000    -0.474556747745

    Psi4 stopped on: Wednesday, 16 July 2025 06:58PM
    Psi4 wall time for execution: 0:00:17.74

*** Psi4 exiting successfully. Buy a developer a beer!
