                               Psi4 1.9.1 release

  ==> Input File <==

--------------------------------------------------------------------------
molecule {
0 4
N   0.00000        0.60000        0.00000
Si   0.00000       -0.60000        0.00000
}

set {
basis              cc-pvdz
reference          uks
maxiter            500
geom_maxiter       500
DAMPING_PERCENTAGE 1
guess              SAP
}

optimize('b3lyp')
--------------------------------------------------------------------------

    Molecular point group: c2v
  Charge       = 0
  Multiplicity = 4
  Basis Set: CC-PVDZ
    Blend: CC-PVDZ
  Basis Set: (CC-PVDZ AUX)
    Blend: CC-PVDZ-JKFIT
  @DF-UKS Final Energy:  -343.63951911362858
    Total Energy =                       -343.6395191136285803
 Dipole X            :          0.0000000            0.0000000            0.0000000
 Dipole Y            :          0.0000000            0.0000000            0.0000000
 Dipole Z            :         -0.4191448           -0.0110494           -0.4301942
 Magnitude           :                                                    0.4301942
    Molecular point group: c2v
  Basis Set: CC-PVDZ
    Blend: CC-PVDZ
  Basis Set: (CC-PVDZ AUX)
    Blend: CC-PVDZ-JKFIT
  Basis Set: CC-PVDZ
    Blend: CC-PVDZ
  Basis Set: (CC-PVDZ AUX)
    Blend: CC-PVDZ-JKFIT
  @DF-UKS Final Energy:  -343.80697989243572
    Total Energy =                       -343.8069798924357201
  Basis Set: CC-PVDZ
    Blend: CC-PVDZ
  Basis Set: (CC-PVDZ AUX)
    Blend: CC-PVDZ-JKFIT
  Basis Set: CC-PVDZ
    Blend: CC-PVDZ
  @DF-UKS Final Energy:  -343.94819944129034
    Total Energy =                       -343.9481994412903987
  @DF-UKS Final Energy:  -344.00649189019549
    Total Energy =                       -344.0064918901954911
  @DF-UKS Final Energy:  -344.03119765979392
    Total Energy =                       -344.0311976597938610
  @DF-UKS Final Energy:  -344.03575668569482
    Total Energy =                       -344.0357566856948210
  @DF-UKS Final Energy:  -344.03755977406746
    Total Energy =                       -344.0375597740674607
  @DF-UKS Final Energy:  -344.03791915630569
    Total Energy =                       -344.0379191563056906
  @DF-UKS Final Energy:  -344.03799824790940
    Total Energy =                       -344.0379982479093997
  Basis Set: (CC-PVDZ AUX)
    Blend: CC-PVDZ-JKFIT
  Basis Set: CC-PVDZ
    Blend: CC-PVDZ
  Basis Set: (CC-PVDZ AUX)
    Blend: CC-PVDZ-JKFIT
  @DF-UKS Final Energy:  -344.03802018519673
    Total Energy =                       -344.0380201851966717
  Basis Set: CC-PVDZ
    Blend: CC-PVDZ
  Basis Set: (CC-PVDZ AUX)
    Blend: CC-PVDZ-JKFIT
  Charge       = 0
  Multiplicity = 4
  Basis Set: CC-PVDZ
    Blend: CC-PVDZ
  Basis Set: (CC-PVDZ AUX)
    Blend: CC-PVDZ-JKFIT

    Orbital Energies [Eh]
    ---------------------

    Alpha Occupied:

       1A1   -66.192574     2A1   -14.401870     3A1    -5.333579
       4A1    -3.693733     1B1    -3.692096     1B2    -3.691463
       5A1    -0.818050     6A1    -0.469811     2B1    -0.357464
       7A1    -0.334624     2B2    -0.306156     3B1    -0.171922

    Alpha Virtual:

       3B2    -0.092049     8A1     0.021687     9A1     0.236457
       4B1     0.286726     4B2     0.300566    10A1     0.320306
       1A2     0.335702    11A1     0.340145     5B1     0.374376
       5B2     0.395788    12A1     0.546238     6B1     0.743567
       6B2     0.773946    13A1     0.781317    14A1     1.198323
       2A2     1.723878    15A1     1.724030     7B1     1.806499
       7B2     1.840026    16A1     2.182330

    Beta Occupied:

       1A1   -66.188341     2A1   -14.367075     3A1    -5.328805
       1B2    -3.690087     4A1    -3.687034     1B1    -3.679758
       5A1    -0.711222     6A1    -0.383050     2B2    -0.265299

    Beta Virtual:

       7A1    -0.182092     2B1    -0.157367     3B2    -0.068980
       3B1    -0.021607     8A1     0.060194     9A1     0.258598
       4B2     0.301580     4B1     0.323993    10A1     0.354277
       1A2     0.377973    11A1     0.380325     5B2     0.417627
       5B1     0.448485    12A1     0.588223     6B2     0.803778
       6B1     0.833976    13A1     0.853397    14A1     1.258083
       2A2     1.807726    15A1     1.813458     7B2     1.901613
       7B1     1.927415    16A1     2.265352

    Final Occupation by Irrep:
             A1    A2    B1    B2
    DOCC [     6,    0,    1,    2 ]
    SOCC [     1,    0,    2,    0 ]
    NA   [     7,    0,    3,    2 ]
    NB   [     6,    0,    1,    2 ]

  @DF-UKS Final Energy:  -344.03802211802952

   => Energetics <=

    Nuclear Repulsion Energy =             28.9456587124464733
    One-Electron Energy =                -532.2658232184849112
    Two-Electron Energy =                 181.5915506919182008
    DFT Exchange-Correlation Energy =     -22.3094083039092652
    Empirical Dispersion Energy =           0.0000000000000000
    VV10 Nonlocal Energy =                  0.0000000000000000
    Total Energy =                       -344.0380221180295166

  UHF NO Occupations:
  HONO-2 :    2 B1 1.0000000
  HONO-1 :    3 B1 1.0000000
  HONO-0 :    7 A1 1.0000000
  LUNO+0 :    3 B2 0.0099533
  LUNO+1 :    8 A1 0.0028610
  LUNO+2 :    9 A1 0.0007116
  LUNO+3 :   10 A1 0.0000001

Computation Completed

Properties will be evaluated at   0.000000,   0.000000,   0.000000 [a0]

Properties computed using the SCF density matrix

 Multipole Moments:

 ------------------------------------------------------------------------------------
     Multipole            Electronic (a.u.)      Nuclear  (a.u.)        Total (a.u.)
 ------------------------------------------------------------------------------------

 L = 1.  Multiply by 2.5417464519 to convert [e a0] to [Debye]
 Dipole X            :          0.0000000            0.0000000            0.0000000
 Dipole Y            :          0.0000000            0.0000000            0.0000000
 Dipole Z            :         -0.5148575           -0.0164968           -0.5313543
 Magnitude           :                                                    0.5313543

 ------------------------------------------------------------------------------------

*** tstop() called on Joses-MacBook-Pro-2.local at Wed Jul 16 19:12:37 2025
Module time:
	user time   =       4.70 seconds =       0.08 minutes
	system time =       4.81 seconds =       0.08 minutes
	total time  =          1 seconds =       0.02 minutes
Total time:
	user time   =      87.32 seconds =       1.46 minutes
	system time =      66.19 seconds =       1.10 minutes
	total time  =         15 seconds =       0.25 minutes

*** tstart() called on Joses-MacBook-Pro-2.local
*** at Wed Jul 16 19:12:37 2025

         ------------------------------------------------------------
                                   SCF GRAD
                          Rob Parrish, Justin Turney,
                       Andy Simmonett, and Alex Sokolov
         ------------------------------------------------------------

  ==> Geometry <==

    Molecular point group: c2v
    Full point group: C_inf_v

    Geometry (in Angstrom), charge = 0, multiplicity = 4:

       Center              X                  Y                   Z               Mass
    ------------   -----------------  -----------------  -----------------  -----------------
         N            0.000000000000     0.000000000000     1.193991771612    14.003074004430
         SI           0.000000000000     0.000000000000    -0.597619438928    27.976926534650

  Nuclear repulsion =   28.945658712446473

  ==> Basis Set <==

  Basis Set: CC-PVDZ
    Blend: CC-PVDZ
    Number of shells: 14
    Number of basis functions: 32
    Number of Cartesian functions: 34
    Spherical Harmonics?: true
    Max angular momentum: 2

  ==> DFJKGrad: Density-Fitted SCF Gradients <==

    Gradient:                    1
    J tasked:                  Yes
    K tasked:                  Yes
    wK tasked:                  No
    OpenMP threads:              1
    Integrals threads:           1
    Memory [MiB]:              375
    Schwarz Cutoff:          1E-12
    Fitting Condition:       1E-10

   => Auxiliary Basis Set <=

  Basis Set: (CC-PVDZ AUX)
    Blend: CC-PVDZ-JKFIT
    Number of shells: 60
    Number of basis functions: 182
    Number of Cartesian functions: 211
    Spherical Harmonics?: true
    Max angular momentum: 3

  ==> DFT Potential <==

   => LibXC <=

    Version 6.2.2
    S. Lehtola, C. Steigemann, M. J.T. Oliveira, and M. A.L. Marques.,  SoftwareX 7, 1â€“5 (2018) (10.1016/j.softx.2017.11.002)

   => Composite Functional: B3LYP <=

    B3LYP Hyb-GGA Exchange-Correlation Functional

    P. J. Stephens, F. J. Devlin, C. F. Chabalowski, and M. J. Frisch.,  J. Phys. Chem. 98, 11623 (1994) (10.1021/j100096a001)

    Deriv               =              1
    GGA                 =           TRUE
    Meta                =          FALSE

    Exchange Hybrid     =           TRUE
    MP2 Hybrid          =          FALSE

   => Exchange Functionals <=

    0.0800   Slater exchange
    0.7200         Becke 88

   => Exact (HF) Exchange <=

    0.2000               HF

   => Correlation Functionals <=

    0.1900   Vosko, Wilk & Nusair (VWN5_RPA)
    0.8100   Lee, Yang & Parr

   => LibXC Density Thresholds  <==

    XC_HYB_GGA_XC_B3LYP:  1.00E-15

   => Molecular Quadrature <=

    Radial Scheme          =       TREUTLER
    Pruning Scheme         =           NONE
    Nuclear Scheme         =       TREUTLER

    Blocking Scheme        =         OCTREE
    BS radius alpha        =              1
    Pruning alpha          =              1
    Radial Points          =             75
    Spherical Points       =            302
    Total Points           =          42658
    Total Blocks           =            394
    Max Points             =            256
    Max Functions          =             32
    Weights Tolerance      =       1.00E-15

  -Total Gradient:
     Atom            X                  Y                   Z
    ------   -----------------  -----------------  -----------------
       1       -0.000000000000     0.000000000000    -0.000171730848
       2        0.000000000000     0.000000000000     0.000154838096

*** tstop() called on Joses-MacBook-Pro-2.local at Wed Jul 16 19:12:38 2025
Module time:
	user time   =       1.17 seconds =       0.02 minutes
	system time =       2.26 seconds =       0.04 minutes
	total time  =          1 seconds =       0.02 minutes
Total time:
	user time   =      88.49 seconds =       1.47 minutes
	system time =      68.45 seconds =       1.14 minutes
	total time  =         16 seconds =       0.27 minutes

    			-----------------------------------------

    			 OPTKING 3.0: for geometry optimizations

    			     By R.A. King, Bethel University

    			        with contributions from

    			    A.V. Copan, J. Cayton, A. Heide

    			-----------------------------------------

	                            ===> Fragment 1 <==

	 Z (Atomic Numbers)          Masses                          Geom
	       7.000000            14.003074          0.00000000  0.00000000  2.25631744
	      14.000000            27.976927          0.00000000  0.00000000 -1.12933707

	 - Coordinate -           - BOHR/RAD -       - ANG/DEG -
	 R(1,2)           =         3.385655           1.791611

	        --- Internal Coordinate Step in ANG or DEG, aJ/ANG or AJ/DEG ---
	-------------------------------------------------------------------------------
	           Coordinate      Previous         Force          Change          New
	           ----------      --------        ------          ------        ------
	               R(1,2)       1.79161        0.00135        0.00042       1.79203
	-------------------------------------------------------------------------------

	                                 ==> Convergence Check <==

	Measures of convergence in internal coordinates in au.

	Criteria marked as inactive (o), active & met (*), and active & unmet ( ).

	----------------------------------------------------------------------------------------------
	   Step    Total Energy     Delta E     Max Force     RMS Force      Max Disp      RMS Disp
	----------------------------------------------------------------------------------------------
	  Convergence Criteria     1.00e-06 *    3.00e-04 *             o    1.20e-03 *             o
	----------------------------------------------------------------------------------------------
	    11    -344.03802212   -1.93e-06      1.63e-04 *    1.63e-04 o    7.85e-04 *    7.85e-04 o  ~
	----------------------------------------------------------------------------------------------

Next Geometry in Ang
	Fragment 1 (Ang)

	    N   0.0000000000   0.0000000000   1.1941995435
	   Si   0.0000000000   0.0000000000  -0.5978272108

    Final optimized geometry and variables:
    Molecular point group: c2v
    Full point group: C_inf_v

    Geometry (in Angstrom), charge = 0, multiplicity = 4:

    N            0.000000000000     0.000000000000     1.193991771612
    SI           0.000000000000     0.000000000000    -0.597619438928

    Psi4 stopped on: Wednesday, 16 July 2025 07:12PM
    Psi4 wall time for execution: 0:00:16.67

*** Psi4 exiting successfully. Buy a developer a beer!
