                               Psi4 1.9.1 release

  ==> Input File <==

--------------------------------------------------------------------------
molecule {
0 4
Mg   0.00000        0.60000        0.00000
P   0.00000       -0.60000        0.00000
}

set {
basis              cc-pvdz
reference          uks
maxiter            500
geom_maxiter       500
DAMPING_PERCENTAGE 1
guess              SAP
}

optimize('b3lyp')
--------------------------------------------------------------------------

    Molecular point group: c2v
  Charge       = 0
  Multiplicity = 4
  Basis Set: CC-PVDZ
    Blend: CC-PVDZ
  Basis Set: (CC-PVDZ AUX)
    Blend: CC-PVDZ-JKFIT + DEF2-UNIVERSAL-JKFIT
  @DF-UKS Final Energy:  -540.26441301997158
    Total Energy =                       -540.2644130199715846
 Dipole X            :          0.0000000            0.0000000            0.0000000
 Dipole Y            :          0.0000000            0.0000000            0.0000000
 Dipole Z            :         -0.9233838            0.4914021           -0.4319817
 Magnitude           :                                                    0.4319817
    Molecular point group: c2v
  Basis Set: CC-PVDZ
    Blend: CC-PVDZ
  Basis Set: (CC-PVDZ AUX)
    Blend: CC-PVDZ-JKFIT + DEF2-UNIVERSAL-JKFIT
  Basis Set: CC-PVDZ
    Blend: CC-PVDZ
  Basis Set: (CC-PVDZ AUX)
    Blend: CC-PVDZ-JKFIT + DEF2-UNIVERSAL-JKFIT
  @DF-UKS Final Energy:  -540.27993814559284
    Total Energy =                       -540.2799381455928369
  Basis Set: CC-PVDZ
    Blend: CC-PVDZ
  Basis Set: (CC-PVDZ AUX)
    Blend: CC-PVDZ-JKFIT + DEF2-UNIVERSAL-JKFIT
  Basis Set: CC-PVDZ
    Blend: CC-PVDZ
  @DF-UKS Final Energy:  -540.30991935567408
    Total Energy =                       -540.3099193556740829
  @DF-UKS Final Energy:  -540.41872372545902
    Total Energy =                       -540.4187237254590173
  @DF-UKS Final Energy:  -540.88886404144500
    Total Energy =                       -540.8888640414450037
  @DF-UKS Final Energy:  -541.12387439755219
    Total Energy =                       -541.1238743975521857
  @DF-UKS Final Energy:  -541.24610536798366
    Total Energy =                       -541.2461053679836596
  @DF-UKS Final Energy:  -541.29973166514833
    Total Energy =                       -541.2997316651483288
  @DF-UKS Final Energy:  -541.32307882575753
    Total Energy =                       -541.3230788257575341
  @DF-UKS Final Energy:  -541.33141015105093
    Total Energy =                       -541.3314101510509317
  @DF-UKS Final Energy:  -541.33352616229331
    Total Energy =                       -541.3335261622933103
  @DF-UKS Final Energy:  -541.33378264276018
    Total Energy =                       -541.3337826427601840
  @DF-UKS Final Energy:  -541.33381645989709
    Total Energy =                       -541.3338164598970934
  Basis Set: (CC-PVDZ AUX)
    Blend: CC-PVDZ-JKFIT + DEF2-UNIVERSAL-JKFIT
  Basis Set: CC-PVDZ
    Blend: CC-PVDZ
  Basis Set: (CC-PVDZ AUX)
    Blend: CC-PVDZ-JKFIT + DEF2-UNIVERSAL-JKFIT
  @DF-UKS Final Energy:  -541.33382107042496
    Total Energy =                       -541.3338210704249605
  Basis Set: CC-PVDZ
    Blend: CC-PVDZ
  Basis Set: (CC-PVDZ AUX)
    Blend: CC-PVDZ-JKFIT + DEF2-UNIVERSAL-JKFIT
  Charge       = 0
  Multiplicity = 4
  Basis Set: CC-PVDZ
    Blend: CC-PVDZ
  Basis Set: (CC-PVDZ AUX)
    Blend: CC-PVDZ-JKFIT + DEF2-UNIVERSAL-JKFIT

    Orbital Energies [Eh]
    ---------------------

    Alpha Occupied:

       1A1   -77.067461     2A1   -46.894168     3A1    -6.537296
       4A1    -4.704038     1B1    -4.703551     1B2    -4.690509
       5A1    -3.173475     2B1    -1.917620     6A1    -1.916510
       2B2    -1.916350     7A1    -0.560746     8A1    -0.294278
       3B1    -0.233653     3B2    -0.198523     9A1    -0.193954

    Alpha Virtual:

       4B1    -0.048341     4B2    -0.040956    10A1     0.014049
      11A1     0.078892     5B1     0.127559     5B2     0.131780
      12A1     0.155832     6B1     0.248451     6B2     0.260243
      13A1     0.269988     1A2     0.270406    14A1     0.294823
       7B1     0.446640     7B2     0.472815    15A1     0.478281
       2A2     0.501023    16A1     0.505127    17A1     0.552220
       8B1     0.594841     8B2     0.618896    18A1     0.892260

    Beta Occupied:

       1A1   -77.059974     2A1   -46.890595     3A1    -6.529103
       4A1    -4.689204     1B1    -4.688536     1B2    -4.685634
       5A1    -3.167433     2B1    -1.913487     2B2    -1.912624
       6A1    -1.909912     7A1    -0.485517     3B2    -0.177133

    Beta Virtual:

       8A1    -0.176357     3B1    -0.111117     9A1    -0.083306
       4B2    -0.016079     4B1    -0.004789    10A1     0.037518
      11A1     0.098901     5B2     0.145669     5B1     0.149011
      12A1     0.202284     1A2     0.302988    13A1     0.306222
       6B2     0.307646     6B1     0.314503    14A1     0.341612
       7B2     0.484569     7B1     0.491295    15A1     0.524852
       2A2     0.547814    16A1     0.552177    17A1     0.591594
       8B2     0.659178     8B1     0.666703    18A1     0.937994

    Final Occupation by Irrep:
             A1    A2    B1    B2
    DOCC [     7,    0,    2,    3 ]
    SOCC [     2,    0,    1,    0 ]
    NA   [     9,    0,    3,    3 ]
    NB   [     7,    0,    2,    3 ]

  @DF-UKS Final Energy:  -541.33382173765222

   => Energetics <=

    Nuclear Repulsion Energy =             39.2982698553096554
    One-Electron Energy =                -829.3529578260347535
    Two-Electron Energy =                 280.7096998620085628
    DFT Exchange-Correlation Energy =     -31.9888336289355983
    Empirical Dispersion Energy =           0.0000000000000000
    VV10 Nonlocal Energy =                  0.0000000000000000
    Total Energy =                       -541.3338217376522152

  UHF NO Occupations:
  HONO-2 :    8 A1 1.0000000
  HONO-1 :    3 B1 1.0000000
  HONO-0 :    9 A1 1.0000000
  LUNO+0 :   10 A1 0.0010666
  LUNO+1 :    4 B2 0.0003787
  LUNO+2 :    4 B1 0.0000010
  LUNO+3 :    5 B2 0.0000009

Computation Completed

Properties will be evaluated at   0.000000,   0.000000,   0.000000 [a0]

Properties computed using the SCF density matrix

 Multipole Moments:

 ------------------------------------------------------------------------------------
     Multipole            Electronic (a.u.)      Nuclear  (a.u.)        Total (a.u.)
 ------------------------------------------------------------------------------------

 L = 1.  Multiply by 2.5417464519 to convert [e a0] to [Debye]
 Dipole X            :          0.0000000            0.0000000            0.0000000
 Dipole Y            :          0.0000000            0.0000000            0.0000000
 Dipole Z            :         -0.0060815            0.9925583            0.9864767
 Magnitude           :                                                    0.9864767

 ------------------------------------------------------------------------------------

*** tstop() called on Joses-MacBook-Pro-2.local at Wed Jul 16 19:58:00 2025
Module time:
	user time   =       7.54 seconds =       0.13 minutes
	system time =       2.36 seconds =       0.04 minutes
	total time  =          1 seconds =       0.02 minutes
Total time:
	user time   =     181.57 seconds =       3.03 minutes
	system time =      54.46 seconds =       0.91 minutes
	total time  =         22 seconds =       0.37 minutes

*** tstart() called on Joses-MacBook-Pro-2.local
*** at Wed Jul 16 19:58:00 2025

         ------------------------------------------------------------
                                   SCF GRAD
                          Rob Parrish, Justin Turney,
                       Andy Simmonett, and Alex Sokolov
         ------------------------------------------------------------

  ==> Geometry <==

    Molecular point group: c2v
    Full point group: C_inf_v

    Geometry (in Angstrom), charge = 0, multiplicity = 4:

       Center              X                  Y                   Z               Mass
    ------------   -----------------  -----------------  -----------------  -----------------
         MG           0.000000000000     0.000000000000     1.366019482799    23.985041697000
         P            0.000000000000     0.000000000000    -1.057799638788    30.973761998420

  Nuclear repulsion =   39.298269855309655

  ==> Basis Set <==

  Basis Set: CC-PVDZ
    Blend: CC-PVDZ
    Number of shells: 16
    Number of basis functions: 36
    Number of Cartesian functions: 38
    Spherical Harmonics?: true
    Max angular momentum: 2

  ==> DFJKGrad: Density-Fitted SCF Gradients <==

    Gradient:                    1
    J tasked:                  Yes
    K tasked:                  Yes
    wK tasked:                  No
    OpenMP threads:              1
    Integrals threads:           1
    Memory [MiB]:              375
    Schwarz Cutoff:          1E-12
    Fitting Condition:       1E-10

   => Auxiliary Basis Set <=

  Basis Set: (CC-PVDZ AUX)
    Blend: CC-PVDZ-JKFIT + DEF2-UNIVERSAL-JKFIT
    Number of shells: 70
    Number of basis functions: 224
    Number of Cartesian functions: 267
    Spherical Harmonics?: true
    Max angular momentum: 4

  ==> DFT Potential <==

   => LibXC <=

    Version 6.2.2
    S. Lehtola, C. Steigemann, M. J.T. Oliveira, and M. A.L. Marques.,  SoftwareX 7, 1â€“5 (2018) (10.1016/j.softx.2017.11.002)

   => Composite Functional: B3LYP <=

    B3LYP Hyb-GGA Exchange-Correlation Functional

    P. J. Stephens, F. J. Devlin, C. F. Chabalowski, and M. J. Frisch.,  J. Phys. Chem. 98, 11623 (1994) (10.1021/j100096a001)

    Deriv               =              1
    GGA                 =           TRUE
    Meta                =          FALSE

    Exchange Hybrid     =           TRUE
    MP2 Hybrid          =          FALSE

   => Exchange Functionals <=

    0.0800   Slater exchange
    0.7200         Becke 88

   => Exact (HF) Exchange <=

    0.2000               HF

   => Correlation Functionals <=

    0.1900   Vosko, Wilk & Nusair (VWN5_RPA)
    0.8100   Lee, Yang & Parr

   => LibXC Density Thresholds  <==

    XC_HYB_GGA_XC_B3LYP:  1.00E-15

   => Molecular Quadrature <=

    Radial Scheme          =       TREUTLER
    Pruning Scheme         =           NONE
    Nuclear Scheme         =       TREUTLER

    Blocking Scheme        =         OCTREE
    BS radius alpha        =              1
    Pruning alpha          =              1
    Radial Points          =             75
    Spherical Points       =            302
    Total Points           =          43012
    Total Blocks           =            419
    Max Points             =            256
    Max Functions          =             36
    Weights Tolerance      =       1.00E-15

  -Total Gradient:
     Atom            X                  Y                   Z
    ------   -----------------  -----------------  -----------------
       1        0.000000000000    -0.000000000000    -0.000051150334
       2       -0.000000000000     0.000000000000     0.000090648171

*** tstop() called on Joses-MacBook-Pro-2.local at Wed Jul 16 19:58:01 2025
Module time:
	user time   =       4.24 seconds =       0.07 minutes
	system time =       1.16 seconds =       0.02 minutes
	total time  =          1 seconds =       0.02 minutes
Total time:
	user time   =     185.81 seconds =       3.10 minutes
	system time =      55.62 seconds =       0.93 minutes
	total time  =         23 seconds =       0.38 minutes

    			-----------------------------------------

    			 OPTKING 3.0: for geometry optimizations

    			     By R.A. King, Bethel University

    			        with contributions from

    			    A.V. Copan, J. Cayton, A. Heide

    			-----------------------------------------

	                            ===> Fragment 1 <==

	 Z (Atomic Numbers)          Masses                          Geom
	      12.000000            23.985042          0.00000000  0.00000000  2.58140270
	      15.000000            30.973762          0.00000000  0.00000000 -1.99895161

	 - Coordinate -           - BOHR/RAD -       - ANG/DEG -
	 R(1,2)           =         4.580354           2.423819

	        --- Internal Coordinate Step in ANG or DEG, aJ/ANG or AJ/DEG ---
	-------------------------------------------------------------------------------
	           Coordinate      Previous         Force          Change          New
	           ----------      --------        ------          ------        ------
	               R(1,2)       2.42382        0.00058        0.00051       2.42433
	-------------------------------------------------------------------------------

	                                 ==> Convergence Check <==

	Measures of convergence in internal coordinates in au.

	Criteria marked as inactive (o), active & met (*), and active & unmet ( ).

	----------------------------------------------------------------------------------------------
	   Step    Total Energy     Delta E     Max Force     RMS Force      Max Disp      RMS Disp
	----------------------------------------------------------------------------------------------
	  Convergence Criteria     1.00e-06 *    3.00e-04 *             o    1.20e-03 *             o
	----------------------------------------------------------------------------------------------
	    15    -541.33382174   -6.67e-07 *    7.09e-05 *    7.09e-05 o    9.68e-04 *    9.68e-04 o  ~
	----------------------------------------------------------------------------------------------

Next Geometry in Ang
	Fragment 1 (Ang)

	   Mg   0.0000000000   0.0000000000   1.3662755427
	    P   0.0000000000   0.0000000000  -1.0580556987

    Final optimized geometry and variables:
    Molecular point group: c2v
    Full point group: C_inf_v

    Geometry (in Angstrom), charge = 0, multiplicity = 4:

    MG           0.000000000000     0.000000000000     1.366019482799
    P            0.000000000000     0.000000000000    -1.057799638788

    Psi4 stopped on: Wednesday, 16 July 2025 07:58PM
    Psi4 wall time for execution: 0:00:23.76

*** Psi4 exiting successfully. Buy a developer a beer!
