                               Psi4 1.9.1 release

  ==> Input File <==

--------------------------------------------------------------------------
molecule {
0 4
H   0.00000        0.60000        0.00000
Be   0.00000       -0.60000        0.00000
}

set {
basis              cc-pvdz
reference          uks
maxiter            500
geom_maxiter       500
DAMPING_PERCENTAGE 1
guess              SAP
}

optimize('b3lyp')
--------------------------------------------------------------------------

    Molecular point group: c2v
  Charge       = 0
  Multiplicity = 4
  Basis Set: CC-PVDZ
    Blend: CC-PVDZ
  Basis Set: (CC-PVDZ AUX)
    Blend: CC-PVDZ-JKFIT + DEF2-UNIVERSAL-JKFIT
  @DF-UKS Final Energy:   -15.01454867148821
    Total Energy =                        -15.0145486714882050
 Dipole X            :          0.0000000            0.0000000            0.0000000
 Dipole Y            :          0.0000000            0.0000000            0.0000000
 Dipole Z            :          0.0719250            1.1272452            1.1991702
 Magnitude           :                                                    1.1991702
    Molecular point group: c2v
  Basis Set: CC-PVDZ
    Blend: CC-PVDZ
  Basis Set: (CC-PVDZ AUX)
    Blend: CC-PVDZ-JKFIT + DEF2-UNIVERSAL-JKFIT
  Basis Set: CC-PVDZ
    Blend: CC-PVDZ
  Basis Set: (CC-PVDZ AUX)
    Blend: CC-PVDZ-JKFIT + DEF2-UNIVERSAL-JKFIT
  @DF-UKS Final Energy:   -15.04669601019939
    Total Energy =                        -15.0466960101993941
  Basis Set: CC-PVDZ
    Blend: CC-PVDZ
  Basis Set: (CC-PVDZ AUX)
    Blend: CC-PVDZ-JKFIT + DEF2-UNIVERSAL-JKFIT
  Basis Set: CC-PVDZ
    Blend: CC-PVDZ
  @DF-UKS Final Energy:   -15.05823158491893
    Total Energy =                        -15.0582315849189321
  @DF-UKS Final Energy:   -15.06601074301031
    Total Energy =                        -15.0660107430103132
  @DF-UKS Final Energy:   -15.07091401035886
    Total Energy =                        -15.0709140103588553
  @DF-UKS Final Energy:   -15.07452669540977
    Total Energy =                        -15.0745266954097747
  @DF-UKS Final Energy:   -15.07720641497681
    Total Energy =                        -15.0772064149768106
  @DF-UKS Final Energy:   -15.07751239465219
    Total Energy =                        -15.0775123946521852
  @DF-UKS Final Energy:   -15.07925683022647
    Total Energy =                        -15.0792568302264733
  @DF-UKS Final Energy:   -15.07936017288534
    Total Energy =                        -15.0793601728853357
  @DF-UKS Final Energy:   -15.08021942062573
    Total Energy =                        -15.0802194206257347
  @DF-UKS Final Energy:   -15.08025117892245
    Total Energy =                        -15.0802511789224489
  @DF-UKS Final Energy:   -15.08067328917176
    Total Energy =                        -15.0806732891717594
  @DF-UKS Final Energy:   -15.08068280025866
    Total Energy =                        -15.0806828002586588
  @DF-UKS Final Energy:   -15.08089872586009
    Total Energy =                        -15.0808987258600933
  @DF-UKS Final Energy:   -15.08090165814728
    Total Energy =                        -15.0809016581472761
  @DF-UKS Final Energy:   -15.08090452450295
    Total Energy =                        -15.0809045245029498
  Basis Set: (CC-PVDZ AUX)
    Blend: CC-PVDZ-JKFIT + DEF2-UNIVERSAL-JKFIT
  Basis Set: CC-PVDZ
    Blend: CC-PVDZ
  Basis Set: (CC-PVDZ AUX)
    Blend: CC-PVDZ-JKFIT + DEF2-UNIVERSAL-JKFIT
  @DF-UKS Final Energy:   -15.08101961530449
    Total Energy =                        -15.0810196153044842
  Basis Set: CC-PVDZ
    Blend: CC-PVDZ
  Basis Set: (CC-PVDZ AUX)
    Blend: CC-PVDZ-JKFIT + DEF2-UNIVERSAL-JKFIT
  Charge       = 0
  Multiplicity = 4
  Basis Set: CC-PVDZ
    Blend: CC-PVDZ
  Basis Set: (CC-PVDZ AUX)
    Blend: CC-PVDZ-JKFIT + DEF2-UNIVERSAL-JKFIT

    Orbital Energies [Eh]
    ---------------------

    Alpha Occupied:

       1A1    -4.115209     2A1    -0.324509     3A1    -0.268710
       1B2    -0.138304

    Alpha Virtual:

       1B1    -0.066110     4A1    -0.065021     2B2     0.165908
       5A1     0.178496     2B1     0.185351     6A1     0.188802
       7A1     0.424181     1A2     0.441919     3B2     0.441934
       8A1     0.450881     3B1     0.460357     9A1     0.477196
       4B1     1.205393     4B2     1.205520    10A1     1.211708

    Beta Occupied:

       1A1    -4.096616

    Beta Virtual:

       2A1    -0.121175     3A1    -0.044659     1B1    -0.007996
       4A1    -0.000701     1B2     0.024604     2B1     0.209102
       5A1     0.213629     6A1     0.230205     2B2     0.236788
       7A1     0.520073     3B1     0.522801     3B2     0.553951
       1A2     0.554392     8A1     0.559143     9A1     0.651233
      10A1     1.445553     4B1     1.445720     4B2     1.445851

    Final Occupation by Irrep:
             A1    A2    B1    B2
    DOCC [     1,    0,    0,    0 ]
    SOCC [     2,    0,    0,    1 ]
    NA   [     3,    0,    0,    1 ]
    NB   [     1,    0,    0,    0 ]

  @DF-UKS Final Energy:   -15.08102055503479

   => Energetics <=

    Nuclear Repulsion Energy =              0.5046726526020816
    One-Electron Energy =                 -20.4146242625801690
    Two-Electron Energy =                   7.3329328011580852
    DFT Exchange-Correlation Energy =      -2.5040017462147866
    Empirical Dispersion Energy =           0.0000000000000000
    VV10 Nonlocal Energy =                  0.0000000000000000
    Total Energy =                        -15.0810205550347884

  UHF NO Occupations:
  HONO-2 :    2 A1 1.0000000
  HONO-1 :    3 A1 1.0000000
  HONO-0 :    1 B2 1.0000000
  LUNO+0 :    4 A1 0.0000007
  LUNO+1 :    5 A1 0.0000000
  LUNO+2 :    2 B2 0.0000000
  LUNO+3 :    6 A1 0.0000000

Computation Completed

Properties will be evaluated at   0.000000,   0.000000,   0.000000 [a0]

Properties computed using the SCF density matrix

 Multipole Moments:

 ------------------------------------------------------------------------------------
     Multipole            Electronic (a.u.)      Nuclear  (a.u.)        Total (a.u.)
 ------------------------------------------------------------------------------------

 L = 1.  Multiply by 2.5417464519 to convert [e a0] to [Debye]
 Dipole X            :          0.0000000            0.0000000            0.0000000
 Dipole Y            :          0.0000000            0.0000000            0.0000000
 Dipole Z            :         -3.9174924            3.9399298            0.0224374
 Magnitude           :                                                    0.0224374

 ------------------------------------------------------------------------------------

*** tstop() called on Joses-MacBook-Pro-2.local at Wed Jul 16 18:12:32 2025
Module time:
	user time   =       0.52 seconds =       0.01 minutes
	system time =       2.62 seconds =       0.04 minutes
	total time  =          0 seconds =       0.00 minutes
Total time:
	user time   =      19.99 seconds =       0.33 minutes
	system time =      75.81 seconds =       1.26 minutes
	total time  =          9 seconds =       0.15 minutes

*** tstart() called on Joses-MacBook-Pro-2.local
*** at Wed Jul 16 18:12:32 2025

         ------------------------------------------------------------
                                   SCF GRAD
                          Rob Parrish, Justin Turney,
                       Andy Simmonett, and Alex Sokolov
         ------------------------------------------------------------

  ==> Geometry <==

    Molecular point group: c2v
    Full point group: C_inf_v

    Geometry (in Angstrom), charge = 0, multiplicity = 4:

       Center              X                  Y                   Z               Mass
    ------------   -----------------  -----------------  -----------------  -----------------
         H            0.000000000000     0.000000000000     3.772361335565     1.007825032230
         BE           0.000000000000     0.000000000000    -0.421860070660     9.012183065000

  Nuclear repulsion =    0.504672652602082

  ==> Basis Set <==

  Basis Set: CC-PVDZ
    Blend: CC-PVDZ
    Number of shells: 9
    Number of basis functions: 19
    Number of Cartesian functions: 20
    Spherical Harmonics?: true
    Max angular momentum: 2

  ==> DFJKGrad: Density-Fitted SCF Gradients <==

    Gradient:                    1
    J tasked:                  Yes
    K tasked:                  Yes
    wK tasked:                  No
    OpenMP threads:              1
    Integrals threads:           1
    Memory [MiB]:              375
    Schwarz Cutoff:          1E-12
    Fitting Condition:       1E-10

   => Auxiliary Basis Set <=

  Basis Set: (CC-PVDZ AUX)
    Blend: CC-PVDZ-JKFIT + DEF2-UNIVERSAL-JKFIT
    Number of shells: 26
    Number of basis functions: 74
    Number of Cartesian functions: 85
    Spherical Harmonics?: true
    Max angular momentum: 3

  ==> DFT Potential <==

   => LibXC <=

    Version 6.2.2
    S. Lehtola, C. Steigemann, M. J.T. Oliveira, and M. A.L. Marques.,  SoftwareX 7, 1â€“5 (2018) (10.1016/j.softx.2017.11.002)

   => Composite Functional: B3LYP <=

    B3LYP Hyb-GGA Exchange-Correlation Functional

    P. J. Stephens, F. J. Devlin, C. F. Chabalowski, and M. J. Frisch.,  J. Phys. Chem. 98, 11623 (1994) (10.1021/j100096a001)

    Deriv               =              1
    GGA                 =           TRUE
    Meta                =          FALSE

    Exchange Hybrid     =           TRUE
    MP2 Hybrid          =          FALSE

   => Exchange Functionals <=

    0.0800   Slater exchange
    0.7200         Becke 88

   => Exact (HF) Exchange <=

    0.2000               HF

   => Correlation Functionals <=

    0.1900   Vosko, Wilk & Nusair (VWN5_RPA)
    0.8100   Lee, Yang & Parr

   => LibXC Density Thresholds  <==

    XC_HYB_GGA_XC_B3LYP:  1.00E-15

   => Molecular Quadrature <=

    Radial Scheme          =       TREUTLER
    Pruning Scheme         =           NONE
    Nuclear Scheme         =       TREUTLER

    Blocking Scheme        =         OCTREE
    BS radius alpha        =              1
    Pruning alpha          =              1
    Radial Points          =             75
    Spherical Points       =            302
    Total Points           =          43689
    Total Blocks           =            426
    Max Points             =            254
    Max Functions          =             19
    Weights Tolerance      =       1.00E-15

  -Total Gradient:
     Atom            X                  Y                   Z
    ------   -----------------  -----------------  -----------------
       1        0.000000000000    -0.000000000000    -0.000140233603
       2       -0.000000000000     0.000000000000     0.000138737384

*** tstop() called on Joses-MacBook-Pro-2.local at Wed Jul 16 18:12:32 2025
Module time:
	user time   =       0.39 seconds =       0.01 minutes
	system time =       0.78 seconds =       0.01 minutes
	total time  =          0 seconds =       0.00 minutes
Total time:
	user time   =      20.38 seconds =       0.34 minutes
	system time =      76.60 seconds =       1.28 minutes
	total time  =          9 seconds =       0.15 minutes

    			-----------------------------------------

    			 OPTKING 3.0: for geometry optimizations

    			     By R.A. King, Bethel University

    			        with contributions from

    			    A.V. Copan, J. Cayton, A. Heide

    			-----------------------------------------

	                            ===> Fragment 1 <==

	 Z (Atomic Numbers)          Masses                          Geom
	       1.000000             1.007825          0.00000000  0.00000000  7.12872977
	       4.000000             9.012183          0.00000000  0.00000000 -0.79720000

	 - Coordinate -           - BOHR/RAD -       - ANG/DEG -
	 R(1,2)           =         7.925930           4.194221

	        --- Internal Coordinate Step in ANG or DEG, aJ/ANG or AJ/DEG ---
	-------------------------------------------------------------------------------
	           Coordinate      Previous         Force          Change          New
	           ----------      --------        ------          ------        ------
	               R(1,2)       4.19422        0.00115        0.00355       4.19777
	-------------------------------------------------------------------------------

	                                 ==> Convergence Check <==

	Measures of convergence in internal coordinates in au.

	Criteria marked as inactive (o), active & met (*), and active & unmet ( ).

	----------------------------------------------------------------------------------------------
	   Step    Total Energy     Delta E     Max Force     RMS Force      Max Disp      RMS Disp
	----------------------------------------------------------------------------------------------
	  Convergence Criteria     1.00e-06 *    3.00e-04 *             o    1.20e-03 *             o
	----------------------------------------------------------------------------------------------
	    19     -15.08102056   -9.40e-07 *    1.39e-04 *    1.39e-04 o    6.71e-03      6.71e-03 o  ~
	----------------------------------------------------------------------------------------------

Next Geometry in Ang
	Fragment 1 (Ang)

	    H   0.0000000000   0.0000000000   3.7741356306
	   Be   0.0000000000   0.0000000000  -0.4236343657

    Final optimized geometry and variables:
    Molecular point group: c2v
    Full point group: C_inf_v

    Geometry (in Angstrom), charge = 0, multiplicity = 4:

    H            0.000000000000     0.000000000000     3.772361335565
    BE           0.000000000000     0.000000000000    -0.421860070660

    Psi4 stopped on: Wednesday, 16 July 2025 06:12PM
    Psi4 wall time for execution: 0:00:10.44

*** Psi4 exiting successfully. Buy a developer a beer!
