                               Psi4 1.9.1 release

  ==> Input File <==

--------------------------------------------------------------------------
molecule {
0 4
He   0.00000        0.60000        0.00000
Na   0.00000       -0.60000        0.00000
}

set {
basis              cc-pvdz
reference          uks
maxiter            500
geom_maxiter       500
DAMPING_PERCENTAGE 1
guess              SAP
}

optimize('b3lyp')
--------------------------------------------------------------------------

    Molecular point group: c2v
  Charge       = 0
  Multiplicity = 4
  Basis Set: CC-PVDZ
    Blend: CC-PVDZ
  Basis Set: (CC-PVDZ AUX)
    Blend: DEF2-UNIVERSAL-JKFIT
  @DF-UKS Final Energy:  -164.26545415273574
    Total Energy =                       -164.2654541527357424
 Dipole X            :          0.0000000            0.0000000            0.0000000
 Dipole Y            :          0.0000000            0.0000000            0.0000000
 Dipole Z            :          0.1484455            0.1638984            0.3123439
 Magnitude           :                                                    0.3123439
    Molecular point group: c2v
  Basis Set: CC-PVDZ
    Blend: CC-PVDZ
  Basis Set: (CC-PVDZ AUX)
    Blend: DEF2-UNIVERSAL-JKFIT
  Basis Set: CC-PVDZ
    Blend: CC-PVDZ
  Basis Set: (CC-PVDZ AUX)
    Blend: DEF2-UNIVERSAL-JKFIT
  @DF-UKS Final Energy:  -164.32955729915764
    Total Energy =                       -164.3295572991576421
  Basis Set: CC-PVDZ
    Blend: CC-PVDZ
  Basis Set: (CC-PVDZ AUX)
    Blend: DEF2-UNIVERSAL-JKFIT
  Basis Set: CC-PVDZ
    Blend: CC-PVDZ
  @DF-UKS Final Energy:  -164.35661062327651
    Total Energy =                       -164.3566106232764810
  @DF-UKS Final Energy:  -164.38596485628065
    Total Energy =                       -164.3859648562806512
  @DF-UKS Final Energy:  -164.39789761527140
    Total Energy =                       -164.3978976152714040
  @DF-UKS Final Energy:  -164.41367012493984
    Total Energy =                       -164.4136701249398698
  @DF-UKS Final Energy:  -164.41628374215378
    Total Energy =                       -164.4162837421537802
  @DF-UKS Final Energy:  -164.41973205625447
    Total Energy =                       -164.4197320562544746
  @DF-UKS Final Energy:  -164.42013687369229
    Total Energy =                       -164.4201368736922859
  Basis Set: (CC-PVDZ AUX)
    Blend: DEF2-UNIVERSAL-JKFIT
  Basis Set: CC-PVDZ
    Blend: CC-PVDZ
  Basis Set: (CC-PVDZ AUX)
    Blend: DEF2-UNIVERSAL-JKFIT
  @DF-UKS Final Energy:  -164.42015427800081
    Total Energy =                       -164.4201542780008083
  Basis Set: CC-PVDZ
    Blend: CC-PVDZ
  Basis Set: (CC-PVDZ AUX)
    Blend: DEF2-UNIVERSAL-JKFIT
  Charge       = 0
  Multiplicity = 4
  Basis Set: CC-PVDZ
    Blend: CC-PVDZ
  Basis Set: (CC-PVDZ AUX)
    Blend: DEF2-UNIVERSAL-JKFIT

    Orbital Energies [Eh]
    ---------------------

    Alpha Occupied:

       1A1   -38.473435     2A1    -2.222025     3A1    -1.414133
       4A1    -1.154853     1B1    -1.153104     1B2    -1.151436
       5A1    -0.164341     2B2    -0.068281

    Alpha Virtual:

       6A1    -0.035061     2B1    -0.028695     7A1     0.006396
       3B2     0.059299     8A1     0.067161     3B1     0.071962
       4B2     0.139068     4B1     0.147751     9A1     0.151481
       1A2     0.158787    10A1     0.167507    11A1     0.773993
       5B1     1.552954     5B2     1.553903    12A1     1.604410

    Beta Occupied:

       1A1   -38.471665     2A1    -2.218798     3A1    -1.152192
       1B1    -1.151369     1B2    -1.148056

    Beta Virtual:

       4A1    -0.816443     5A1    -0.071101     6A1    -0.014128
       2B1    -0.003008     2B2     0.004219     7A1     0.042623
       8A1     0.078572     3B1     0.088742     3B2     0.097585
       4B1     0.162115     4B2     0.172369     9A1     0.181625
       1A2     0.195204    10A1     0.199922    11A1     1.038502
       5B1     1.850561     5B2     1.851861    12A1     1.899533

    Final Occupation by Irrep:
             A1    A2    B1    B2
    DOCC [     3,    0,    1,    1 ]
    SOCC [     2,    0,    0,    1 ]
    NA   [     5,    0,    1,    2 ]
    NB   [     3,    0,    1,    1 ]

  @DF-UKS Final Energy:  -164.42015434945392

   => Energetics <=

    Nuclear Repulsion Energy =              4.1541682482810067
    One-Electron Energy =                -238.4382435019986133
    Two-Electron Energy =                  82.1179236072134557
    DFT Exchange-Correlation Energy =     -12.2540027029497391
    Empirical Dispersion Energy =           0.0000000000000000
    VV10 Nonlocal Energy =                  0.0000000000000000
    Total Energy =                       -164.4201543494538953

  UHF NO Occupations:
  HONO-2 :    2 B2 1.0000000
  HONO-1 :    4 A1 1.0000000
  HONO-0 :    5 A1 1.0000000
  LUNO+0 :    6 A1 0.0000009
  LUNO+1 :    3 B2 0.0000006
  LUNO+2 :    2 B1 0.0000005
  LUNO+3 :    7 A1 0.0000000

Computation Completed

Properties will be evaluated at   0.000000,   0.000000,   0.000000 [a0]

Properties computed using the SCF density matrix

 Multipole Moments:

 ------------------------------------------------------------------------------------
     Multipole            Electronic (a.u.)      Nuclear  (a.u.)        Total (a.u.)
 ------------------------------------------------------------------------------------

 L = 1.  Multiply by 2.5417464519 to convert [e a0] to [Debye]
 Dipole X            :          0.0000000            0.0000000            0.0000000
 Dipole Y            :          0.0000000            0.0000000            0.0000000
 Dipole Z            :          2.1645277            0.3827658            2.5472935
 Magnitude           :                                                    2.5472935

 ------------------------------------------------------------------------------------

*** tstop() called on Joses-MacBook-Pro-2.local at Wed Jul 16 18:22:26 2025
Module time:
	user time   =       1.72 seconds =       0.03 minutes
	system time =       3.07 seconds =       0.05 minutes
	total time  =          0 seconds =       0.00 minutes
Total time:
	user time   =      39.41 seconds =       0.66 minutes
	system time =      46.96 seconds =       0.78 minutes
	total time  =          8 seconds =       0.13 minutes

*** tstart() called on Joses-MacBook-Pro-2.local
*** at Wed Jul 16 18:22:26 2025

         ------------------------------------------------------------
                                   SCF GRAD
                          Rob Parrish, Justin Turney,
                       Andy Simmonett, and Alex Sokolov
         ------------------------------------------------------------

  ==> Geometry <==

    Molecular point group: c2v
    Full point group: C_inf_v

    Geometry (in Angstrom), charge = 0, multiplicity = 4:

       Center              X                  Y                   Z               Mass
    ------------   -----------------  -----------------  -----------------  -----------------
         HE           0.000000000000     0.000000000000     2.386894838157     4.002603254130
         NA           0.000000000000     0.000000000000    -0.415567156385    22.989769282000

  Nuclear repulsion =    4.154168248281007

  ==> Basis Set <==

  Basis Set: CC-PVDZ
    Blend: CC-PVDZ
    Number of shells: 11
    Number of basis functions: 23
    Number of Cartesian functions: 24
    Spherical Harmonics?: true
    Max angular momentum: 2

  ==> DFJKGrad: Density-Fitted SCF Gradients <==

    Gradient:                    1
    J tasked:                  Yes
    K tasked:                  Yes
    wK tasked:                  No
    OpenMP threads:              1
    Integrals threads:           1
    Memory [MiB]:              375
    Schwarz Cutoff:          1E-12
    Fitting Condition:       1E-10

   => Auxiliary Basis Set <=

  Basis Set: (CC-PVDZ AUX)
    Blend: DEF2-UNIVERSAL-JKFIT
    Number of shells: 43
    Number of basis functions: 135
    Number of Cartesian functions: 162
    Spherical Harmonics?: true
    Max angular momentum: 4

  ==> DFT Potential <==

   => LibXC <=

    Version 6.2.2
    S. Lehtola, C. Steigemann, M. J.T. Oliveira, and M. A.L. Marques.,  SoftwareX 7, 1â€“5 (2018) (10.1016/j.softx.2017.11.002)

   => Composite Functional: B3LYP <=

    B3LYP Hyb-GGA Exchange-Correlation Functional

    P. J. Stephens, F. J. Devlin, C. F. Chabalowski, and M. J. Frisch.,  J. Phys. Chem. 98, 11623 (1994) (10.1021/j100096a001)

    Deriv               =              1
    GGA                 =           TRUE
    Meta                =          FALSE

    Exchange Hybrid     =           TRUE
    MP2 Hybrid          =          FALSE

   => Exchange Functionals <=

    0.0800   Slater exchange
    0.7200         Becke 88

   => Exact (HF) Exchange <=

    0.2000               HF

   => Correlation Functionals <=

    0.1900   Vosko, Wilk & Nusair (VWN5_RPA)
    0.8100   Lee, Yang & Parr

   => LibXC Density Thresholds  <==

    XC_HYB_GGA_XC_B3LYP:  1.00E-15

   => Molecular Quadrature <=

    Radial Scheme          =       TREUTLER
    Pruning Scheme         =           NONE
    Nuclear Scheme         =       TREUTLER

    Blocking Scheme        =         OCTREE
    BS radius alpha        =              1
    Pruning alpha          =              1
    Radial Points          =             75
    Spherical Points       =            302
    Total Points           =          43840
    Total Blocks           =            402
    Max Points             =            255
    Max Functions          =             23
    Weights Tolerance      =       1.00E-15

  -Total Gradient:
     Atom            X                  Y                   Z
    ------   -----------------  -----------------  -----------------
       1       -0.000000000000     0.000000000000    -0.000013183450
       2        0.000000000000    -0.000000000000    -0.000003969315

*** tstop() called on Joses-MacBook-Pro-2.local at Wed Jul 16 18:22:27 2025
Module time:
	user time   =       0.74 seconds =       0.01 minutes
	system time =       1.17 seconds =       0.02 minutes
	total time  =          1 seconds =       0.02 minutes
Total time:
	user time   =      40.15 seconds =       0.67 minutes
	system time =      48.13 seconds =       0.80 minutes
	total time  =          9 seconds =       0.15 minutes

    			-----------------------------------------

    			 OPTKING 3.0: for geometry optimizations

    			     By R.A. King, Bethel University

    			        with contributions from

    			    A.V. Copan, J. Cayton, A. Heide

    			-----------------------------------------

	                            ===> Fragment 1 <==

	 Z (Atomic Numbers)          Masses                          Geom
	       2.000000             4.002603          0.00000000  0.00000000  4.51057753
	      11.000000            22.989769          0.00000000  0.00000000 -0.78530811

	 - Coordinate -           - BOHR/RAD -       - ANG/DEG -
	 R(1,2)           =         5.295886           2.802462

	        --- Internal Coordinate Step in ANG or DEG, aJ/ANG or AJ/DEG ---
	-------------------------------------------------------------------------------
	           Coordinate      Previous         Force          Change          New
	           ----------      --------        ------          ------        ------
	               R(1,2)       2.80246        0.00004        0.00014       2.80261
	-------------------------------------------------------------------------------

	                                 ==> Convergence Check <==

	Measures of convergence in internal coordinates in au.

	Criteria marked as inactive (o), active & met (*), and active & unmet ( ).

	----------------------------------------------------------------------------------------------
	   Step    Total Energy     Delta E     Max Force     RMS Force      Max Disp      RMS Disp
	----------------------------------------------------------------------------------------------
	  Convergence Criteria     1.00e-06 *    3.00e-04 *             o    1.20e-03 *             o
	----------------------------------------------------------------------------------------------
	    11    -164.42015435   -7.15e-08 *    4.61e-06 *    4.61e-06 o    2.73e-04 *    2.73e-04 o  ~
	----------------------------------------------------------------------------------------------

Next Geometry in Ang
	Fragment 1 (Ang)

	   He   0.0000000000   0.0000000000   2.3869671566
	   Na   0.0000000000   0.0000000000  -0.4156394748

    Final optimized geometry and variables:
    Molecular point group: c2v
    Full point group: C_inf_v

    Geometry (in Angstrom), charge = 0, multiplicity = 4:

    HE           0.000000000000     0.000000000000     2.386894838157
    NA           0.000000000000     0.000000000000    -0.415567156385

    Psi4 stopped on: Wednesday, 16 July 2025 06:22PM
    Psi4 wall time for execution: 0:00:09.23

*** Psi4 exiting successfully. Buy a developer a beer!
