                               Psi4 1.9.1 release

  ==> Input File <==

--------------------------------------------------------------------------
molecule {
0 4
Li   0.00000        0.60000        0.00000
Ar   0.00000       -0.60000        0.00000
}

set {
basis              cc-pvdz
reference          uks
maxiter            500
geom_maxiter       500
DAMPING_PERCENTAGE 1
guess              SAP
}

optimize('b3lyp')
--------------------------------------------------------------------------

    Molecular point group: c2v
  Charge       = 0
  Multiplicity = 4
  Basis Set: CC-PVDZ
    Blend: CC-PVDZ
  Basis Set: (CC-PVDZ AUX)
    Blend: CC-PVDZ-JKFIT + DEF2-UNIVERSAL-JKFIT
  @DF-UKS Final Energy:  -534.05987946857886
    Total Energy =                       -534.0598794685788562
 Dipole X            :          0.0000000            0.0000000            0.0000000
 Dipole Y            :          0.0000000            0.0000000            0.0000000
 Dipole Z            :         -2.0542034           -0.3089754           -2.3631788
 Magnitude           :                                                    2.3631788
    Molecular point group: c2v
  Basis Set: CC-PVDZ
    Blend: CC-PVDZ
  Basis Set: (CC-PVDZ AUX)
    Blend: CC-PVDZ-JKFIT + DEF2-UNIVERSAL-JKFIT
  Basis Set: CC-PVDZ
    Blend: CC-PVDZ
  Basis Set: (CC-PVDZ AUX)
    Blend: CC-PVDZ-JKFIT + DEF2-UNIVERSAL-JKFIT
  @DF-UKS Final Energy:  -534.20948380996288
    Total Energy =                       -534.2094838099628760
  Basis Set: CC-PVDZ
    Blend: CC-PVDZ
  Basis Set: (CC-PVDZ AUX)
    Blend: CC-PVDZ-JKFIT + DEF2-UNIVERSAL-JKFIT
  Basis Set: CC-PVDZ
    Blend: CC-PVDZ
  @DF-UKS Final Energy:  -534.33484753952450
    Total Energy =                       -534.3348475395245032
  @DF-UKS Final Energy:  -534.41846973633301
    Total Energy =                       -534.4184697363330088
  @DF-UKS Final Energy:  -534.47928577624498
    Total Energy =                       -534.4792857762449785
  @DF-UKS Final Energy:  -534.51748903909856
    Total Energy =                       -534.5174890390985638
  @DF-UKS Final Energy:  -534.54524175967288
    Total Energy =                       -534.5452417596728765
  @DF-UKS Final Energy:  -534.56440611221979
    Total Energy =                       -534.5644061122198991
  @DF-UKS Final Energy:  -534.56637708047163
    Total Energy =                       -534.5663770804716250
  @DF-UKS Final Energy:  -534.57605914077715
    Total Energy =                       -534.5760591407771471
  @DF-UKS Final Energy:  -534.57644783684736
    Total Energy =                       -534.5764478368473647
  @DF-UKS Final Energy:  -534.57891199154051
    Total Energy =                       -534.5789119915406218
  @DF-UKS Final Energy:  -534.57916264693654
    Total Energy =                       -534.5791626469365383
  Basis Set: (CC-PVDZ AUX)
    Blend: CC-PVDZ-JKFIT + DEF2-UNIVERSAL-JKFIT
  Basis Set: CC-PVDZ
    Blend: CC-PVDZ
  Basis Set: (CC-PVDZ AUX)
    Blend: CC-PVDZ-JKFIT + DEF2-UNIVERSAL-JKFIT
  @DF-UKS Final Energy:  -534.57917569098845
    Total Energy =                       -534.5791756909884498
  Basis Set: CC-PVDZ
    Blend: CC-PVDZ
  Basis Set: (CC-PVDZ AUX)
    Blend: CC-PVDZ-JKFIT + DEF2-UNIVERSAL-JKFIT
  Charge       = 0
  Multiplicity = 4
  Basis Set: CC-PVDZ
    Blend: CC-PVDZ
  Basis Set: (CC-PVDZ AUX)
    Blend: CC-PVDZ-JKFIT + DEF2-UNIVERSAL-JKFIT

    Orbital Energies [Eh]
    ---------------------

    Alpha Occupied:

       1A1  -115.451507     2A1   -11.477793     3A1    -9.050404
       1B1    -9.020433     1B2    -9.020271     4A1    -1.992023
       5A1    -1.275797     6A1    -0.754076     2B1    -0.689133
       2B2    -0.687953     7A1    -0.137452     3B2    -0.062713

    Alpha Virtual:

       8A1    -0.021721     3B1    -0.018949     9A1     0.036982
       4B2     0.071740     4B1     0.088477    10A1     0.108002
       5B2     0.206111     5B1     0.221501    11A1     0.230540
       1A2     0.235299    12A1     0.245703    13A1     0.411040
       6B1     0.424562     6B2     0.425636    14A1     0.523970
       7B1     0.534275     7B2     0.534397    15A1     0.568288
       2A2     0.568315    16A1     0.742120

    Beta Occupied:

       1A1  -115.442065     2A1   -11.468656     3A1    -9.021623
       1B1    -9.014854     1B2    -9.014467     4A1    -1.985410
       5A1    -1.211361     2B1    -0.668575     2B2    -0.666763

    Beta Virtual:

       6A1    -0.561804     7A1    -0.049434     8A1    -0.004307
       3B1     0.011677     3B2     0.019780     9A1     0.079149
       4B1     0.104222     4B2     0.116081    10A1     0.120427
       5B1     0.246334     5B2     0.258078    11A1     0.264802
       1A2     0.295721    12A1     0.298350     6B1     0.436898
       6B2     0.440973    13A1     0.454907    14A1     0.579612
       2A2     0.579668     7B1     0.599257     7B2     0.601228
      15A1     0.609261    16A1     0.776047

    Final Occupation by Irrep:
             A1    A2    B1    B2
    DOCC [     5,    0,    2,    2 ]
    SOCC [     2,    0,    0,    1 ]
    NA   [     7,    0,    2,    3 ]
    NB   [     5,    0,    2,    2 ]

  @DF-UKS Final Energy:  -534.57917572343354

   => Energetics <=

    Nuclear Repulsion Energy =              8.8144789733296633
    One-Electron Energy =                -750.0666986238468326
    Two-Electron Energy =                 232.8496177756073280
    DFT Exchange-Correlation Energy =     -26.1765738485236739
    Empirical Dispersion Energy =           0.0000000000000000
    VV10 Nonlocal Energy =                  0.0000000000000000
    Total Energy =                       -534.5791757234335364

  UHF NO Occupations:
  HONO-2 :    6 A1 1.0000000
  HONO-1 :    3 B2 1.0000000
  HONO-0 :    7 A1 1.0000000
  LUNO+0 :    8 A1 0.0008189
  LUNO+1 :    4 B2 0.0000374
  LUNO+2 :    3 B1 0.0000341
  LUNO+3 :    9 A1 0.0000008

Computation Completed

Properties will be evaluated at   0.000000,   0.000000,   0.000000 [a0]

Properties computed using the SCF density matrix

 Multipole Moments:

 ------------------------------------------------------------------------------------
     Multipole            Electronic (a.u.)      Nuclear  (a.u.)        Total (a.u.)
 ------------------------------------------------------------------------------------

 L = 1.  Multiply by 2.5417464519 to convert [e a0] to [Debye]
 Dipole X            :          0.0000000            0.0000000            0.0000000
 Dipole Y            :          0.0000000            0.0000000            0.0000000
 Dipole Z            :         -2.9611516           -0.8347202           -3.7958718
 Magnitude           :                                                    3.7958718

 ------------------------------------------------------------------------------------

*** tstop() called on Joses-MacBook-Pro-2.local at Wed Jul 16 18:38:38 2025
Module time:
	user time   =       2.99 seconds =       0.05 minutes
	system time =       2.98 seconds =       0.05 minutes
	total time  =          0 seconds =       0.00 minutes
Total time:
	user time   =      67.85 seconds =       1.13 minutes
	system time =      81.21 seconds =       1.35 minutes
	total time  =         14 seconds =       0.23 minutes

*** tstart() called on Joses-MacBook-Pro-2.local
*** at Wed Jul 16 18:38:38 2025

         ------------------------------------------------------------
                                   SCF GRAD
                          Rob Parrish, Justin Turney,
                       Andy Simmonett, and Alex Sokolov
         ------------------------------------------------------------

  ==> Geometry <==

    Molecular point group: c2v
    Full point group: C_inf_v

    Geometry (in Angstrom), charge = 0, multiplicity = 4:

       Center              X                  Y                   Z               Mass
    ------------   -----------------  -----------------  -----------------  -----------------
         LI           0.000000000000     0.000000000000     2.757728633651     7.016003436600
         AR           0.000000000000     0.000000000000    -0.484161155030    39.962383123700

  Nuclear repulsion =    8.814478973329663

  ==> Basis Set <==

  Basis Set: CC-PVDZ
    Blend: CC-PVDZ
    Number of shells: 14
    Number of basis functions: 32
    Number of Cartesian functions: 34
    Spherical Harmonics?: true
    Max angular momentum: 2

  ==> DFJKGrad: Density-Fitted SCF Gradients <==

    Gradient:                    1
    J tasked:                  Yes
    K tasked:                  Yes
    wK tasked:                  No
    OpenMP threads:              1
    Integrals threads:           1
    Memory [MiB]:              375
    Schwarz Cutoff:          1E-12
    Fitting Condition:       1E-10

   => Auxiliary Basis Set <=

  Basis Set: (CC-PVDZ AUX)
    Blend: CC-PVDZ-JKFIT + DEF2-UNIVERSAL-JKFIT
    Number of shells: 53
    Number of basis functions: 163
    Number of Cartesian functions: 190
    Spherical Harmonics?: true
    Max angular momentum: 3

  ==> DFT Potential <==

   => LibXC <=

    Version 6.2.2
    S. Lehtola, C. Steigemann, M. J.T. Oliveira, and M. A.L. Marques.,  SoftwareX 7, 1â€“5 (2018) (10.1016/j.softx.2017.11.002)

   => Composite Functional: B3LYP <=

    B3LYP Hyb-GGA Exchange-Correlation Functional

    P. J. Stephens, F. J. Devlin, C. F. Chabalowski, and M. J. Frisch.,  J. Phys. Chem. 98, 11623 (1994) (10.1021/j100096a001)

    Deriv               =              1
    GGA                 =           TRUE
    Meta                =          FALSE

    Exchange Hybrid     =           TRUE
    MP2 Hybrid          =          FALSE

   => Exchange Functionals <=

    0.0800   Slater exchange
    0.7200         Becke 88

   => Exact (HF) Exchange <=

    0.2000               HF

   => Correlation Functionals <=

    0.1900   Vosko, Wilk & Nusair (VWN5_RPA)
    0.8100   Lee, Yang & Parr

   => LibXC Density Thresholds  <==

    XC_HYB_GGA_XC_B3LYP:  1.00E-15

   => Molecular Quadrature <=

    Radial Scheme          =       TREUTLER
    Pruning Scheme         =           NONE
    Nuclear Scheme         =       TREUTLER

    Blocking Scheme        =         OCTREE
    BS radius alpha        =              1
    Pruning alpha          =              1
    Radial Points          =             75
    Spherical Points       =            302
    Total Points           =          44375
    Total Blocks           =            448
    Max Points             =            256
    Max Functions          =             32
    Weights Tolerance      =       1.00E-15

  -Total Gradient:
     Atom            X                  Y                   Z
    ------   -----------------  -----------------  -----------------
       1        0.000000000000    -0.000000000000     0.000022923221
       2        0.000000000000     0.000000000000     0.000030111219

*** tstop() called on Joses-MacBook-Pro-2.local at Wed Jul 16 18:38:38 2025
Module time:
	user time   =       0.88 seconds =       0.01 minutes
	system time =       1.25 seconds =       0.02 minutes
	total time  =          0 seconds =       0.00 minutes
Total time:
	user time   =      68.74 seconds =       1.15 minutes
	system time =      82.46 seconds =       1.37 minutes
	total time  =         14 seconds =       0.23 minutes

    			-----------------------------------------

    			 OPTKING 3.0: for geometry optimizations

    			     By R.A. King, Bethel University

    			        with contributions from

    			    A.V. Copan, J. Cayton, A. Heide

    			-----------------------------------------

	                            ===> Fragment 1 <==

	 Z (Atomic Numbers)          Masses                          Geom
	       3.000000             7.016003          0.00000000  0.00000000  5.21135185
	      18.000000            39.962383          0.00000000  0.00000000 -0.91493198

	 - Coordinate -           - BOHR/RAD -       - ANG/DEG -
	 R(1,2)           =         6.126284           3.241890

	        --- Internal Coordinate Step in ANG or DEG, aJ/ANG or AJ/DEG ---
	-------------------------------------------------------------------------------
	           Coordinate      Previous         Force          Change          New
	           ----------      --------        ------          ------        ------
	               R(1,2)       3.24189        0.00003        0.00014       3.24203
	-------------------------------------------------------------------------------

	                                 ==> Convergence Check <==

	Measures of convergence in internal coordinates in au.

	Criteria marked as inactive (o), active & met (*), and active & unmet ( ).

	----------------------------------------------------------------------------------------------
	   Step    Total Energy     Delta E     Max Force     RMS Force      Max Disp      RMS Disp
	----------------------------------------------------------------------------------------------
	  Convergence Criteria     1.00e-06 *    3.00e-04 *             o    1.20e-03 *             o
	----------------------------------------------------------------------------------------------
	    15    -534.57917572   -3.24e-08 *    3.59e-06 *    3.59e-06 o    2.62e-04 *    2.62e-04 o  ~
	----------------------------------------------------------------------------------------------

Next Geometry in Ang
	Fragment 1 (Ang)

	   Li   0.0000000000   0.0000000000   2.7577978792
	   Ar   0.0000000000   0.0000000000  -0.4842304006

    Final optimized geometry and variables:
    Molecular point group: c2v
    Full point group: C_inf_v

    Geometry (in Angstrom), charge = 0, multiplicity = 4:

    LI           0.000000000000     0.000000000000     2.757728633651
    AR           0.000000000000     0.000000000000    -0.484161155030

    Psi4 stopped on: Wednesday, 16 July 2025 06:38PM
    Psi4 wall time for execution: 0:00:15.39

*** Psi4 exiting successfully. Buy a developer a beer!
