                               Psi4 1.9.1 release

  ==> Input File <==

--------------------------------------------------------------------------
molecule {
0 4
O   0.00000        0.60000        0.00000
P   0.00000       -0.60000        0.00000
}

set {
basis              cc-pvdz
reference          uks
maxiter            500
geom_maxiter       500
DAMPING_PERCENTAGE 1
guess              SAP
}

optimize('b3lyp')
--------------------------------------------------------------------------

    Molecular point group: c2v
  Charge       = 0
  Multiplicity = 4
  Basis Set: CC-PVDZ
    Blend: CC-PVDZ
  Basis Set: (CC-PVDZ AUX)
    Blend: CC-PVDZ-JKFIT
  @DF-UKS Final Energy:  -416.15505121783872
    Total Energy =                       -416.1550512178387180
 Dipole X            :          0.0000000            0.0000000            0.0000000
 Dipole Y            :          0.0000000            0.0000000            0.0000000
 Dipole Z            :         -0.7957682            0.3797926           -0.4159755
 Magnitude           :                                                    0.4159755
    Molecular point group: c2v
  Basis Set: CC-PVDZ
    Blend: CC-PVDZ
  Basis Set: (CC-PVDZ AUX)
    Blend: CC-PVDZ-JKFIT
  Basis Set: CC-PVDZ
    Blend: CC-PVDZ
  Basis Set: (CC-PVDZ AUX)
    Blend: CC-PVDZ-JKFIT
  @DF-UKS Final Energy:  -416.30487493754845
    Total Energy =                       -416.3048749375484476
  Basis Set: CC-PVDZ
    Blend: CC-PVDZ
  Basis Set: (CC-PVDZ AUX)
    Blend: CC-PVDZ-JKFIT
  Basis Set: CC-PVDZ
    Blend: CC-PVDZ
  @DF-UKS Final Energy:  -416.37222558405313
    Total Energy =                       -416.3722255840531830
  @DF-UKS Final Energy:  -416.39271565431733
    Total Energy =                       -416.3927156543173282
  @DF-UKS Final Energy:  -416.40277019535705
    Total Energy =                       -416.4027701953570499
  @DF-UKS Final Energy:  -416.40566998441079
    Total Energy =                       -416.4056699844108493
  @DF-UKS Final Energy:  -416.40688616901457
    Total Energy =                       -416.4068861690145127
  @DF-UKS Final Energy:  -416.40713110695140
    Total Energy =                       -416.4071311069513968
  @DF-UKS Final Energy:  -416.40719132129141
    Total Energy =                       -416.4071913212914069
  Basis Set: (CC-PVDZ AUX)
    Blend: CC-PVDZ-JKFIT
  Basis Set: CC-PVDZ
    Blend: CC-PVDZ
  Basis Set: (CC-PVDZ AUX)
    Blend: CC-PVDZ-JKFIT
  @DF-UKS Final Energy:  -416.40719960823100
    Total Energy =                       -416.4071996082309965
  Basis Set: CC-PVDZ
    Blend: CC-PVDZ
  Basis Set: (CC-PVDZ AUX)
    Blend: CC-PVDZ-JKFIT
  Charge       = 0
  Multiplicity = 4
  Basis Set: CC-PVDZ
    Blend: CC-PVDZ
  Basis Set: (CC-PVDZ AUX)
    Blend: CC-PVDZ-JKFIT

    Orbital Energies [Eh]
    ---------------------

    Alpha Occupied:

       1A1   -77.168729     2A1   -19.216209     3A1    -6.632819
       4A1    -4.799654     1B2    -4.793802     1B1    -4.793802
       5A1    -1.024388     6A1    -0.612935     7A1    -0.443057
       2B1    -0.400199     2B2    -0.400199     3B2    -0.227568
       3B1    -0.227568

    Alpha Virtual:

       8A1    -0.000981     9A1     0.320107     4B2     0.383743
       4B1     0.383743    10A1     0.405243    11A1     0.417444
       1A2     0.417445     5B1     0.468760     5B2     0.468760
      12A1     0.667276     6B1     0.967464     6B2     0.967464
      13A1     0.968163    14A1     1.641716    15A1     2.551377
       2A2     2.551399     7B1     2.612776     7B2     2.612776
      16A1     2.974558

    Beta Occupied:

       1A1   -77.159329     2A1   -19.187992     3A1    -6.622645
       4A1    -4.788732     1B2    -4.777701     1B1    -4.777701
       5A1    -0.953343     6A1    -0.502465     2B1    -0.338829
       2B2    -0.338829

    Beta Virtual:

       7A1    -0.268096     3B2    -0.088442     3B1    -0.088442
       8A1     0.054006     9A1     0.357561     4B2     0.419468
       4B1     0.419468    10A1     0.440947     1A2     0.499990
      11A1     0.499990     5B1     0.536067     5B2     0.536067
      12A1     0.716593     6B1     1.001830     6B2     1.001830
      13A1     1.038175    14A1     1.682165    15A1     2.596311
       2A2     2.596334     7B1     2.684787     7B2     2.684787
      16A1     3.050421

    Final Occupation by Irrep:
             A1    A2    B1    B2
    DOCC [     6,    0,    2,    2 ]
    SOCC [     1,    0,    1,    1 ]
    NA   [     7,    0,    3,    3 ]
    NB   [     6,    0,    2,    2 ]

  @DF-UKS Final Energy:  -416.40720004829643

   => Energetics <=

    Nuclear Repulsion Energy =             38.9042951796706973
    One-Electron Energy =                -652.1638951318643649
    Two-Electron Energy =                 222.4564011939895067
    DFT Exchange-Correlation Energy =     -25.6040012900923095
    Empirical Dispersion Energy =           0.0000000000000000
    VV10 Nonlocal Energy =                  0.0000000000000000
    Total Energy =                       -416.4072000482964313

  UHF NO Occupations:
  HONO-2 :    3 B1 1.0000000
  HONO-1 :    7 A1 1.0000000
  HONO-0 :    3 B2 1.0000000
  LUNO+0 :    8 A1 0.0016597
  LUNO+1 :    4 B2 0.0010159
  LUNO+2 :    4 B1 0.0010159
  LUNO+3 :    9 A1 0.0002101

Computation Completed

Properties will be evaluated at   0.000000,   0.000000,   0.000000 [a0]

Properties computed using the SCF density matrix

 Multipole Moments:

 ------------------------------------------------------------------------------------
     Multipole            Electronic (a.u.)      Nuclear  (a.u.)        Total (a.u.)
 ------------------------------------------------------------------------------------

 L = 1.  Multiply by 2.5417464519 to convert [e a0] to [Debye]
 Dipole X            :          0.0000000            0.0000000            0.0000000
 Dipole Y            :          0.0000000            0.0000000            0.0000000
 Dipole Z            :         -1.2027059            0.5165949           -0.6861110
 Magnitude           :                                                    0.6861110

 ------------------------------------------------------------------------------------

*** tstop() called on Joses-MacBook-Pro-2.local at Wed Jul 16 19:22:11 2025
Module time:
	user time   =       2.87 seconds =       0.05 minutes
	system time =       4.22 seconds =       0.07 minutes
	total time  =          0 seconds =       0.00 minutes
Total time:
	user time   =      58.16 seconds =       0.97 minutes
	system time =      61.56 seconds =       1.03 minutes
	total time  =         11 seconds =       0.18 minutes

*** tstart() called on Joses-MacBook-Pro-2.local
*** at Wed Jul 16 19:22:11 2025

         ------------------------------------------------------------
                                   SCF GRAD
                          Rob Parrish, Justin Turney,
                       Andy Simmonett, and Alex Sokolov
         ------------------------------------------------------------

  ==> Geometry <==

    Molecular point group: c2v
    Full point group: C_inf_v

    Geometry (in Angstrom), charge = 0, multiplicity = 4:

       Center              X                  Y                   Z               Mass
    ------------   -----------------  -----------------  -----------------  -----------------
         O            0.000000000000     0.000000000000     1.076391997428    15.994914619570
         P            0.000000000000     0.000000000000    -0.555851048928    30.973761998420

  Nuclear repulsion =   38.904295179670697

  ==> Basis Set <==

  Basis Set: CC-PVDZ
    Blend: CC-PVDZ
    Number of shells: 14
    Number of basis functions: 32
    Number of Cartesian functions: 34
    Spherical Harmonics?: true
    Max angular momentum: 2

  ==> DFJKGrad: Density-Fitted SCF Gradients <==

    Gradient:                    1
    J tasked:                  Yes
    K tasked:                  Yes
    wK tasked:                  No
    OpenMP threads:              1
    Integrals threads:           1
    Memory [MiB]:              375
    Schwarz Cutoff:          1E-12
    Fitting Condition:       1E-10

   => Auxiliary Basis Set <=

  Basis Set: (CC-PVDZ AUX)
    Blend: CC-PVDZ-JKFIT
    Number of shells: 60
    Number of basis functions: 182
    Number of Cartesian functions: 211
    Spherical Harmonics?: true
    Max angular momentum: 3

  ==> DFT Potential <==

   => LibXC <=

    Version 6.2.2
    S. Lehtola, C. Steigemann, M. J.T. Oliveira, and M. A.L. Marques.,  SoftwareX 7, 1â€“5 (2018) (10.1016/j.softx.2017.11.002)

   => Composite Functional: B3LYP <=

    B3LYP Hyb-GGA Exchange-Correlation Functional

    P. J. Stephens, F. J. Devlin, C. F. Chabalowski, and M. J. Frisch.,  J. Phys. Chem. 98, 11623 (1994) (10.1021/j100096a001)

    Deriv               =              1
    GGA                 =           TRUE
    Meta                =          FALSE

    Exchange Hybrid     =           TRUE
    MP2 Hybrid          =          FALSE

   => Exchange Functionals <=

    0.0800   Slater exchange
    0.7200         Becke 88

   => Exact (HF) Exchange <=

    0.2000               HF

   => Correlation Functionals <=

    0.1900   Vosko, Wilk & Nusair (VWN5_RPA)
    0.8100   Lee, Yang & Parr

   => LibXC Density Thresholds  <==

    XC_HYB_GGA_XC_B3LYP:  1.00E-15

   => Molecular Quadrature <=

    Radial Scheme          =       TREUTLER
    Pruning Scheme         =           NONE
    Nuclear Scheme         =       TREUTLER

    Blocking Scheme        =         OCTREE
    BS radius alpha        =              1
    Pruning alpha          =              1
    Radial Points          =             75
    Spherical Points       =            302
    Total Points           =          42212
    Total Blocks           =            379
    Max Points             =            256
    Max Functions          =             32
    Weights Tolerance      =       1.00E-15

  -Total Gradient:
     Atom            X                  Y                   Z
    ------   -----------------  -----------------  -----------------
       1        0.000000000000    -0.000000000000    -0.000084889762
       2       -0.000000000000    -0.000000000000     0.000065580690

*** tstop() called on Joses-MacBook-Pro-2.local at Wed Jul 16 19:22:12 2025
Module time:
	user time   =       0.99 seconds =       0.02 minutes
	system time =       1.60 seconds =       0.03 minutes
	total time  =          1 seconds =       0.02 minutes
Total time:
	user time   =      59.15 seconds =       0.99 minutes
	system time =      63.17 seconds =       1.05 minutes
	total time  =         12 seconds =       0.20 minutes

    			-----------------------------------------

    			 OPTKING 3.0: for geometry optimizations

    			     By R.A. King, Bethel University

    			        with contributions from

    			    A.V. Copan, J. Cayton, A. Heide

    			-----------------------------------------

	                            ===> Fragment 1 <==

	 Z (Atomic Numbers)          Masses                          Geom
	       8.000000            15.994915          0.00000000  0.00000000  2.03408608
	      15.000000            30.973762          0.00000000  0.00000000 -1.05040625

	 - Coordinate -           - BOHR/RAD -       - ANG/DEG -
	 R(1,2)           =         3.084492           1.632243

	        --- Internal Coordinate Step in ANG or DEG, aJ/ANG or AJ/DEG ---
	-------------------------------------------------------------------------------
	           Coordinate      Previous         Force          Change          New
	           ----------      --------        ------          ------        ------
	               R(1,2)       1.63224        0.00062        0.00013       1.63237
	-------------------------------------------------------------------------------

	                                 ==> Convergence Check <==

	Measures of convergence in internal coordinates in au.

	Criteria marked as inactive (o), active & met (*), and active & unmet ( ).

	----------------------------------------------------------------------------------------------
	   Step    Total Energy     Delta E     Max Force     RMS Force      Max Disp      RMS Disp
	----------------------------------------------------------------------------------------------
	  Convergence Criteria     1.00e-06 *    3.00e-04 *             o    1.20e-03 *             o
	----------------------------------------------------------------------------------------------
	    11    -416.40720005   -4.40e-07 *    7.52e-05 *    7.52e-05 o    2.46e-04 *    2.46e-04 o  ~
	----------------------------------------------------------------------------------------------

Next Geometry in Ang
	Fragment 1 (Ang)

	    O   0.0000000000   0.0000000000   1.0764572021
	    P   0.0000000000   0.0000000000  -0.5559162536

    Final optimized geometry and variables:
    Molecular point group: c2v
    Full point group: C_inf_v

    Geometry (in Angstrom), charge = 0, multiplicity = 4:

    O            0.000000000000     0.000000000000     1.076391997428
    P            0.000000000000     0.000000000000    -0.555851048928

    Psi4 stopped on: Wednesday, 16 July 2025 07:22PM
    Psi4 wall time for execution: 0:00:12.50

*** Psi4 exiting successfully. Buy a developer a beer!
