                               Psi4 1.9.1 release

  ==> Input File <==

--------------------------------------------------------------------------
molecule {
0 4
Be   0.00000        0.60000        0.00000
P   0.00000       -0.60000        0.00000
}

set {
basis              cc-pvdz
reference          uks
maxiter            500
geom_maxiter       500
DAMPING_PERCENTAGE 1
guess              SAP
}

optimize('b3lyp')
--------------------------------------------------------------------------

    Molecular point group: c2v
  Charge       = 0
  Multiplicity = 4
  Basis Set: CC-PVDZ
    Blend: CC-PVDZ
  Basis Set: (CC-PVDZ AUX)
    Blend: CC-PVDZ-JKFIT + DEF2-UNIVERSAL-JKFIT
  @DF-UKS Final Energy:  -355.46381254021043
    Total Energy =                       -355.4638125402104265
 Dipole X            :          0.0000000            0.0000000            0.0000000
 Dipole Y            :          0.0000000            0.0000000            0.0000000
 Dipole Z            :         -0.5506059           -0.6401447           -1.1907505
 Magnitude           :                                                    1.1907505
    Molecular point group: c2v
  Basis Set: CC-PVDZ
    Blend: CC-PVDZ
  Basis Set: (CC-PVDZ AUX)
    Blend: CC-PVDZ-JKFIT + DEF2-UNIVERSAL-JKFIT
  Basis Set: CC-PVDZ
    Blend: CC-PVDZ
  Basis Set: (CC-PVDZ AUX)
    Blend: CC-PVDZ-JKFIT + DEF2-UNIVERSAL-JKFIT
  @DF-UKS Final Energy:  -355.67076950121725
    Total Energy =                       -355.6707695012172508
  Basis Set: CC-PVDZ
    Blend: CC-PVDZ
  Basis Set: (CC-PVDZ AUX)
    Blend: CC-PVDZ-JKFIT + DEF2-UNIVERSAL-JKFIT
  Basis Set: CC-PVDZ
    Blend: CC-PVDZ
  @DF-UKS Final Energy:  -355.81732896584970
    Total Energy =                       -355.8173289658496969
  @DF-UKS Final Energy:  -355.89413018623532
    Total Energy =                       -355.8941301862353157
  @DF-UKS Final Energy:  -355.92423749692995
    Total Energy =                       -355.9242374969299476
  @DF-UKS Final Energy:  -355.93485930168561
    Total Energy =                       -355.9348593016856057
  @DF-UKS Final Energy:  -355.93706362186879
    Total Energy =                       -355.9370636218687878
  @DF-UKS Final Energy:  -355.93768946331670
    Total Energy =                       -355.9376894633167012
  @DF-UKS Final Energy:  -355.93776769921021
    Total Energy =                       -355.9377676992102124
  Basis Set: (CC-PVDZ AUX)
    Blend: CC-PVDZ-JKFIT + DEF2-UNIVERSAL-JKFIT
  Basis Set: CC-PVDZ
    Blend: CC-PVDZ
  Basis Set: (CC-PVDZ AUX)
    Blend: CC-PVDZ-JKFIT + DEF2-UNIVERSAL-JKFIT
  @DF-UKS Final Energy:  -355.93777818434160
    Total Energy =                       -355.9377781843415960
  Basis Set: CC-PVDZ
    Blend: CC-PVDZ
  Basis Set: (CC-PVDZ AUX)
    Blend: CC-PVDZ-JKFIT + DEF2-UNIVERSAL-JKFIT
  Charge       = 0
  Multiplicity = 4
  Basis Set: CC-PVDZ
    Blend: CC-PVDZ
  Basis Set: (CC-PVDZ AUX)
    Blend: CC-PVDZ-JKFIT + DEF2-UNIVERSAL-JKFIT

    Orbital Energies [Eh]
    ---------------------

    Alpha Occupied:

       1A1   -77.109837     2A1    -6.580377     3A1    -4.747111
       1B1    -4.746670     1B2    -4.733242     4A1    -4.120561
       5A1    -0.612168     6A1    -0.347374     2B1    -0.273160
       2B2    -0.238595     7A1    -0.208367

    Alpha Virtual:

       3B1    -0.050880     3B2    -0.039313     8A1     0.065733
       9A1     0.156993     4B1     0.166092     4B2     0.171851
      10A1     0.174635     5B1     0.346312    11A1     0.349905
       5B2     0.365788     1A2     0.389788    12A1     0.390045
       6B1     0.437744     6B2     0.462104    13A1     0.517640
       2A2     0.530250    14A1     0.532431     7B1     0.729114
      15A1     0.733127     7B2     0.748070    16A1     0.962199

    Beta Occupied:

       1A1   -77.102263     2A1    -6.572000     3A1    -4.732218
       1B1    -4.731439     1B2    -4.728501     4A1    -4.105454
       5A1    -0.535852     2B2    -0.216562

    Beta Virtual:

       6A1    -0.210753     2B1    -0.147032     7A1    -0.067725
       3B2    -0.004184     3B1     0.010039     8A1     0.086915
       4B2     0.186123     4B1     0.192221     9A1     0.208145
      10A1     0.231649    11A1     0.405743     5B2     0.414125
       5B1     0.426668     1A2     0.433002    12A1     0.438730
       6B2     0.479961     6B1     0.487906    13A1     0.558439
       2A2     0.573791    14A1     0.579799    15A1     0.788465
       7B2     0.795788     7B1     0.807218    16A1     1.014820

    Final Occupation by Irrep:
             A1    A2    B1    B2
    DOCC [     5,    0,    1,    2 ]
    SOCC [     2,    0,    1,    0 ]
    NA   [     7,    0,    2,    2 ]
    NB   [     5,    0,    1,    2 ]

  @DF-UKS Final Energy:  -355.93777979425710

   => Energetics <=

    Nuclear Repulsion Energy =             15.9259292691812089
    One-Electron Energy =                -522.3280249797378474
    Two-Electron Energy =                 171.4413384151283424
    DFT Exchange-Correlation Energy =     -20.9770224988288341
    Empirical Dispersion Energy =           0.0000000000000000
    VV10 Nonlocal Energy =                  0.0000000000000000
    Total Energy =                       -355.9377797942570965

  UHF NO Occupations:
  HONO-2 :    6 A1 1.0000000
  HONO-1 :    2 B1 1.0000000
  HONO-0 :    7 A1 1.0000000
  LUNO+0 :    8 A1 0.0011816
  LUNO+1 :    3 B2 0.0004811
  LUNO+2 :    9 A1 0.0000003
  LUNO+3 :    3 B1 0.0000001

Computation Completed

Properties will be evaluated at   0.000000,   0.000000,   0.000000 [a0]

Properties computed using the SCF density matrix

 Multipole Moments:

 ------------------------------------------------------------------------------------
     Multipole            Electronic (a.u.)      Nuclear  (a.u.)        Total (a.u.)
 ------------------------------------------------------------------------------------

 L = 1.  Multiply by 2.5417464519 to convert [e a0] to [Debye]
 Dipole X            :          0.0000000            0.0000000            0.0000000
 Dipole Y            :          0.0000000            0.0000000            0.0000000
 Dipole Z            :          0.8842711           -1.0635171           -0.1792460
 Magnitude           :                                                    0.1792460

 ------------------------------------------------------------------------------------

*** tstop() called on Joses-MacBook-Pro-2.local at Wed Jul 16 18:45:28 2025
Module time:
	user time   =       3.23 seconds =       0.05 minutes
	system time =       3.63 seconds =       0.06 minutes
	total time  =          1 seconds =       0.02 minutes
Total time:
	user time   =      51.37 seconds =       0.86 minutes
	system time =      62.42 seconds =       1.04 minutes
	total time  =         11 seconds =       0.18 minutes

*** tstart() called on Joses-MacBook-Pro-2.local
*** at Wed Jul 16 18:45:28 2025

         ------------------------------------------------------------
                                   SCF GRAD
                          Rob Parrish, Justin Turney,
                       Andy Simmonett, and Alex Sokolov
         ------------------------------------------------------------

  ==> Geometry <==

    Molecular point group: c2v
    Full point group: C_inf_v

    Geometry (in Angstrom), charge = 0, multiplicity = 4:

       Center              X                  Y                   Z               Mass
    ------------   -----------------  -----------------  -----------------  -----------------
         BE           0.000000000000     0.000000000000     1.544308964620     9.012183065000
         P            0.000000000000     0.000000000000    -0.449334991945    30.973761998420

  Nuclear repulsion =   15.925929269181209

  ==> Basis Set <==

  Basis Set: CC-PVDZ
    Blend: CC-PVDZ
    Number of shells: 14
    Number of basis functions: 32
    Number of Cartesian functions: 34
    Spherical Harmonics?: true
    Max angular momentum: 2

  ==> DFJKGrad: Density-Fitted SCF Gradients <==

    Gradient:                    1
    J tasked:                  Yes
    K tasked:                  Yes
    wK tasked:                  No
    OpenMP threads:              1
    Integrals threads:           1
    Memory [MiB]:              375
    Schwarz Cutoff:          1E-12
    Fitting Condition:       1E-10

   => Auxiliary Basis Set <=

  Basis Set: (CC-PVDZ AUX)
    Blend: CC-PVDZ-JKFIT + DEF2-UNIVERSAL-JKFIT
    Number of shells: 53
    Number of basis functions: 163
    Number of Cartesian functions: 190
    Spherical Harmonics?: true
    Max angular momentum: 3

  ==> DFT Potential <==

   => LibXC <=

    Version 6.2.2
    S. Lehtola, C. Steigemann, M. J.T. Oliveira, and M. A.L. Marques.,  SoftwareX 7, 1â€“5 (2018) (10.1016/j.softx.2017.11.002)

   => Composite Functional: B3LYP <=

    B3LYP Hyb-GGA Exchange-Correlation Functional

    P. J. Stephens, F. J. Devlin, C. F. Chabalowski, and M. J. Frisch.,  J. Phys. Chem. 98, 11623 (1994) (10.1021/j100096a001)

    Deriv               =              1
    GGA                 =           TRUE
    Meta                =          FALSE

    Exchange Hybrid     =           TRUE
    MP2 Hybrid          =          FALSE

   => Exchange Functionals <=

    0.0800   Slater exchange
    0.7200         Becke 88

   => Exact (HF) Exchange <=

    0.2000               HF

   => Correlation Functionals <=

    0.1900   Vosko, Wilk & Nusair (VWN5_RPA)
    0.8100   Lee, Yang & Parr

   => LibXC Density Thresholds  <==

    XC_HYB_GGA_XC_B3LYP:  1.00E-15

   => Molecular Quadrature <=

    Radial Scheme          =       TREUTLER
    Pruning Scheme         =           NONE
    Nuclear Scheme         =       TREUTLER

    Blocking Scheme        =         OCTREE
    BS radius alpha        =              1
    Pruning alpha          =              1
    Radial Points          =             75
    Spherical Points       =            302
    Total Points           =          42759
    Total Blocks           =            398
    Max Points             =            255
    Max Functions          =             32
    Weights Tolerance      =       1.00E-15

  -Total Gradient:
     Atom            X                  Y                   Z
    ------   -----------------  -----------------  -----------------
       1        0.000000000000    -0.000000000000    -0.000131017029
       2        0.000000000000     0.000000000000     0.000128544749

*** tstop() called on Joses-MacBook-Pro-2.local at Wed Jul 16 18:45:28 2025
Module time:
	user time   =       0.68 seconds =       0.01 minutes
	system time =       1.60 seconds =       0.03 minutes
	total time  =          0 seconds =       0.00 minutes
Total time:
	user time   =      52.05 seconds =       0.87 minutes
	system time =      64.03 seconds =       1.07 minutes
	total time  =         11 seconds =       0.18 minutes

    			-----------------------------------------

    			 OPTKING 3.0: for geometry optimizations

    			     By R.A. King, Bethel University

    			        with contributions from

    			    A.V. Copan, J. Cayton, A. Heide

    			-----------------------------------------

	                            ===> Fragment 1 <==

	 Z (Atomic Numbers)          Masses                          Geom
	       4.000000             9.012183          0.00000000  0.00000000  2.91832100
	      15.000000            30.973762          0.00000000  0.00000000 -0.84912007

	 - Coordinate -           - BOHR/RAD -       - ANG/DEG -
	 R(1,2)           =         3.767441           1.993644

	        --- Internal Coordinate Step in ANG or DEG, aJ/ANG or AJ/DEG ---
	-------------------------------------------------------------------------------
	           Coordinate      Previous         Force          Change          New
	           ----------      --------        ------          ------        ------
	               R(1,2)       1.99364        0.00107        0.00052       1.99416
	-------------------------------------------------------------------------------

	                                 ==> Convergence Check <==

	Measures of convergence in internal coordinates in au.

	Criteria marked as inactive (o), active & met (*), and active & unmet ( ).

	----------------------------------------------------------------------------------------------
	   Step    Total Energy     Delta E     Max Force     RMS Force      Max Disp      RMS Disp
	----------------------------------------------------------------------------------------------
	  Convergence Criteria     1.00e-06 *    3.00e-04 *             o    1.20e-03 *             o
	----------------------------------------------------------------------------------------------
	    11    -355.93777979   -1.61e-06      1.30e-04 *    1.30e-04 o    9.83e-04 *    9.83e-04 o  ~
	----------------------------------------------------------------------------------------------

Next Geometry in Ang
	Fragment 1 (Ang)

	   Be   0.0000000000   0.0000000000   1.5445689645
	    P   0.0000000000   0.0000000000  -0.4495949919

    Final optimized geometry and variables:
    Molecular point group: c2v
    Full point group: C_inf_v

    Geometry (in Angstrom), charge = 0, multiplicity = 4:

    BE           0.000000000000     0.000000000000     1.544308964620
    P            0.000000000000     0.000000000000    -0.449334991945

    Psi4 stopped on: Wednesday, 16 July 2025 06:45PM
    Psi4 wall time for execution: 0:00:11.91

*** Psi4 exiting successfully. Buy a developer a beer!
