                               Psi4 1.9.1 release

  ==> Input File <==

--------------------------------------------------------------------------
molecule {
0 4
He   0.00000        0.60000        0.00000
P   0.00000       -0.60000        0.00000
}

set {
basis              cc-pvdz
reference          uks
maxiter            500
geom_maxiter       500
DAMPING_PERCENTAGE 1
guess              SAP
}

optimize('b3lyp')
--------------------------------------------------------------------------

    Molecular point group: c2v
  Charge       = 0
  Multiplicity = 4
  Basis Set: CC-PVDZ
    Blend: CC-PVDZ
  Basis Set: (CC-PVDZ AUX)
    Blend: CC-PVDZ-JKFIT + DEF2-UNIVERSAL-JKFIT
  @DF-UKS Final Energy:  -343.87047845010841
    Total Energy =                       -343.8704784501084077
 Dipole X            :          0.0000000            0.0000000            0.0000000
 Dipole Y            :          0.0000000            0.0000000            0.0000000
 Dipole Z            :          1.0052498            0.1237348            1.1289846
 Magnitude           :                                                    1.1289846
    Molecular point group: c2v
  Basis Set: CC-PVDZ
    Blend: CC-PVDZ
  Basis Set: (CC-PVDZ AUX)
    Blend: CC-PVDZ-JKFIT + DEF2-UNIVERSAL-JKFIT
  Basis Set: CC-PVDZ
    Blend: CC-PVDZ
  Basis Set: (CC-PVDZ AUX)
    Blend: CC-PVDZ-JKFIT + DEF2-UNIVERSAL-JKFIT
  @DF-UKS Final Energy:  -344.03004107725917
    Total Energy =                       -344.0300410772591704
  Basis Set: CC-PVDZ
    Blend: CC-PVDZ
  Basis Set: (CC-PVDZ AUX)
    Blend: CC-PVDZ-JKFIT + DEF2-UNIVERSAL-JKFIT
  Basis Set: CC-PVDZ
    Blend: CC-PVDZ
  @DF-UKS Final Energy:  -344.10352881090165
    Total Energy =                       -344.1035288109016506
  @DF-UKS Final Energy:  -344.14283765655756
    Total Energy =                       -344.1428376565575604
  @DF-UKS Final Energy:  -344.16281091447729
    Total Energy =                       -344.1628109144772907
  @DF-UKS Final Energy:  -344.17309545287020
    Total Energy =                       -344.1730954528702000
  @DF-UKS Final Energy:  -344.17835645516777
    Total Energy =                       -344.1783564551677728
  @DF-UKS Final Energy:  -344.18100812042854
    Total Energy =                       -344.1810081204285439
  @DF-UKS Final Energy:  -344.18232162812455
    Total Energy =                       -344.1823216281246118
  @DF-UKS Final Energy:  -344.18296148422701
    Total Energy =                       -344.1829614842270075
  @DF-UKS Final Energy:  -344.18326750771655
    Total Energy =                       -344.1832675077164367
  @DF-UKS Final Energy:  -344.18341038873166
    Total Energy =                       -344.1834103887316587
  @DF-UKS Final Energy:  -344.18347475781417
    Total Energy =                       -344.1834747578141673
  @DF-UKS Final Energy:  -344.18350272467779
    Total Energy =                       -344.1835027246777940
  @DF-UKS Final Energy:  -344.18351164885655
    Total Energy =                       -344.1835116488565518
  @DF-UKS Final Energy:  -344.18351661517960
    Total Energy =                       -344.1835166151795988
  Basis Set: (CC-PVDZ AUX)
    Blend: CC-PVDZ-JKFIT + DEF2-UNIVERSAL-JKFIT
  Basis Set: CC-PVDZ
    Blend: CC-PVDZ
  Basis Set: (CC-PVDZ AUX)
    Blend: CC-PVDZ-JKFIT + DEF2-UNIVERSAL-JKFIT
  @DF-UKS Final Energy:  -344.18351955137149
    Total Energy =                       -344.1835195513714325
  Basis Set: CC-PVDZ
    Blend: CC-PVDZ
  Basis Set: (CC-PVDZ AUX)
    Blend: CC-PVDZ-JKFIT + DEF2-UNIVERSAL-JKFIT
  Charge       = 0
  Multiplicity = 4
  Basis Set: CC-PVDZ
    Blend: CC-PVDZ
  Basis Set: (CC-PVDZ AUX)
    Blend: CC-PVDZ-JKFIT + DEF2-UNIVERSAL-JKFIT

    Orbital Energies [Eh]
    ---------------------

    Alpha Occupied:

       1A1   -77.116397     2A1    -6.584569     1B2    -4.747984
       1B1    -4.747984     3A1    -4.747983     4A1    -0.650122
       5A1    -0.595343     2B2    -0.256007     2B1    -0.256007
       6A1    -0.255956

    Alpha Virtual:

       7A1     0.331332     8A1     0.400784     3B1     0.401258
       3B2     0.401258     9A1     0.433062     1A2     0.433075
      10A1     0.433075     4B2     0.433076     4B1     0.433076
      11A1     1.122664     5B1     2.189053     5B2     2.189053
      12A1     2.189454

    Beta Occupied:

       1A1   -77.104172     2A1    -6.571642     1B1    -4.728870
       1B2    -4.728870     3A1    -4.728865     4A1    -0.650084
       5A1    -0.478565

    Beta Virtual:

       2B1    -0.108990     2B2    -0.108990     6A1    -0.108867
       7A1     0.375333     8A1     0.450667     3B1     0.451097
       3B2     0.451097     9A1     0.530066     1A2     0.530075
      10A1     0.530076     4B2     0.530081     4B1     0.530081
      11A1     1.122610     5B2     2.189084     5B1     2.189084
      12A1     2.189497

    Final Occupation by Irrep:
             A1    A2    B1    B2
    DOCC [     5,    0,    1,    1 ]
    SOCC [     1,    0,    1,    1 ]
    NA   [     6,    0,    2,    2 ]
    NB   [     5,    0,    1,    1 ]

  @DF-UKS Final Energy:  -344.18352052698577

   => Energetics <=

    Nuclear Repulsion Energy =              4.0127138558634403
    One-Electron Energy =                -483.5155433357442689
    Two-Electron Energy =                 154.8697120576830457
    DFT Exchange-Correlation Energy =     -19.5504031047880353
    Empirical Dispersion Energy =           0.0000000000000000
    VV10 Nonlocal Energy =                  0.0000000000000000
    Total Energy =                       -344.1835205269857738

  UHF NO Occupations:
  HONO-2 :    2 B2 1.0000000
  HONO-1 :    2 B1 1.0000000
  HONO-0 :    6 A1 1.0000000
  LUNO+0 :    7 A1 0.0000882
  LUNO+1 :    8 A1 0.0000000
  LUNO+2 :    3 B1 0.0000000
  LUNO+3 :    3 B2 0.0000000

Computation Completed

Properties will be evaluated at   0.000000,   0.000000,   0.000000 [a0]

Properties computed using the SCF density matrix

 Multipole Moments:

 ------------------------------------------------------------------------------------
     Multipole            Electronic (a.u.)      Nuclear  (a.u.)        Total (a.u.)
 ------------------------------------------------------------------------------------

 L = 1.  Multiply by 2.5417464519 to convert [e a0] to [Debye]
 Dipole X            :          0.0000000            0.0000000            0.0000000
 Dipole Y            :          0.0000000            0.0000000            0.0000000
 Dipole Z            :         -0.4062555            0.4079387            0.0016832
 Magnitude           :                                                    0.0016832

 ------------------------------------------------------------------------------------

*** tstop() called on Joses-MacBook-Pro-2.local at Wed Jul 16 18:25:10 2025
Module time:
	user time   =       2.22 seconds =       0.04 minutes
	system time =       1.94 seconds =       0.03 minutes
	total time  =          1 seconds =       0.02 minutes
Total time:
	user time   =      81.53 seconds =       1.36 minutes
	system time =      71.06 seconds =       1.18 minutes
	total time  =         15 seconds =       0.25 minutes

*** tstart() called on Joses-MacBook-Pro-2.local
*** at Wed Jul 16 18:25:10 2025

         ------------------------------------------------------------
                                   SCF GRAD
                          Rob Parrish, Justin Turney,
                       Andy Simmonett, and Alex Sokolov
         ------------------------------------------------------------

  ==> Geometry <==

    Molecular point group: c2v
    Full point group: C_inf_v

    Geometry (in Angstrom), charge = 0, multiplicity = 4:

       Center              X                  Y                   Z               Mass
    ------------   -----------------  -----------------  -----------------  -----------------
         HE           0.000000000000     0.000000000000     3.503510934588     4.002603254130
         P            0.000000000000     0.000000000000    -0.452743333805    30.973761998420

  Nuclear repulsion =    4.012713855863440

  ==> Basis Set <==

  Basis Set: CC-PVDZ
    Blend: CC-PVDZ
    Number of shells: 11
    Number of basis functions: 23
    Number of Cartesian functions: 24
    Spherical Harmonics?: true
    Max angular momentum: 2

  ==> DFJKGrad: Density-Fitted SCF Gradients <==

    Gradient:                    1
    J tasked:                  Yes
    K tasked:                  Yes
    wK tasked:                  No
    OpenMP threads:              1
    Integrals threads:           1
    Memory [MiB]:              375
    Schwarz Cutoff:          1E-12
    Fitting Condition:       1E-10

   => Auxiliary Basis Set <=

  Basis Set: (CC-PVDZ AUX)
    Blend: CC-PVDZ-JKFIT + DEF2-UNIVERSAL-JKFIT
    Number of shells: 45
    Number of basis functions: 135
    Number of Cartesian functions: 155
    Spherical Harmonics?: true
    Max angular momentum: 3

  ==> DFT Potential <==

   => LibXC <=

    Version 6.2.2
    S. Lehtola, C. Steigemann, M. J.T. Oliveira, and M. A.L. Marques.,  SoftwareX 7, 1â€“5 (2018) (10.1016/j.softx.2017.11.002)

   => Composite Functional: B3LYP <=

    B3LYP Hyb-GGA Exchange-Correlation Functional

    P. J. Stephens, F. J. Devlin, C. F. Chabalowski, and M. J. Frisch.,  J. Phys. Chem. 98, 11623 (1994) (10.1021/j100096a001)

    Deriv               =              1
    GGA                 =           TRUE
    Meta                =          FALSE

    Exchange Hybrid     =           TRUE
    MP2 Hybrid          =          FALSE

   => Exchange Functionals <=

    0.0800   Slater exchange
    0.7200         Becke 88

   => Exact (HF) Exchange <=

    0.2000               HF

   => Correlation Functionals <=

    0.1900   Vosko, Wilk & Nusair (VWN5_RPA)
    0.8100   Lee, Yang & Parr

   => LibXC Density Thresholds  <==

    XC_HYB_GGA_XC_B3LYP:  1.00E-15

   => Molecular Quadrature <=

    Radial Scheme          =       TREUTLER
    Pruning Scheme         =           NONE
    Nuclear Scheme         =       TREUTLER

    Blocking Scheme        =         OCTREE
    BS radius alpha        =              1
    Pruning alpha          =              1
    Radial Points          =             75
    Spherical Points       =            302
    Total Points           =          42840
    Total Blocks           =            409
    Max Points             =            254
    Max Functions          =             23
    Weights Tolerance      =       1.00E-15

  -Total Gradient:
     Atom            X                  Y                   Z
    ------   -----------------  -----------------  -----------------
       1        0.000000000000     0.000000000000    -0.000005395592
       2       -0.000000000000    -0.000000000000     0.000011257057

*** tstop() called on Joses-MacBook-Pro-2.local at Wed Jul 16 18:25:10 2025
Module time:
	user time   =       0.58 seconds =       0.01 minutes
	system time =       1.05 seconds =       0.02 minutes
	total time  =          0 seconds =       0.00 minutes
Total time:
	user time   =      82.11 seconds =       1.37 minutes
	system time =      72.11 seconds =       1.20 minutes
	total time  =         15 seconds =       0.25 minutes

    			-----------------------------------------

    			 OPTKING 3.0: for geometry optimizations

    			     By R.A. King, Bethel University

    			        with contributions from

    			    A.V. Copan, J. Cayton, A. Heide

    			-----------------------------------------

	                            ===> Fragment 1 <==

	 Z (Atomic Numbers)          Masses                          Geom
	       2.000000             4.002603          0.00000000  0.00000000  6.62067614
	      15.000000            30.973762          0.00000000  0.00000000 -0.85556091

	 - Coordinate -           - BOHR/RAD -       - ANG/DEG -
	 R(1,2)           =         7.476237           3.956254

	        --- Internal Coordinate Step in ANG or DEG, aJ/ANG or AJ/DEG ---
	-------------------------------------------------------------------------------
	           Coordinate      Previous         Force          Change          New
	           ----------      --------        ------          ------        ------
	               R(1,2)       3.95625        0.00007        0.04426       4.00051
	-------------------------------------------------------------------------------

	                                 ==> Convergence Check <==

	Measures of convergence in internal coordinates in au.

	Criteria marked as inactive (o), active & met (*), and active & unmet ( ).

	----------------------------------------------------------------------------------------------
	   Step    Total Energy     Delta E     Max Force     RMS Force      Max Disp      RMS Disp
	----------------------------------------------------------------------------------------------
	  Convergence Criteria     1.00e-06 *    3.00e-04 *             o    1.20e-03 *             o
	----------------------------------------------------------------------------------------------
	    18    -344.18352053   -9.76e-07 *    8.33e-06 *    8.33e-06 o    8.36e-02      8.36e-02 o  ~
	----------------------------------------------------------------------------------------------

Next Geometry in Ang
	Fragment 1 (Ang)

	   He   0.0000000000   0.0000000000   3.5256394668
	    P   0.0000000000   0.0000000000  -0.4748718660

    Final optimized geometry and variables:
    Molecular point group: c2v
    Full point group: C_inf_v

    Geometry (in Angstrom), charge = 0, multiplicity = 4:

    HE           0.000000000000     0.000000000000     3.503510934588
    P            0.000000000000     0.000000000000    -0.452743333805

    Psi4 stopped on: Wednesday, 16 July 2025 06:25PM
    Psi4 wall time for execution: 0:00:15.73

*** Psi4 exiting successfully. Buy a developer a beer!
