                               Psi4 1.9.1 release

  ==> Input File <==

--------------------------------------------------------------------------
molecule {
0 4
O   0.00000        0.60000        0.00000
Na   0.00000       -0.60000        0.00000
}

set {
basis              cc-pvdz
reference          uks
maxiter            500
geom_maxiter       500
DAMPING_PERCENTAGE 1
guess              SAP
}

optimize('b3lyp')
--------------------------------------------------------------------------

    Molecular point group: c2v
  Charge       = 0
  Multiplicity = 4
  Basis Set: CC-PVDZ
    Blend: CC-PVDZ
  Basis Set: (CC-PVDZ AUX)
    Blend: CC-PVDZ-JKFIT + DEF2-UNIVERSAL-JKFIT
  @DF-UKS Final Energy:  -236.85342310652877
    Total Energy =                       -236.8534231065287656
 Dipole X            :          0.0000000            0.0000000            0.0000000
 Dipole Y            :          0.0000000            0.0000000            0.0000000
 Dipole Z            :          0.2594669            0.4638392            0.7233061
 Magnitude           :                                                    0.7233061
    Molecular point group: c2v
  Basis Set: CC-PVDZ
    Blend: CC-PVDZ
  Basis Set: (CC-PVDZ AUX)
    Blend: CC-PVDZ-JKFIT + DEF2-UNIVERSAL-JKFIT
  Basis Set: CC-PVDZ
    Blend: CC-PVDZ
  Basis Set: (CC-PVDZ AUX)
    Blend: CC-PVDZ-JKFIT + DEF2-UNIVERSAL-JKFIT
  @DF-UKS Final Energy:  -237.06460322301550
    Total Energy =                       -237.0646032230154958
  Basis Set: CC-PVDZ
    Blend: CC-PVDZ
  Basis Set: (CC-PVDZ AUX)
    Blend: CC-PVDZ-JKFIT + DEF2-UNIVERSAL-JKFIT
  Basis Set: CC-PVDZ
    Blend: CC-PVDZ
  @DF-UKS Final Energy:  -237.19894451374392
    Total Energy =                       -237.1989445137439247
  @DF-UKS Final Energy:  -237.27349327909857
    Total Energy =                       -237.2734932790985738
  @DF-UKS Final Energy:  -237.31122110845581
    Total Energy =                       -237.3112211084558112
  @DF-UKS Final Energy:  -237.33127990223056
    Total Energy =                       -237.3312799022305626
  @DF-UKS Final Energy:  -237.34223753019489
    Total Energy =                       -237.3422375301948932
  @DF-UKS Final Energy:  -237.34858901980240
    Total Energy =                       -237.3485890198024038
  @DF-UKS Final Energy:  -237.35255633953773
    Total Energy =                       -237.3525563395377276
  @DF-UKS Final Energy:  -237.35520596537867
    Total Energy =                       -237.3552059653786728
  @DF-UKS Final Energy:  -237.35701758093839
    Total Energy =                       -237.3570175809384182
  @DF-UKS Final Energy:  -237.35819189077409
    Total Energy =                       -237.3581918907740942
  @DF-UKS Final Energy:  -237.35820222200181
    Total Energy =                       -237.3582022220018075
  @DF-UKS Final Energy:  -237.35821245033245
    Total Energy =                       -237.3582124503324451
  @DF-UKS Final Energy:  -237.35896445061780
    Total Energy =                       -237.3589644506178047
  @DF-UKS Final Energy:  -237.35896743317284
    Total Energy =                       -237.3589674331728361
  @DF-UKS Final Energy:  -237.35897039578677
    Total Energy =                       -237.3589703957867698
  @DF-UKS Final Energy:  -237.35897333443395
    Total Energy =                       -237.3589733344339834
  @DF-UKS Final Energy:  -237.35931086698605
    Total Energy =                       -237.3593108669860499
  @DF-UKS Final Energy:  -237.35931163051316
    Total Energy =                       -237.3593116305131332
  @DF-UKS Final Energy:  -237.35931239140359
    Total Energy =                       -237.3593123914035914
  @DF-UKS Final Energy:  -237.35931314815741
    Total Energy =                       -237.3593131481574119
  @DF-UKS Final Energy:  -237.35931390081211
    Total Energy =                       -237.3593139008121113
  @DF-UKS Final Energy:  -237.35931464931076
    Total Energy =                       -237.3593146493107611
  @DF-UKS Final Energy:  -237.35931539377128
    Total Energy =                       -237.3593153937712827
  @DF-UKS Final Energy:  -237.35931613420985
    Total Energy =                       -237.3593161342098483
  @DF-UKS Final Energy:  -237.35931687056831
    Total Energy =                       -237.3593168705683070
  @DF-UKS Final Energy:  -237.35946059163982
    Total Energy =                       -237.3594605916398450
  @DF-UKS Final Energy:  -237.35950396914444
    Total Energy =                       -237.3595039691444413
  @DF-UKS Final Energy:  -237.35952351190107
    Total Energy =                       -237.3595235119010738
  Basis Set: (CC-PVDZ AUX)
    Blend: CC-PVDZ-JKFIT + DEF2-UNIVERSAL-JKFIT
  Basis Set: CC-PVDZ
    Blend: CC-PVDZ
  Basis Set: (CC-PVDZ AUX)
    Blend: CC-PVDZ-JKFIT + DEF2-UNIVERSAL-JKFIT
  @DF-UKS Final Energy:  -237.35952622299607
    Total Energy =                       -237.3595262229960667
  Basis Set: CC-PVDZ
    Blend: CC-PVDZ
  Basis Set: (CC-PVDZ AUX)
    Blend: CC-PVDZ-JKFIT + DEF2-UNIVERSAL-JKFIT
  Charge       = 0
  Multiplicity = 4
  Basis Set: CC-PVDZ
    Blend: CC-PVDZ
  Basis Set: (CC-PVDZ AUX)
    Blend: CC-PVDZ-JKFIT + DEF2-UNIVERSAL-JKFIT

    Orbital Energies [Eh]
    ---------------------

    Alpha Occupied:

       1A1   -38.479794     2A1   -19.277089     3A1    -2.224538
       4A1    -1.155412     1B1    -1.155355     1B2    -1.155352
       5A1    -1.007206     6A1    -0.445522     2B1    -0.445159
       2B2    -0.368487     7A1    -0.128299

    Alpha Virtual:

       3B1    -0.021107     3B2    -0.020686     8A1    -0.018595
       9A1     0.053741    10A1     0.075582     4B1     0.075857
       4B2     0.076192     5B1     0.158741    11A1     0.158924
       1A2     0.158926     5B2     0.159164    12A1     0.159934
       6B1     0.818274    13A1     0.835505     6B2     0.865854
      14A1     1.122227     7B1     2.438116    15A1     2.438845
       2A2     2.496400     7B2     2.496495    16A1     2.517529

    Beta Occupied:

       1A1   -38.478326     2A1   -19.227157     3A1    -2.221591
       4A1    -1.153492     1B1    -1.153435     1B2    -1.153432
       5A1    -0.848998     2B2    -0.316917

    Beta Virtual:

       6A1    -0.166932     2B1    -0.163942     7A1    -0.064075
       3B2    -0.000120     3B1     0.002791     8A1     0.003879
       9A1     0.066615     4B2     0.092924    10A1     0.093305
       4B1     0.094197    11A1     0.187974     1A2     0.187977
       5B2     0.188064     5B1     0.188395    12A1     0.189411
       6B2     0.895540     6B1     0.931814    13A1     0.947762
      14A1     1.203024     7B2     2.587401     2A2     2.587429
      15A1     2.595097     7B1     2.611800    16A1     2.612482

    Final Occupation by Irrep:
             A1    A2    B1    B2
    DOCC [     5,    0,    1,    2 ]
    SOCC [     2,    0,    1,    0 ]
    NA   [     7,    0,    2,    2 ]
    NB   [     5,    0,    1,    2 ]

  @DF-UKS Final Energy:  -237.35952711234540

   => Energetics <=

    Nuclear Repulsion Energy =             10.6516917693936328
    One-Electron Energy =                -352.3820819055234779
    Two-Electron Energy =                 122.8592408863859760
    DFT Exchange-Correlation Energy =     -18.4883778626015136
    Empirical Dispersion Energy =           0.0000000000000000
    VV10 Nonlocal Energy =                  0.0000000000000000
    Total Energy =                       -237.3595271123454040

  UHF NO Occupations:
  HONO-2 :    6 A1 1.0000000
  HONO-1 :    7 A1 1.0000000
  HONO-0 :    2 B1 1.0000000
  LUNO+0 :    8 A1 0.0007629
  LUNO+1 :    3 B2 0.0002632
  LUNO+2 :    3 B1 0.0000012
  LUNO+3 :    4 B2 0.0000011

Computation Completed

Properties will be evaluated at   0.000000,   0.000000,   0.000000 [a0]

Properties computed using the SCF density matrix

 Multipole Moments:

 ------------------------------------------------------------------------------------
     Multipole            Electronic (a.u.)      Nuclear  (a.u.)        Total (a.u.)
 ------------------------------------------------------------------------------------

 L = 1.  Multiply by 2.5417464519 to convert [e a0] to [Debye]
 Dipole X            :          0.0000000            0.0000000            0.0000000
 Dipole Y            :          0.0000000            0.0000000            0.0000000
 Dipole Z            :         -1.6254843            1.6898626            0.0643782
 Magnitude           :                                                    0.0643782

 ------------------------------------------------------------------------------------

*** tstop() called on Joses-MacBook-Pro-2.local at Wed Jul 16 19:19:12 2025
Module time:
	user time   =       3.91 seconds =       0.07 minutes
	system time =       2.64 seconds =       0.04 minutes
	total time  =          1 seconds =       0.02 minutes
Total time:
	user time   =     150.20 seconds =       2.50 minutes
	system time =     141.55 seconds =       2.36 minutes
	total time  =         31 seconds =       0.52 minutes

*** tstart() called on Joses-MacBook-Pro-2.local
*** at Wed Jul 16 19:19:12 2025

         ------------------------------------------------------------
                                   SCF GRAD
                          Rob Parrish, Justin Turney,
                       Andy Simmonett, and Alex Sokolov
         ------------------------------------------------------------

  ==> Geometry <==

    Molecular point group: c2v
    Full point group: C_inf_v

    Geometry (in Angstrom), charge = 0, multiplicity = 4:

       Center              X                  Y                   Z               Mass
    ------------   -----------------  -----------------  -----------------  -----------------
         O            0.000000000000     0.000000000000     2.578135921029    15.994914619570
         NA           0.000000000000     0.000000000000    -1.793713691890    22.989769282000

  Nuclear repulsion =   10.651691769393633

  ==> Basis Set <==

  Basis Set: CC-PVDZ
    Blend: CC-PVDZ
    Number of shells: 14
    Number of basis functions: 32
    Number of Cartesian functions: 34
    Spherical Harmonics?: true
    Max angular momentum: 2

  ==> DFJKGrad: Density-Fitted SCF Gradients <==

    Gradient:                    1
    J tasked:                  Yes
    K tasked:                  Yes
    wK tasked:                  No
    OpenMP threads:              1
    Integrals threads:           1
    Memory [MiB]:              375
    Schwarz Cutoff:          1E-12
    Fitting Condition:       1E-10

   => Auxiliary Basis Set <=

  Basis Set: (CC-PVDZ AUX)
    Blend: CC-PVDZ-JKFIT + DEF2-UNIVERSAL-JKFIT
    Number of shells: 58
    Number of basis functions: 182
    Number of Cartesian functions: 218
    Spherical Harmonics?: true
    Max angular momentum: 4

  ==> DFT Potential <==

   => LibXC <=

    Version 6.2.2
    S. Lehtola, C. Steigemann, M. J.T. Oliveira, and M. A.L. Marques.,  SoftwareX 7, 1â€“5 (2018) (10.1016/j.softx.2017.11.002)

   => Composite Functional: B3LYP <=

    B3LYP Hyb-GGA Exchange-Correlation Functional

    P. J. Stephens, F. J. Devlin, C. F. Chabalowski, and M. J. Frisch.,  J. Phys. Chem. 98, 11623 (1994) (10.1021/j100096a001)

    Deriv               =              1
    GGA                 =           TRUE
    Meta                =          FALSE

    Exchange Hybrid     =           TRUE
    MP2 Hybrid          =          FALSE

   => Exchange Functionals <=

    0.0800   Slater exchange
    0.7200         Becke 88

   => Exact (HF) Exchange <=

    0.2000               HF

   => Correlation Functionals <=

    0.1900   Vosko, Wilk & Nusair (VWN5_RPA)
    0.8100   Lee, Yang & Parr

   => LibXC Density Thresholds  <==

    XC_HYB_GGA_XC_B3LYP:  1.00E-15

   => Molecular Quadrature <=

    Radial Scheme          =       TREUTLER
    Pruning Scheme         =           NONE
    Nuclear Scheme         =       TREUTLER

    Blocking Scheme        =         OCTREE
    BS radius alpha        =              1
    Pruning alpha          =              1
    Radial Points          =             75
    Spherical Points       =            302
    Total Points           =          43921
    Total Blocks           =            445
    Max Points             =            255
    Max Functions          =             32
    Weights Tolerance      =       1.00E-15

  -Total Gradient:
     Atom            X                  Y                   Z
    ------   -----------------  -----------------  -----------------
       1        0.000000000000     0.000000000000     0.000023426418
       2        0.000000000000     0.000000000000     0.000027803762

*** tstop() called on Joses-MacBook-Pro-2.local at Wed Jul 16 19:19:12 2025
Module time:
	user time   =       2.12 seconds =       0.04 minutes
	system time =       0.81 seconds =       0.01 minutes
	total time  =          0 seconds =       0.00 minutes
Total time:
	user time   =     152.32 seconds =       2.54 minutes
	system time =     142.36 seconds =       2.37 minutes
	total time  =         31 seconds =       0.52 minutes

    			-----------------------------------------

    			 OPTKING 3.0: for geometry optimizations

    			     By R.A. King, Bethel University

    			        with contributions from

    			    A.V. Copan, J. Cayton, A. Heide

    			-----------------------------------------

	                            ===> Fragment 1 <==

	 Z (Atomic Numbers)          Masses                          Geom
	       8.000000            15.994915          0.00000000  0.00000000  4.87197080
	      11.000000            22.989769          0.00000000  0.00000000 -3.38962763

	 - Coordinate -           - BOHR/RAD -       - ANG/DEG -
	 R(1,2)           =         8.261598           4.371850

	        --- Internal Coordinate Step in ANG or DEG, aJ/ANG or AJ/DEG ---
	-------------------------------------------------------------------------------
	           Coordinate      Previous         Force          Change          New
	           ----------      --------        ------          ------        ------
	               R(1,2)       4.37185        0.00002        0.00518       4.37703
	-------------------------------------------------------------------------------

	                                 ==> Convergence Check <==

	Measures of convergence in internal coordinates in au.

	Criteria marked as inactive (o), active & met (*), and active & unmet ( ).

	----------------------------------------------------------------------------------------------
	   Step    Total Energy     Delta E     Max Force     RMS Force      Max Disp      RMS Disp
	----------------------------------------------------------------------------------------------
	  Convergence Criteria     1.00e-06 *    3.00e-04 *             o    1.20e-03 *             o
	----------------------------------------------------------------------------------------------
	    32    -237.35952711   -8.89e-07 *    2.19e-06 *    2.19e-06 o    9.78e-03      9.78e-03 o  ~
	----------------------------------------------------------------------------------------------

Next Geometry in Ang
	Fragment 1 (Ang)

	    O   0.0000000000   0.0000000000   2.5807240016
	   Na   0.0000000000   0.0000000000  -1.7963017725

    Final optimized geometry and variables:
    Molecular point group: c2v
    Full point group: C_inf_v

    Geometry (in Angstrom), charge = 0, multiplicity = 4:

    O            0.000000000000     0.000000000000     2.578135921029
    NA           0.000000000000     0.000000000000    -1.793713691890

    Psi4 stopped on: Wednesday, 16 July 2025 07:19PM
    Psi4 wall time for execution: 0:00:31.91

*** Psi4 exiting successfully. Buy a developer a beer!
