                               Psi4 1.9.1 release

  ==> Input File <==

--------------------------------------------------------------------------
molecule {
0 4
Be   0.00000        0.60000        0.00000
Al   0.00000       -0.60000        0.00000
}

set {
basis              cc-pvdz
reference          uks
maxiter            500
geom_maxiter       500
DAMPING_PERCENTAGE 1
guess              SAP
}

optimize('b3lyp')
--------------------------------------------------------------------------

    Molecular point group: c2v
  Charge       = 0
  Multiplicity = 4
  Basis Set: CC-PVDZ
    Blend: CC-PVDZ
  Basis Set: (CC-PVDZ AUX)
    Blend: CC-PVDZ-JKFIT + DEF2-UNIVERSAL-JKFIT
  @DF-UKS Final Energy:  -256.58310273137164
    Total Energy =                       -256.5831027313716390
 Dipole X            :          0.0000000            0.0000000            0.0000000
 Dipole Y            :          0.0000000            0.0000000            0.0000000
 Dipole Z            :          0.3480498           -0.5816474           -0.2335976
 Magnitude           :                                                    0.2335976
    Molecular point group: c2v
  Basis Set: CC-PVDZ
    Blend: CC-PVDZ
  Basis Set: (CC-PVDZ AUX)
    Blend: CC-PVDZ-JKFIT + DEF2-UNIVERSAL-JKFIT
  Basis Set: CC-PVDZ
    Blend: CC-PVDZ
  Basis Set: (CC-PVDZ AUX)
    Blend: CC-PVDZ-JKFIT + DEF2-UNIVERSAL-JKFIT
  @DF-UKS Final Energy:  -256.71372773454505
    Total Energy =                       -256.7137277345450457
  Basis Set: CC-PVDZ
    Blend: CC-PVDZ
  Basis Set: (CC-PVDZ AUX)
    Blend: CC-PVDZ-JKFIT + DEF2-UNIVERSAL-JKFIT
  Basis Set: CC-PVDZ
    Blend: CC-PVDZ
  @DF-UKS Final Energy:  -256.85160938704729
    Total Energy =                       -256.8516093870472901
  @DF-UKS Final Energy:  -256.96727723722637
    Total Energy =                       -256.9672772372263694
  @DF-UKS Final Energy:  -257.01343594068868
    Total Energy =                       -257.0134359406886801
  @DF-UKS Final Energy:  -257.02970989883050
    Total Energy =                       -257.0297098988305038
  @DF-UKS Final Energy:  -257.03416735389692
    Total Energy =                       -257.0341673538969189
  @DF-UKS Final Energy:  -257.03481936946696
    Total Energy =                       -257.0348193694669590
  @DF-UKS Final Energy:  -257.03494099889076
    Total Energy =                       -257.0349409988907610
  Basis Set: (CC-PVDZ AUX)
    Blend: CC-PVDZ-JKFIT + DEF2-UNIVERSAL-JKFIT
  Basis Set: CC-PVDZ
    Blend: CC-PVDZ
  Basis Set: (CC-PVDZ AUX)
    Blend: CC-PVDZ-JKFIT + DEF2-UNIVERSAL-JKFIT
  @DF-UKS Final Energy:  -257.03494903316249
    Total Energy =                       -257.0349490331624907
  Basis Set: CC-PVDZ
    Blend: CC-PVDZ
  Basis Set: (CC-PVDZ AUX)
    Blend: CC-PVDZ-JKFIT + DEF2-UNIVERSAL-JKFIT
  Charge       = 0
  Multiplicity = 4
  Basis Set: CC-PVDZ
    Blend: CC-PVDZ
  Basis Set: (CC-PVDZ AUX)
    Blend: CC-PVDZ-JKFIT + DEF2-UNIVERSAL-JKFIT

    Orbital Energies [Eh]
    ---------------------

    Alpha Occupied:

       1A1   -56.068908     2A1    -4.151130     3A1    -4.093507
       4A1    -2.704284     1B2    -2.703475     1B1    -2.703475
       5A1    -0.380468     6A1    -0.238675     2B1    -0.165624
       2B2    -0.165624

    Alpha Virtual:

       7A1    -0.110106     3B1    -0.031705     3B2    -0.031705
       8A1     0.070164     9A1     0.130621    10A1     0.167801
       4B1     0.167867     4B2     0.167867     5B2     0.233333
       5B1     0.233333    11A1     0.238853    12A1     0.244268
       1A2     0.244268     6B1     0.293484     6B2     0.293484
      13A1     0.358681     2A2     0.477636    14A1     0.477636
      15A1     0.560724     7B1     0.640755     7B2     0.640755
      16A1     0.826494

    Beta Occupied:

       1A1   -56.065196     2A1    -4.146105     3A1    -4.080416
       4A1    -2.699692     1B1    -2.696981     1B2    -2.696981
       5A1    -0.325197

    Beta Virtual:

       6A1    -0.136745     2B2    -0.073845     2B1    -0.073845
       7A1    -0.064269     3B2     0.021764     3B1     0.021764
       8A1     0.090080     9A1     0.151241    10A1     0.194745
       4B1     0.195311     4B2     0.195311     5B1     0.261319
       5B2     0.261319    11A1     0.271214     1A2     0.292259
      12A1     0.292259     6B1     0.340217     6B2     0.340217
      13A1     0.382493    14A1     0.542399     2A2     0.542399
      15A1     0.600994     7B1     0.691963     7B2     0.691963
      16A1     0.853024

    Final Occupation by Irrep:
             A1    A2    B1    B2
    DOCC [     5,    0,    1,    1 ]
    SOCC [     1,    0,    1,    1 ]
    NA   [     6,    0,    2,    2 ]
    NB   [     5,    0,    1,    1 ]

  @DF-UKS Final Energy:  -257.03494958968042

   => Energetics <=

    Nuclear Repulsion Energy =             12.9324559561410179
    One-Electron Energy =                -381.5120638923506249
    Two-Electron Energy =                 128.8119061609225184
    DFT Exchange-Correlation Energy =     -17.2672478143933539
    Empirical Dispersion Energy =           0.0000000000000000
    VV10 Nonlocal Energy =                  0.0000000000000000
    Total Energy =                       -257.0349495896804228

  UHF NO Occupations:
  HONO-2 :    2 B1 1.0000000
  HONO-1 :    2 B2 1.0000000
  HONO-0 :    6 A1 1.0000000
  LUNO+0 :    7 A1 0.0037734
  LUNO+1 :    8 A1 0.0000002
  LUNO+2 :    3 B2 0.0000002
  LUNO+3 :    3 B1 0.0000002

Computation Completed

Properties will be evaluated at   0.000000,   0.000000,   0.000000 [a0]

Properties computed using the SCF density matrix

 Multipole Moments:

 ------------------------------------------------------------------------------------
     Multipole            Electronic (a.u.)      Nuclear  (a.u.)        Total (a.u.)
 ------------------------------------------------------------------------------------

 L = 1.  Multiply by 2.5417464519 to convert [e a0] to [Debye]
 Dipole X            :          0.0000000            0.0000000            0.0000000
 Dipole Y            :          0.0000000            0.0000000            0.0000000
 Dipole Z            :          1.0683425           -1.0313403            0.0370021
 Magnitude           :                                                    0.0370021

 ------------------------------------------------------------------------------------

*** tstop() called on Joses-MacBook-Pro-2.local at Wed Jul 16 18:44:06 2025
Module time:
	user time   =       2.88 seconds =       0.05 minutes
	system time =       3.52 seconds =       0.06 minutes
	total time  =          0 seconds =       0.00 minutes
Total time:
	user time   =      53.82 seconds =       0.90 minutes
	system time =      55.47 seconds =       0.92 minutes
	total time  =         10 seconds =       0.17 minutes

*** tstart() called on Joses-MacBook-Pro-2.local
*** at Wed Jul 16 18:44:06 2025

         ------------------------------------------------------------
                                   SCF GRAD
                          Rob Parrish, Justin Turney,
                       Andy Simmonett, and Alex Sokolov
         ------------------------------------------------------------

  ==> Geometry <==

    Molecular point group: c2v
    Full point group: C_inf_v

    Geometry (in Angstrom), charge = 0, multiplicity = 4:

       Center              X                  Y                   Z               Mass
    ------------   -----------------  -----------------  -----------------  -----------------
         BE           0.000000000000     0.000000000000     1.595010055869     9.012183065000
         AL           0.000000000000     0.000000000000    -0.532754001334    26.981538530000

  Nuclear repulsion =   12.932455956141018

  ==> Basis Set <==

  Basis Set: CC-PVDZ
    Blend: CC-PVDZ
    Number of shells: 14
    Number of basis functions: 32
    Number of Cartesian functions: 34
    Spherical Harmonics?: true
    Max angular momentum: 2

  ==> DFJKGrad: Density-Fitted SCF Gradients <==

    Gradient:                    1
    J tasked:                  Yes
    K tasked:                  Yes
    wK tasked:                  No
    OpenMP threads:              1
    Integrals threads:           1
    Memory [MiB]:              375
    Schwarz Cutoff:          1E-12
    Fitting Condition:       1E-10

   => Auxiliary Basis Set <=

  Basis Set: (CC-PVDZ AUX)
    Blend: CC-PVDZ-JKFIT + DEF2-UNIVERSAL-JKFIT
    Number of shells: 53
    Number of basis functions: 163
    Number of Cartesian functions: 190
    Spherical Harmonics?: true
    Max angular momentum: 3

  ==> DFT Potential <==

   => LibXC <=

    Version 6.2.2
    S. Lehtola, C. Steigemann, M. J.T. Oliveira, and M. A.L. Marques.,  SoftwareX 7, 1â€“5 (2018) (10.1016/j.softx.2017.11.002)

   => Composite Functional: B3LYP <=

    B3LYP Hyb-GGA Exchange-Correlation Functional

    P. J. Stephens, F. J. Devlin, C. F. Chabalowski, and M. J. Frisch.,  J. Phys. Chem. 98, 11623 (1994) (10.1021/j100096a001)

    Deriv               =              1
    GGA                 =           TRUE
    Meta                =          FALSE

    Exchange Hybrid     =           TRUE
    MP2 Hybrid          =          FALSE

   => Exchange Functionals <=

    0.0800   Slater exchange
    0.7200         Becke 88

   => Exact (HF) Exchange <=

    0.2000               HF

   => Correlation Functionals <=

    0.1900   Vosko, Wilk & Nusair (VWN5_RPA)
    0.8100   Lee, Yang & Parr

   => LibXC Density Thresholds  <==

    XC_HYB_GGA_XC_B3LYP:  1.00E-15

   => Molecular Quadrature <=

    Radial Scheme          =       TREUTLER
    Pruning Scheme         =           NONE
    Nuclear Scheme         =       TREUTLER

    Blocking Scheme        =         OCTREE
    BS radius alpha        =              1
    Pruning alpha          =              1
    Radial Points          =             75
    Spherical Points       =            302
    Total Points           =          42444
    Total Blocks           =            397
    Max Points             =            256
    Max Functions          =             32
    Weights Tolerance      =       1.00E-15

  -Total Gradient:
     Atom            X                  Y                   Z
    ------   -----------------  -----------------  -----------------
       1        0.000000000000    -0.000000000000    -0.000090723085
       2        0.000000000000     0.000000000000     0.000082596870

*** tstop() called on Joses-MacBook-Pro-2.local at Wed Jul 16 18:44:07 2025
Module time:
	user time   =       1.05 seconds =       0.02 minutes
	system time =       1.36 seconds =       0.02 minutes
	total time  =          1 seconds =       0.02 minutes
Total time:
	user time   =      54.87 seconds =       0.91 minutes
	system time =      56.83 seconds =       0.95 minutes
	total time  =         11 seconds =       0.18 minutes

    			-----------------------------------------

    			 OPTKING 3.0: for geometry optimizations

    			     By R.A. King, Bethel University

    			        with contributions from

    			    A.V. Copan, J. Cayton, A. Heide

    			-----------------------------------------

	                            ===> Fragment 1 <==

	 Z (Atomic Numbers)          Masses                          Geom
	       4.000000             9.012183          0.00000000  0.00000000  3.01413217
	      13.000000            26.981539          0.00000000  0.00000000 -1.00675915

	 - Coordinate -           - BOHR/RAD -       - ANG/DEG -
	 R(1,2)           =         4.020891           2.127764

	        --- Internal Coordinate Step in ANG or DEG, aJ/ANG or AJ/DEG ---
	-------------------------------------------------------------------------------
	           Coordinate      Previous         Force          Change          New
	           ----------      --------        ------          ------        ------
	               R(1,2)       2.12776        0.00071        0.00045       2.12821
	-------------------------------------------------------------------------------

	                                 ==> Convergence Check <==

	Measures of convergence in internal coordinates in au.

	Criteria marked as inactive (o), active & met (*), and active & unmet ( ).

	----------------------------------------------------------------------------------------------
	   Step    Total Energy     Delta E     Max Force     RMS Force      Max Disp      RMS Disp
	----------------------------------------------------------------------------------------------
	  Convergence Criteria     1.00e-06 *    3.00e-04 *             o    1.20e-03 *             o
	----------------------------------------------------------------------------------------------
	    11    -257.03494959   -5.57e-07 *    8.67e-05 *    8.67e-05 o    8.47e-04 *    8.47e-04 o  ~
	----------------------------------------------------------------------------------------------

Next Geometry in Ang
	Fragment 1 (Ang)

	   Be   0.0000000000   0.0000000000   1.5952342289
	   Al   0.0000000000   0.0000000000  -0.5329781744

    Final optimized geometry and variables:
    Molecular point group: c2v
    Full point group: C_inf_v

    Geometry (in Angstrom), charge = 0, multiplicity = 4:

    BE           0.000000000000     0.000000000000     1.595010055869
    AL           0.000000000000     0.000000000000    -0.532754001334

    Psi4 stopped on: Wednesday, 16 July 2025 06:44PM
    Psi4 wall time for execution: 0:00:11.39

*** Psi4 exiting successfully. Buy a developer a beer!
