                               Psi4 1.9.1 release

  ==> Input File <==

--------------------------------------------------------------------------
molecule {
0 4
Al   0.00000        0.60000        0.00000
S   0.00000       -0.60000        0.00000
}

set {
basis              cc-pvdz
reference          uks
maxiter            500
geom_maxiter       500
DAMPING_PERCENTAGE 1
guess              SAP
}

optimize('b3lyp')
--------------------------------------------------------------------------

    Molecular point group: c2v
  Charge       = 0
  Multiplicity = 4
  Basis Set: CC-PVDZ
    Blend: CC-PVDZ
  Basis Set: (CC-PVDZ AUX)
    Blend: CC-PVDZ-JKFIT
  @DF-UKS Final Energy:  -639.28920260604070
    Total Energy =                       -639.2892026060407034
 Dipole X            :          0.0000000            0.0000000            0.0000000
 Dipole Y            :          0.0000000            0.0000000            0.0000000
 Dipole Z            :         -0.4937267           -0.6180494           -1.1117761
 Magnitude           :                                                    1.1117761
    Molecular point group: c2v
  Basis Set: CC-PVDZ
    Blend: CC-PVDZ
  Basis Set: (CC-PVDZ AUX)
    Blend: CC-PVDZ-JKFIT
  Basis Set: CC-PVDZ
    Blend: CC-PVDZ
  Basis Set: (CC-PVDZ AUX)
    Blend: CC-PVDZ-JKFIT
  @DF-UKS Final Energy:  -639.31410859394441
    Total Energy =                       -639.3141085939444110
  Basis Set: CC-PVDZ
    Blend: CC-PVDZ
  Basis Set: (CC-PVDZ AUX)
    Blend: CC-PVDZ-JKFIT
  Basis Set: CC-PVDZ
    Blend: CC-PVDZ
  @DF-UKS Final Energy:  -639.36164652059745
    Total Energy =                       -639.3616465205974464
  @DF-UKS Final Energy:  -639.52834982845945
    Total Energy =                       -639.5283498284593406
  @DF-UKS Final Energy:  -640.08940812323658
    Total Energy =                       -640.0894081232365806
  @DF-UKS Final Energy:  -640.28414329736961
    Total Energy =                       -640.2841432973696101
  @DF-UKS Final Energy:  -640.38264023127624
    Total Energy =                       -640.3826402312762411
  @DF-UKS Final Energy:  -640.50874066830045
    Total Energy =                       -640.5087406683005611
  @DF-UKS Final Energy:  -640.53711851957098
    Total Energy =                       -640.5371185195710950
  @DF-UKS Final Energy:  -640.54111925804455
    Total Energy =                       -640.5411192580445459
  @DF-UKS Final Energy:  -640.54228030727575
    Total Energy =                       -640.5422803072756324
  @DF-UKS Final Energy:  -640.54237921080494
    Total Energy =                       -640.5423792108048247
  Basis Set: (CC-PVDZ AUX)
    Blend: CC-PVDZ-JKFIT
  Basis Set: CC-PVDZ
    Blend: CC-PVDZ
  Basis Set: (CC-PVDZ AUX)
    Blend: CC-PVDZ-JKFIT
  @DF-UKS Final Energy:  -640.54238880480000
    Total Energy =                       -640.5423888048001118
  Basis Set: CC-PVDZ
    Blend: CC-PVDZ
  Basis Set: (CC-PVDZ AUX)
    Blend: CC-PVDZ-JKFIT
  Charge       = 0
  Multiplicity = 4
  Basis Set: CC-PVDZ
    Blend: CC-PVDZ
  Basis Set: (CC-PVDZ AUX)
    Blend: CC-PVDZ-JKFIT

    Orbital Energies [Eh]
    ---------------------

    Alpha Occupied:

       1A1   -88.912090     2A1   -56.098729     3A1    -7.972219
       1B1    -5.942478     4A1    -5.933631     1B2    -5.925309
       5A1    -4.179727     2B2    -2.733765     6A1    -2.732199
       2B1    -2.731176     7A1    -0.719274     8A1    -0.391351
       3B1    -0.330640     3B2    -0.287347     9A1    -0.276110
       4B1    -0.140863

    Alpha Virtual:

       4B2    -0.078670    10A1    -0.000536    11A1     0.140085
       5B1     0.189944    12A1     0.190934     5B2     0.201929
       6B1     0.229787     1A2     0.231755    13A1     0.236492
       6B2     0.245636    14A1     0.304063     7B1     0.482841
       7B2     0.510217    15A1     0.555699    16A1     0.569664
       2A2     0.570761    17A1     0.618270     8B1     0.669259
       8B2     0.699852    18A1     0.987597

    Beta Occupied:

       1A1   -88.904765     2A1   -56.093873     3A1    -7.964724
       4A1    -5.924173     1B1    -5.923066     1B2    -5.920783
       5A1    -4.172825     2B2    -2.729788     6A1    -2.726181
       2B1    -2.720020     7A1    -0.660045     8A1    -0.344014
       3B2    -0.269836

    Beta Virtual:

       3B1    -0.185734     9A1    -0.166483     4B2    -0.051666
       4B1    -0.026261    10A1     0.029587    11A1     0.158978
       5B2     0.209618    12A1     0.222437     5B1     0.227045
       6B2     0.275604     1A2     0.284386    13A1     0.284386
       6B1     0.296594    14A1     0.338414     7B2     0.521692
       7B1     0.532800    15A1     0.583734     2A2     0.625374
      16A1     0.629103    17A1     0.647617     8B2     0.720909
       8B1     0.734124    18A1     1.017100

    Final Occupation by Irrep:
             A1    A2    B1    B2
    DOCC [     8,    0,    2,    3 ]
    SOCC [     1,    0,    2,    0 ]
    NA   [     9,    0,    4,    3 ]
    NB   [     8,    0,    2,    3 ]

  @DF-UKS Final Energy:  -640.54238975522094

   => Energetics <=

    Nuclear Repulsion Energy =             47.8052403797322825
    One-Electron Energy =                -981.6302481845705188
    Two-Electron Energy =                 328.9585732203606767
    DFT Exchange-Correlation Energy =     -35.6759551707433715
    Empirical Dispersion Energy =           0.0000000000000000
    VV10 Nonlocal Energy =                  0.0000000000000000
    Total Energy =                       -640.5423897552209382

  UHF NO Occupations:
  HONO-2 :    3 B1 1.0000000
  HONO-1 :    4 B1 1.0000000
  HONO-0 :    9 A1 1.0000000
  LUNO+0 :   10 A1 0.0017805
  LUNO+1 :   11 A1 0.0007842
  LUNO+2 :    4 B2 0.0001379
  LUNO+3 :    5 B2 0.0000005

Computation Completed

Properties will be evaluated at   0.000000,   0.000000,   0.000000 [a0]

Properties computed using the SCF density matrix

 Multipole Moments:

 ------------------------------------------------------------------------------------
     Multipole            Electronic (a.u.)      Nuclear  (a.u.)        Total (a.u.)
 ------------------------------------------------------------------------------------

 L = 1.  Multiply by 2.5417464519 to convert [e a0] to [Debye]
 Dipole X            :          0.0000000            0.0000000            0.0000000
 Dipole Y            :          0.0000000            0.0000000            0.0000000
 Dipole Z            :          1.5738747           -1.1858531            0.3880216
 Magnitude           :                                                    0.3880216

 ------------------------------------------------------------------------------------

*** tstop() called on Joses-MacBook-Pro-2.local at Wed Jul 16 20:08:52 2025
Module time:
	user time   =       6.35 seconds =       0.11 minutes
	system time =       2.06 seconds =       0.03 minutes
	total time  =          0 seconds =       0.00 minutes
Total time:
	user time   =     180.34 seconds =       3.01 minutes
	system time =      44.73 seconds =       0.75 minutes
	total time  =         21 seconds =       0.35 minutes

*** tstart() called on Joses-MacBook-Pro-2.local
*** at Wed Jul 16 20:08:52 2025

         ------------------------------------------------------------
                                   SCF GRAD
                          Rob Parrish, Justin Turney,
                       Andy Simmonett, and Alex Sokolov
         ------------------------------------------------------------

  ==> Geometry <==

    Molecular point group: c2v
    Full point group: C_inf_v

    Geometry (in Angstrom), charge = 0, multiplicity = 4:

       Center              X                  Y                   Z               Mass
    ------------   -----------------  -----------------  -----------------  -----------------
         AL           0.000000000000     0.000000000000     1.248674752503    26.981538530000
         S            0.000000000000     0.000000000000    -1.053768639583    31.972071174400

  Nuclear repulsion =   47.805240379732282

  ==> Basis Set <==

  Basis Set: CC-PVDZ
    Blend: CC-PVDZ
    Number of shells: 16
    Number of basis functions: 36
    Number of Cartesian functions: 38
    Spherical Harmonics?: true
    Max angular momentum: 2

  ==> DFJKGrad: Density-Fitted SCF Gradients <==

    Gradient:                    1
    J tasked:                  Yes
    K tasked:                  Yes
    wK tasked:                  No
    OpenMP threads:              1
    Integrals threads:           1
    Memory [MiB]:              375
    Schwarz Cutoff:          1E-12
    Fitting Condition:       1E-10

   => Auxiliary Basis Set <=

  Basis Set: (CC-PVDZ AUX)
    Blend: CC-PVDZ-JKFIT
    Number of shells: 72
    Number of basis functions: 224
    Number of Cartesian functions: 260
    Spherical Harmonics?: true
    Max angular momentum: 3

  ==> DFT Potential <==

   => LibXC <=

    Version 6.2.2
    S. Lehtola, C. Steigemann, M. J.T. Oliveira, and M. A.L. Marques.,  SoftwareX 7, 1â€“5 (2018) (10.1016/j.softx.2017.11.002)

   => Composite Functional: B3LYP <=

    B3LYP Hyb-GGA Exchange-Correlation Functional

    P. J. Stephens, F. J. Devlin, C. F. Chabalowski, and M. J. Frisch.,  J. Phys. Chem. 98, 11623 (1994) (10.1021/j100096a001)

    Deriv               =              1
    GGA                 =           TRUE
    Meta                =          FALSE

    Exchange Hybrid     =           TRUE
    MP2 Hybrid          =          FALSE

   => Exchange Functionals <=

    0.0800   Slater exchange
    0.7200         Becke 88

   => Exact (HF) Exchange <=

    0.2000               HF

   => Correlation Functionals <=

    0.1900   Vosko, Wilk & Nusair (VWN5_RPA)
    0.8100   Lee, Yang & Parr

   => LibXC Density Thresholds  <==

    XC_HYB_GGA_XC_B3LYP:  1.00E-15

   => Molecular Quadrature <=

    Radial Scheme          =       TREUTLER
    Pruning Scheme         =           NONE
    Nuclear Scheme         =       TREUTLER

    Blocking Scheme        =         OCTREE
    BS radius alpha        =              1
    Pruning alpha          =              1
    Radial Points          =             75
    Spherical Points       =            302
    Total Points           =          42660
    Total Blocks           =            404
    Max Points             =            254
    Max Functions          =             36
    Weights Tolerance      =       1.00E-15

  -Total Gradient:
     Atom            X                  Y                   Z
    ------   -----------------  -----------------  -----------------
       1        0.000000000000    -0.000000000000    -0.000131120666
       2       -0.000000000000     0.000000000000     0.000157197161

*** tstop() called on Joses-MacBook-Pro-2.local at Wed Jul 16 20:08:53 2025
Module time:
	user time   =       2.48 seconds =       0.04 minutes
	system time =       1.06 seconds =       0.02 minutes
	total time  =          1 seconds =       0.02 minutes
Total time:
	user time   =     182.82 seconds =       3.05 minutes
	system time =      45.79 seconds =       0.76 minutes
	total time  =         22 seconds =       0.37 minutes

    			-----------------------------------------

    			 OPTKING 3.0: for geometry optimizations

    			     By R.A. King, Bethel University

    			        with contributions from

    			    A.V. Copan, J. Cayton, A. Heide

    			-----------------------------------------

	                            ===> Fragment 1 <==

	 Z (Atomic Numbers)          Masses                          Geom
	      13.000000            26.981539          0.00000000  0.00000000  2.35965330
	      16.000000            31.972071          0.00000000  0.00000000 -1.99133413

	 - Coordinate -           - BOHR/RAD -       - ANG/DEG -
	 R(1,2)           =         4.350987           2.302443

	        --- Internal Coordinate Step in ANG or DEG, aJ/ANG or AJ/DEG ---
	-------------------------------------------------------------------------------
	           Coordinate      Previous         Force          Change          New
	           ----------      --------        ------          ------        ------
	               R(1,2)       2.30244        0.00119        0.00072       2.30317
	-------------------------------------------------------------------------------

	                                 ==> Convergence Check <==

	Measures of convergence in internal coordinates in au.

	Criteria marked as inactive (o), active & met (*), and active & unmet ( ).

	----------------------------------------------------------------------------------------------
	   Step    Total Energy     Delta E     Max Force     RMS Force      Max Disp      RMS Disp
	----------------------------------------------------------------------------------------------
	  Convergence Criteria     1.00e-06 *    3.00e-04 *             o    1.20e-03 *             o
	----------------------------------------------------------------------------------------------
	    14    -640.54238976   -9.50e-07 *    1.44e-04 *    1.44e-04 o    1.37e-03      1.37e-03 o  ~
	----------------------------------------------------------------------------------------------

Next Geometry in Ang
	Fragment 1 (Ang)

	   Al   0.0000000000   0.0000000000   1.2490361434
	    S   0.0000000000   0.0000000000  -1.0541300304

    Final optimized geometry and variables:
    Molecular point group: c2v
    Full point group: C_inf_v

    Geometry (in Angstrom), charge = 0, multiplicity = 4:

    AL           0.000000000000     0.000000000000     1.248674752503
    S            0.000000000000     0.000000000000    -1.053768639583

    Psi4 stopped on: Wednesday, 16 July 2025 08:08PM
    Psi4 wall time for execution: 0:00:22.41

*** Psi4 exiting successfully. Buy a developer a beer!
