                               Psi4 1.9.1 release

  ==> Input File <==

--------------------------------------------------------------------------
molecule {
0 4
O   0.00000        0.60000        0.00000
Cl   0.00000       -0.60000        0.00000
}

set {
basis              cc-pvdz
reference          uks
maxiter            500
geom_maxiter       500
DAMPING_PERCENTAGE 1
guess              SAP
}

optimize('b3lyp')
--------------------------------------------------------------------------

    Molecular point group: c2v
  Charge       = 0
  Multiplicity = 4
  Basis Set: CC-PVDZ
    Blend: CC-PVDZ
  Basis Set: (CC-PVDZ AUX)
    Blend: CC-PVDZ-JKFIT
  @DF-UKS Final Energy:  -534.87286660119400
    Total Energy =                       -534.8728666011940049
 Dipole X            :          0.0000000            0.0000000            0.0000000
 Dipole Y            :          0.0000000            0.0000000            0.0000000
 Dipole Z            :         -0.2646442            0.3487254            0.0840812
 Magnitude           :                                                    0.0840812
    Molecular point group: c2v
  Basis Set: CC-PVDZ
    Blend: CC-PVDZ
  Basis Set: (CC-PVDZ AUX)
    Blend: CC-PVDZ-JKFIT
  Basis Set: CC-PVDZ
    Blend: CC-PVDZ
  Basis Set: (CC-PVDZ AUX)
    Blend: CC-PVDZ-JKFIT
  @DF-UKS Final Energy:  -535.02096772874609
    Total Energy =                       -535.0209677287460863
  Basis Set: CC-PVDZ
    Blend: CC-PVDZ
  Basis Set: (CC-PVDZ AUX)
    Blend: CC-PVDZ-JKFIT
  Basis Set: CC-PVDZ
    Blend: CC-PVDZ
  @DF-UKS Final Energy:  -535.11871314540281
    Total Energy =                       -535.1187131454028076
  @DF-UKS Final Energy:  -535.17819126956783
    Total Energy =                       -535.1781912695678329
  @DF-UKS Final Energy:  -535.22504703556615
    Total Energy =                       -535.2250470355661491
  @DF-UKS Final Energy:  -535.24946093028086
    Total Energy =                       -535.2494609302808612
  @DF-UKS Final Energy:  -535.25501485872473
    Total Energy =                       -535.2550148587247349
  @DF-UKS Final Energy:  -535.25611799518390
    Total Energy =                       -535.2561179951838994
  @DF-UKS Final Energy:  -535.25621458263265
    Total Energy =                       -535.2562145826326514
  @DF-UKS Final Energy:  -535.25622443431928
    Total Energy =                       -535.2562244343192788
  Basis Set: (CC-PVDZ AUX)
    Blend: CC-PVDZ-JKFIT
  Basis Set: CC-PVDZ
    Blend: CC-PVDZ
  Basis Set: (CC-PVDZ AUX)
    Blend: CC-PVDZ-JKFIT
  @DF-UKS Final Energy:  -535.25622548943625
    Total Energy =                       -535.2562254894362468
  Basis Set: CC-PVDZ
    Blend: CC-PVDZ
  Basis Set: (CC-PVDZ AUX)
    Blend: CC-PVDZ-JKFIT
  Charge       = 0
  Multiplicity = 4
  Basis Set: CC-PVDZ
    Blend: CC-PVDZ
  Basis Set: (CC-PVDZ AUX)
    Blend: CC-PVDZ-JKFIT

    Orbital Energies [Eh]
    ---------------------

    Alpha Occupied:

       1A1  -101.577133     2A1   -19.328592     3A1    -9.491231
       4A1    -7.254385     1B2    -7.246903     1B1    -7.246903
       5A1    -1.065307     6A1    -0.829566     7A1    -0.491746
       2B1    -0.477939     2B2    -0.477939     3B2    -0.347031
       3B1    -0.347031     8A1    -0.290652

    Alpha Virtual:

       9A1     0.504735     4B1     0.529462     4B2     0.529462
      10A1     0.603652     5B2     0.644543     5B1     0.644543
       1A2     0.701612    11A1     0.701612    12A1     0.731546
       6B2     0.881198     6B1     0.881198    13A1     0.907168
      14A1     1.454282     2A2     2.421854    15A1     2.421905
       7B2     2.450277     7B1     2.450277    16A1     2.566055

    Beta Occupied:

       1A1  -101.569319     2A1   -19.272430     3A1    -9.483554
       4A1    -7.238719     1B2    -7.237808     1B1    -7.237808
       5A1    -0.912336     6A1    -0.768096     7A1    -0.388021
       2B1    -0.329837     2B2    -0.329837

    Beta Virtual:

       3B2    -0.206179     3B1    -0.206179     8A1    -0.132002
       9A1     0.537036     4B1     0.549910     4B2     0.549910
      10A1     0.632449     5B1     0.701539     5B2     0.701539
       1A2     0.733827    11A1     0.733828    12A1     0.785230
       6B2     0.965345     6B1     0.965345    13A1     0.973125
      14A1     1.529000     7B2     2.564981     7B1     2.564981
       2A2     2.566118    15A1     2.566176    16A1     2.670027

    Final Occupation by Irrep:
             A1    A2    B1    B2
    DOCC [     7,    0,    2,    2 ]
    SOCC [     1,    0,    1,    1 ]
    NA   [     8,    0,    3,    3 ]
    NB   [     7,    0,    2,    2 ]

  @DF-UKS Final Energy:  -535.25622560988040

   => Energetics <=

    Nuclear Repulsion Energy =             34.9657958981410459
    One-Electron Energy =                -808.1436053096238084
    Two-Electron Energy =                 267.4836935725020339
    DFT Exchange-Correlation Energy =     -29.5621097708996849
    Empirical Dispersion Energy =           0.0000000000000000
    VV10 Nonlocal Energy =                  0.0000000000000000
    Total Energy =                       -535.2562256098804028

  UHF NO Occupations:
  HONO-2 :    3 B2 1.0000000
  HONO-1 :    3 B1 1.0000000
  HONO-0 :    8 A1 1.0000000
  LUNO+0 :    9 A1 0.0013025
  LUNO+1 :    4 B2 0.0009341
  LUNO+2 :    4 B1 0.0009341
  LUNO+3 :   10 A1 0.0004476

Computation Completed

Properties will be evaluated at   0.000000,   0.000000,   0.000000 [a0]

Properties computed using the SCF density matrix

 Multipole Moments:

 ------------------------------------------------------------------------------------
     Multipole            Electronic (a.u.)      Nuclear  (a.u.)        Total (a.u.)
 ------------------------------------------------------------------------------------

 L = 1.  Multiply by 2.5417464519 to convert [e a0] to [Debye]
 Dipole X            :          0.0000000            0.0000000            0.0000000
 Dipole Y            :          0.0000000            0.0000000            0.0000000
 Dipole Z            :         -0.3431249            0.5981346            0.2550097
 Magnitude           :                                                    0.2550097

 ------------------------------------------------------------------------------------

*** tstop() called on Joses-MacBook-Pro-2.local at Wed Jul 16 19:23:41 2025
Module time:
	user time   =       4.13 seconds =       0.07 minutes
	system time =       3.13 seconds =       0.05 minutes
	total time  =          0 seconds =       0.00 minutes
Total time:
	user time   =      80.48 seconds =       1.34 minutes
	system time =      60.39 seconds =       1.01 minutes
	total time  =         14 seconds =       0.23 minutes

*** tstart() called on Joses-MacBook-Pro-2.local
*** at Wed Jul 16 19:23:41 2025

         ------------------------------------------------------------
                                   SCF GRAD
                          Rob Parrish, Justin Turney,
                       Andy Simmonett, and Alex Sokolov
         ------------------------------------------------------------

  ==> Geometry <==

    Molecular point group: c2v
    Full point group: C_inf_v

    Geometry (in Angstrom), charge = 0, multiplicity = 4:

       Center              X                  Y                   Z               Mass
    ------------   -----------------  -----------------  -----------------  -----------------
         O            0.000000000000     0.000000000000     1.412265930594    15.994914619570
         CL           0.000000000000     0.000000000000    -0.645976955132    34.968852682000

  Nuclear repulsion =   34.965795898141046

  ==> Basis Set <==

  Basis Set: CC-PVDZ
    Blend: CC-PVDZ
    Number of shells: 14
    Number of basis functions: 32
    Number of Cartesian functions: 34
    Spherical Harmonics?: true
    Max angular momentum: 2

  ==> DFJKGrad: Density-Fitted SCF Gradients <==

    Gradient:                    1
    J tasked:                  Yes
    K tasked:                  Yes
    wK tasked:                  No
    OpenMP threads:              1
    Integrals threads:           1
    Memory [MiB]:              375
    Schwarz Cutoff:          1E-12
    Fitting Condition:       1E-10

   => Auxiliary Basis Set <=

  Basis Set: (CC-PVDZ AUX)
    Blend: CC-PVDZ-JKFIT
    Number of shells: 60
    Number of basis functions: 182
    Number of Cartesian functions: 211
    Spherical Harmonics?: true
    Max angular momentum: 3

  ==> DFT Potential <==

   => LibXC <=

    Version 6.2.2
    S. Lehtola, C. Steigemann, M. J.T. Oliveira, and M. A.L. Marques.,  SoftwareX 7, 1â€“5 (2018) (10.1016/j.softx.2017.11.002)

   => Composite Functional: B3LYP <=

    B3LYP Hyb-GGA Exchange-Correlation Functional

    P. J. Stephens, F. J. Devlin, C. F. Chabalowski, and M. J. Frisch.,  J. Phys. Chem. 98, 11623 (1994) (10.1021/j100096a001)

    Deriv               =              1
    GGA                 =           TRUE
    Meta                =          FALSE

    Exchange Hybrid     =           TRUE
    MP2 Hybrid          =          FALSE

   => Exchange Functionals <=

    0.0800   Slater exchange
    0.7200         Becke 88

   => Exact (HF) Exchange <=

    0.2000               HF

   => Correlation Functionals <=

    0.1900   Vosko, Wilk & Nusair (VWN5_RPA)
    0.8100   Lee, Yang & Parr

   => LibXC Density Thresholds  <==

    XC_HYB_GGA_XC_B3LYP:  1.00E-15

   => Molecular Quadrature <=

    Radial Scheme          =       TREUTLER
    Pruning Scheme         =           NONE
    Nuclear Scheme         =       TREUTLER

    Blocking Scheme        =         OCTREE
    BS radius alpha        =              1
    Pruning alpha          =              1
    Radial Points          =             75
    Spherical Points       =            302
    Total Points           =          41392
    Total Blocks           =            371
    Max Points             =            252
    Max Functions          =             32
    Weights Tolerance      =       1.00E-15

  -Total Gradient:
     Atom            X                  Y                   Z
    ------   -----------------  -----------------  -----------------
       1        0.000000000000     0.000000000000    -0.000037964327
       2        0.000000000000    -0.000000000000     0.000016163473

*** tstop() called on Joses-MacBook-Pro-2.local at Wed Jul 16 19:23:42 2025
Module time:
	user time   =       1.12 seconds =       0.02 minutes
	system time =       1.34 seconds =       0.02 minutes
	total time  =          1 seconds =       0.02 minutes
Total time:
	user time   =      81.60 seconds =       1.36 minutes
	system time =      61.73 seconds =       1.03 minutes
	total time  =         15 seconds =       0.25 minutes

    			-----------------------------------------

    			 OPTKING 3.0: for geometry optimizations

    			     By R.A. King, Bethel University

    			        with contributions from

    			    A.V. Copan, J. Cayton, A. Heide

    			-----------------------------------------

	                            ===> Fragment 1 <==

	 Z (Atomic Numbers)          Masses                          Geom
	       8.000000            15.994915          0.00000000  0.00000000  2.66879583
	      17.000000            34.968853          0.00000000  0.00000000 -1.22071953

	 - Coordinate -           - BOHR/RAD -       - ANG/DEG -
	 R(1,2)           =         3.889515           2.058243

	        --- Internal Coordinate Step in ANG or DEG, aJ/ANG or AJ/DEG ---
	-------------------------------------------------------------------------------
	           Coordinate      Previous         Force          Change          New
	           ----------      --------        ------          ------        ------
	               R(1,2)       2.05824        0.00022        0.00016       2.05840
	-------------------------------------------------------------------------------

	                                 ==> Convergence Check <==

	Measures of convergence in internal coordinates in au.

	Criteria marked as inactive (o), active & met (*), and active & unmet ( ).

	----------------------------------------------------------------------------------------------
	   Step    Total Energy     Delta E     Max Force     RMS Force      Max Disp      RMS Disp
	----------------------------------------------------------------------------------------------
	  Convergence Criteria     1.00e-06 *    3.00e-04 *             o    1.20e-03 *             o
	----------------------------------------------------------------------------------------------
	    12    -535.25622561   -1.20e-07 *    2.71e-05 *    2.71e-05 o    2.96e-04 *    2.96e-04 o  ~
	----------------------------------------------------------------------------------------------

Next Geometry in Ang
	Fragment 1 (Ang)

	    O   0.0000000000   0.0000000000   1.4123441289
	   Cl   0.0000000000   0.0000000000  -0.6460551534

    Final optimized geometry and variables:
    Molecular point group: c2v
    Full point group: C_inf_v

    Geometry (in Angstrom), charge = 0, multiplicity = 4:

    O            0.000000000000     0.000000000000     1.412265930594
    CL           0.000000000000     0.000000000000    -0.645976955132

    Psi4 stopped on: Wednesday, 16 July 2025 07:23PM
    Psi4 wall time for execution: 0:00:15.10

*** Psi4 exiting successfully. Buy a developer a beer!
