                               Psi4 1.9.1 release

  ==> Input File <==

--------------------------------------------------------------------------
molecule {
0 4
P   0.00000        0.60000        0.00000
S   0.00000       -0.60000        0.00000
}

set {
basis              cc-pvdz
reference          uks
maxiter            500
geom_maxiter       500
DAMPING_PERCENTAGE 1
guess              SAP
}

optimize('b3lyp')
--------------------------------------------------------------------------

    Molecular point group: c2v
  Charge       = 0
  Multiplicity = 4
  Basis Set: CC-PVDZ
    Blend: CC-PVDZ
  Basis Set: (CC-PVDZ AUX)
    Blend: CC-PVDZ-JKFIT
  @DF-UKS Final Energy:  -738.21686010666701
    Total Energy =                       -738.2168601066670135
 Dipole X            :          0.0000000            0.0000000            0.0000000
 Dipole Y            :          0.0000000            0.0000000            0.0000000
 Dipole Z            :          0.4706861           -0.5763806           -0.1056945
 Magnitude           :                                                    0.1056945
    Molecular point group: c2v
  Basis Set: CC-PVDZ
    Blend: CC-PVDZ
  Basis Set: (CC-PVDZ AUX)
    Blend: CC-PVDZ-JKFIT
  Basis Set: CC-PVDZ
    Blend: CC-PVDZ
  Basis Set: (CC-PVDZ AUX)
    Blend: CC-PVDZ-JKFIT
  @DF-UKS Final Energy:  -738.25592662081181
    Total Energy =                       -738.2559266208118061
  Basis Set: CC-PVDZ
    Blend: CC-PVDZ
  Basis Set: (CC-PVDZ AUX)
    Blend: CC-PVDZ-JKFIT
  Basis Set: CC-PVDZ
    Blend: CC-PVDZ
  @DF-UKS Final Energy:  -738.32886065764353
    Total Energy =                       -738.3288606576435313
  @DF-UKS Final Energy:  -738.56964401546338
    Total Energy =                       -738.5696440154634956
  @DF-UKS Final Energy:  -739.11192946921210
    Total Energy =                       -739.1119294692121002
  @DF-UKS Final Energy:  -739.28254947371431
    Total Energy =                       -739.2825494737143117
  @DF-UKS Final Energy:  -739.38095014800615
    Total Energy =                       -739.3809501480060362
  @DF-UKS Final Energy:  -739.41541609727165
    Total Energy =                       -739.4154160972717591
  @DF-UKS Final Energy:  -739.43215142483518
    Total Energy =                       -739.4321514248351832
  @DF-UKS Final Energy:  -739.43940079289439
    Total Energy =                       -739.4394007928945030
  @DF-UKS Final Energy:  -739.44125437306366
    Total Energy =                       -739.4412543730636571
  @DF-UKS Final Energy:  -739.44190481710609
    Total Energy =                       -739.4419048171060922
  @DF-UKS Final Energy:  -739.44203826126170
    Total Energy =                       -739.4420382612615867
  @DF-UKS Final Energy:  -739.44207169970332
    Total Energy =                       -739.4420716997033196
  Basis Set: (CC-PVDZ AUX)
    Blend: CC-PVDZ-JKFIT
  Basis Set: CC-PVDZ
    Blend: CC-PVDZ
  Basis Set: (CC-PVDZ AUX)
    Blend: CC-PVDZ-JKFIT
  @DF-UKS Final Energy:  -739.44207603591644
    Total Energy =                       -739.4420760359164433
  Basis Set: CC-PVDZ
    Blend: CC-PVDZ
  Basis Set: (CC-PVDZ AUX)
    Blend: CC-PVDZ-JKFIT
  Charge       = 0
  Multiplicity = 4
  Basis Set: CC-PVDZ
    Blend: CC-PVDZ
  Basis Set: (CC-PVDZ AUX)
    Blend: CC-PVDZ-JKFIT

    Orbital Energies [Eh]
    ---------------------

    Alpha Occupied:

       1A1   -88.918161     2A1   -77.152968     3A1    -7.978479
       4A1    -6.620509     5A1    -5.949273     1B2    -5.935224
       1B1    -5.935224     6A1    -4.787188     2B1    -4.781154
       2B2    -4.781154     7A1    -0.771002     8A1    -0.585687
       9A1    -0.386311     3B2    -0.332697     3B1    -0.332697
       4B1    -0.223999     4B2    -0.223999

    Alpha Virtual:

      10A1    -0.023389    11A1     0.262044    12A1     0.336182
       5B2     0.338848     5B1     0.338848     6B1     0.400029
       6B2     0.400029    13A1     0.404550     1A2     0.412398
      14A1     0.412399     7B1     0.496272     7B2     0.496272
       2A2     0.592458    15A1     0.592460    16A1     0.617228
      17A1     0.705046     8B1     0.754745     8B2     0.754745
      18A1     1.107252

    Beta Occupied:

       1A1   -88.911809     2A1   -77.143492     3A1    -7.972040
       4A1    -6.610191     5A1    -5.937370     1B2    -5.926778
       1B1    -5.926778     6A1    -4.775156     2B1    -4.765484
       2B2    -4.765484     7A1    -0.723088     8A1    -0.495171
       3B2    -0.286982     3B1    -0.286982

    Beta Virtual:

       9A1    -0.259038     4B1    -0.106328     4B2    -0.106328
      10A1     0.025379    11A1     0.293790    12A1     0.378262
       5B2     0.390018     5B1     0.390018    13A1     0.439156
       6B1     0.446923     6B2     0.446923    14A1     0.484188
       1A2     0.484188     7B1     0.515173     7B2     0.515173
       2A2     0.630608    15A1     0.630610    16A1     0.644964
      17A1     0.745675     8B1     0.804852     8B2     0.804852
      18A1     1.146083

    Final Occupation by Irrep:
             A1    A2    B1    B2
    DOCC [     8,    0,    3,    3 ]
    SOCC [     1,    0,    1,    1 ]
    NA   [     9,    0,    4,    4 ]
    NB   [     8,    0,    3,    3 ]

  @DF-UKS Final Energy:  -739.44207623155000

   => Energetics <=

    Nuclear Repulsion Energy =             61.9126719086632420
    One-Electron Energy =               -1144.4750790520952251
    Two-Electron Energy =                 382.4933317248152207
    DFT Exchange-Correlation Energy =     -39.3730008129332631
    Empirical Dispersion Energy =           0.0000000000000000
    VV10 Nonlocal Energy =                  0.0000000000000000
    Total Energy =                       -739.4420762315500042

  UHF NO Occupations:
  HONO-2 :    4 B2 1.0000000
  HONO-1 :    4 B1 1.0000000
  HONO-0 :    9 A1 1.0000000
  LUNO+0 :    5 B2 0.0010943
  LUNO+1 :    5 B1 0.0010943
  LUNO+2 :   10 A1 0.0010734
  LUNO+3 :   11 A1 0.0001211

Computation Completed

Properties will be evaluated at   0.000000,   0.000000,   0.000000 [a0]

Properties computed using the SCF density matrix

 Multipole Moments:

 ------------------------------------------------------------------------------------
     Multipole            Electronic (a.u.)      Nuclear  (a.u.)        Total (a.u.)
 ------------------------------------------------------------------------------------

 L = 1.  Multiply by 2.5417464519 to convert [e a0] to [Debye]
 Dipole X            :          0.0000000            0.0000000            0.0000000
 Dipole Y            :          0.0000000            0.0000000            0.0000000
 Dipole Z            :          1.3837159           -0.9852828            0.3984330
 Magnitude           :                                                    0.3984330

 ------------------------------------------------------------------------------------

*** tstop() called on Joses-MacBook-Pro-2.local at Wed Jul 16 20:23:10 2025
Module time:
	user time   =       8.26 seconds =       0.14 minutes
	system time =       1.96 seconds =       0.03 minutes
	total time  =          1 seconds =       0.02 minutes
Total time:
	user time   =     186.40 seconds =       3.11 minutes
	system time =      53.99 seconds =       0.90 minutes
	total time  =         23 seconds =       0.38 minutes

*** tstart() called on Joses-MacBook-Pro-2.local
*** at Wed Jul 16 20:23:10 2025

         ------------------------------------------------------------
                                   SCF GRAD
                          Rob Parrish, Justin Turney,
                       Andy Simmonett, and Alex Sokolov
         ------------------------------------------------------------

  ==> Geometry <==

    Molecular point group: c2v
    Full point group: C_inf_v

    Geometry (in Angstrom), charge = 0, multiplicity = 4:

       Center              X                  Y                   Z               Mass
    ------------   -----------------  -----------------  -----------------  -----------------
         P            0.000000000000     0.000000000000     1.041925368706    30.973761998420
         S            0.000000000000     0.000000000000    -1.009391859989    31.972071174400

  Nuclear repulsion =   61.912671908663242

  ==> Basis Set <==

  Basis Set: CC-PVDZ
    Blend: CC-PVDZ
    Number of shells: 16
    Number of basis functions: 36
    Number of Cartesian functions: 38
    Spherical Harmonics?: true
    Max angular momentum: 2

  ==> DFJKGrad: Density-Fitted SCF Gradients <==

    Gradient:                    1
    J tasked:                  Yes
    K tasked:                  Yes
    wK tasked:                  No
    OpenMP threads:              1
    Integrals threads:           1
    Memory [MiB]:              375
    Schwarz Cutoff:          1E-12
    Fitting Condition:       1E-10

   => Auxiliary Basis Set <=

  Basis Set: (CC-PVDZ AUX)
    Blend: CC-PVDZ-JKFIT
    Number of shells: 72
    Number of basis functions: 224
    Number of Cartesian functions: 260
    Spherical Harmonics?: true
    Max angular momentum: 3

  ==> DFT Potential <==

   => LibXC <=

    Version 6.2.2
    S. Lehtola, C. Steigemann, M. J.T. Oliveira, and M. A.L. Marques.,  SoftwareX 7, 1â€“5 (2018) (10.1016/j.softx.2017.11.002)

   => Composite Functional: B3LYP <=

    B3LYP Hyb-GGA Exchange-Correlation Functional

    P. J. Stephens, F. J. Devlin, C. F. Chabalowski, and M. J. Frisch.,  J. Phys. Chem. 98, 11623 (1994) (10.1021/j100096a001)

    Deriv               =              1
    GGA                 =           TRUE
    Meta                =          FALSE

    Exchange Hybrid     =           TRUE
    MP2 Hybrid          =          FALSE

   => Exchange Functionals <=

    0.0800   Slater exchange
    0.7200         Becke 88

   => Exact (HF) Exchange <=

    0.2000               HF

   => Correlation Functionals <=

    0.1900   Vosko, Wilk & Nusair (VWN5_RPA)
    0.8100   Lee, Yang & Parr

   => LibXC Density Thresholds  <==

    XC_HYB_GGA_XC_B3LYP:  1.00E-15

   => Molecular Quadrature <=

    Radial Scheme          =       TREUTLER
    Pruning Scheme         =           NONE
    Nuclear Scheme         =       TREUTLER

    Blocking Scheme        =         OCTREE
    BS radius alpha        =              1
    Pruning alpha          =              1
    Radial Points          =             75
    Spherical Points       =            302
    Total Points           =          40834
    Total Blocks           =            364
    Max Points             =            256
    Max Functions          =             36
    Weights Tolerance      =       1.00E-15

  -Total Gradient:
     Atom            X                  Y                   Z
    ------   -----------------  -----------------  -----------------
       1        0.000000000000     0.000000000000    -0.000028694262
       2       -0.000000000000     0.000000000000     0.000036657417

*** tstop() called on Joses-MacBook-Pro-2.local at Wed Jul 16 20:23:10 2025
Module time:
	user time   =       3.59 seconds =       0.06 minutes
	system time =       0.71 seconds =       0.01 minutes
	total time  =          0 seconds =       0.00 minutes
Total time:
	user time   =     189.99 seconds =       3.17 minutes
	system time =      54.70 seconds =       0.91 minutes
	total time  =         23 seconds =       0.38 minutes

    			-----------------------------------------

    			 OPTKING 3.0: for geometry optimizations

    			     By R.A. King, Bethel University

    			        with contributions from

    			    A.V. Copan, J. Cayton, A. Heide

    			-----------------------------------------

	                            ===> Fragment 1 <==

	 Z (Atomic Numbers)          Masses                          Geom
	      15.000000            30.973762          0.00000000  0.00000000  1.96895359
	      16.000000            31.972071          0.00000000  0.00000000 -1.90747417

	 - Coordinate -           - BOHR/RAD -       - ANG/DEG -
	 R(1,2)           =         3.876428           2.051317

	        --- Internal Coordinate Step in ANG or DEG, aJ/ANG or AJ/DEG ---
	-------------------------------------------------------------------------------
	           Coordinate      Previous         Force          Change          New
	           ----------      --------        ------          ------        ------
	               R(1,2)       2.05132        0.00027        0.00010       2.05142
	-------------------------------------------------------------------------------

	                                 ==> Convergence Check <==

	Measures of convergence in internal coordinates in au.

	Criteria marked as inactive (o), active & met (*), and active & unmet ( ).

	----------------------------------------------------------------------------------------------
	   Step    Total Energy     Delta E     Max Force     RMS Force      Max Disp      RMS Disp
	----------------------------------------------------------------------------------------------
	  Convergence Criteria     1.00e-06 *    3.00e-04 *             o    1.20e-03 *             o
	----------------------------------------------------------------------------------------------
	    16    -739.44207623   -1.96e-07 *    3.27e-05 *    3.27e-05 o    1.85e-04 *    1.85e-04 o  ~
	----------------------------------------------------------------------------------------------

Next Geometry in Ang
	Fragment 1 (Ang)

	    P   0.0000000000   0.0000000000   1.0419743810
	    S   0.0000000000   0.0000000000  -1.0094408723

    Final optimized geometry and variables:
    Molecular point group: c2v
    Full point group: C_inf_v

    Geometry (in Angstrom), charge = 0, multiplicity = 4:

    P            0.000000000000     0.000000000000     1.041925368706
    S            0.000000000000     0.000000000000    -1.009391859989

    Psi4 stopped on: Wednesday, 16 July 2025 08:23PM
    Psi4 wall time for execution: 0:00:23.98

*** Psi4 exiting successfully. Buy a developer a beer!
