                               Psi4 1.9.1 release

  ==> Input File <==

--------------------------------------------------------------------------
molecule {
0 4
F   0.00000        0.60000        0.00000
Mg   0.00000       -0.60000        0.00000
}

set {
basis              cc-pvdz
reference          uks
maxiter            500
geom_maxiter       500
DAMPING_PERCENTAGE 1
guess              SAP
}

optimize('b3lyp')
--------------------------------------------------------------------------

    Molecular point group: c2v
  Charge       = 0
  Multiplicity = 4
  Basis Set: CC-PVDZ
    Blend: CC-PVDZ
  Basis Set: (CC-PVDZ AUX)
    Blend: CC-PVDZ-JKFIT + DEF2-UNIVERSAL-JKFIT
  @DF-UKS Final Energy:  -299.24143460246091
    Total Energy =                       -299.2414346024609131
 Dipole X            :          0.0000000            0.0000000            0.0000000
 Dipole Y            :          0.0000000            0.0000000            0.0000000
 Dipole Z            :          1.6416042           -0.6391737            1.0024305
 Magnitude           :                                                    1.0024305
    Molecular point group: c2v
  Basis Set: CC-PVDZ
    Blend: CC-PVDZ
  Basis Set: (CC-PVDZ AUX)
    Blend: CC-PVDZ-JKFIT + DEF2-UNIVERSAL-JKFIT
  Basis Set: CC-PVDZ
    Blend: CC-PVDZ
  Basis Set: (CC-PVDZ AUX)
    Blend: CC-PVDZ-JKFIT + DEF2-UNIVERSAL-JKFIT
  @DF-UKS Final Energy:  -299.43990551667270
    Total Energy =                       -299.4399055166726953
  Basis Set: CC-PVDZ
    Blend: CC-PVDZ
  Basis Set: (CC-PVDZ AUX)
    Blend: CC-PVDZ-JKFIT + DEF2-UNIVERSAL-JKFIT
  Basis Set: CC-PVDZ
    Blend: CC-PVDZ
  @DF-UKS Final Energy:  -299.55641589722234
    Total Energy =                       -299.5564158972223368
  @DF-UKS Final Energy:  -299.62071250736182
    Total Energy =                       -299.6207125073618727
  @DF-UKS Final Energy:  -299.65742218308100
    Total Energy =                       -299.6574221830809961
  @DF-UKS Final Energy:  -299.67956275229699
    Total Energy =                       -299.6795627522969880
  @DF-UKS Final Energy:  -299.69338383251886
    Total Energy =                       -299.6933838325188617
  @DF-UKS Final Energy:  -299.70224520853736
    Total Energy =                       -299.7022452085373629
  @DF-UKS Final Energy:  -299.70785677969343
    Total Energy =                       -299.7078567796934294
  @DF-UKS Final Energy:  -299.71118627651759
    Total Energy =                       -299.7111862765175943
  @DF-UKS Final Energy:  -299.71301914705208
    Total Energy =                       -299.7130191470520799
  @DF-UKS Final Energy:  -299.71399859307547
    Total Energy =                       -299.7139985930754733
  @DF-UKS Final Energy:  -299.71453513806080
    Total Energy =                       -299.7145351380607394
  @DF-UKS Final Energy:  -299.71483758312263
    Total Energy =                       -299.7148375831226872
  @DF-UKS Final Energy:  -299.71500019449076
    Total Energy =                       -299.7150001944907558
  @DF-UKS Final Energy:  -299.71507421313777
    Total Energy =                       -299.7150742131377683
  Basis Set: (CC-PVDZ AUX)
    Blend: CC-PVDZ-JKFIT + DEF2-UNIVERSAL-JKFIT
  Basis Set: CC-PVDZ
    Blend: CC-PVDZ
  Basis Set: (CC-PVDZ AUX)
    Blend: CC-PVDZ-JKFIT + DEF2-UNIVERSAL-JKFIT
  @DF-UKS Final Energy:  -299.71509918826780
    Total Energy =                       -299.7150991882677999
  Basis Set: CC-PVDZ
    Blend: CC-PVDZ
  Basis Set: (CC-PVDZ AUX)
    Blend: CC-PVDZ-JKFIT + DEF2-UNIVERSAL-JKFIT
  Charge       = 0
  Multiplicity = 4
  Basis Set: CC-PVDZ
    Blend: CC-PVDZ
  Basis Set: (CC-PVDZ AUX)
    Blend: CC-PVDZ-JKFIT + DEF2-UNIVERSAL-JKFIT

    Orbital Energies [Eh]
    ---------------------

    Alpha Occupied:

       1A1   -46.884104     2A1   -24.789387     3A1    -3.163050
       4A1    -1.907334     1B1    -1.907309     1B2    -1.904288
       5A1    -1.219128     6A1    -0.546822     2B1    -0.457055
       2B2    -0.456907     7A1    -0.245543     3B2    -0.107329

    Alpha Virtual:

       3B1    -0.057895     8A1    -0.057802     9A1     0.080663
       4B2     0.130124     4B1     0.139789    10A1     0.141983
       5B2     0.269603     1A2     0.269911    11A1     0.273223
      12A1     0.280871     5B1     0.281099    13A1     1.044311
       6B1     1.085034     6B2     1.085386    14A1     1.446028
      15A1     3.431373     7B1     3.453115     7B2     3.453210
       2A2     3.522707    16A1     3.522967

    Beta Occupied:

       1A1   -46.879863     2A1   -24.758757     3A1    -3.155930
       4A1    -1.903072     1B1    -1.903047     1B2    -1.895464
       5A1    -1.128381     2B1    -0.425725     2B2    -0.425545

    Beta Virtual:

       6A1    -0.254527     7A1    -0.139862     3B1    -0.019166
       8A1    -0.016838     3B2     0.000237     9A1     0.107551
       4B1     0.162202    10A1     0.163800     4B2     0.178778
       5B1     0.316273    11A1     0.316400     1A2     0.337026
       5B2     0.337170    12A1     0.343883     6B1     1.102939
       6B2     1.103310    13A1     1.154597    14A1     1.493277
       2A2     3.537884    15A1     3.538126     7B1     3.548066
       7B2     3.548171    16A1     3.567637

    Final Occupation by Irrep:
             A1    A2    B1    B2
    DOCC [     5,    0,    2,    2 ]
    SOCC [     2,    0,    0,    1 ]
    NA   [     7,    0,    2,    3 ]
    NB   [     5,    0,    2,    2 ]

  @DF-UKS Final Energy:  -299.71510866242943

   => Energetics <=

    Nuclear Repulsion Energy =             13.2398105206351708
    One-Electron Energy =                -444.3595922473667770
    Two-Electron Energy =                 153.0513382075661184
    DFT Exchange-Correlation Energy =     -21.6466651432639559
    Empirical Dispersion Energy =           0.0000000000000000
    VV10 Nonlocal Energy =                  0.0000000000000000
    Total Energy =                       -299.7151086624294294

  UHF NO Occupations:
  HONO-2 :    6 A1 1.0000000
  HONO-1 :    3 B2 1.0000000
  HONO-0 :    7 A1 1.0000000
  LUNO+0 :    8 A1 0.0003090
  LUNO+1 :    3 B1 0.0000556
  LUNO+2 :    4 B2 0.0000555
  LUNO+3 :    9 A1 0.0000009

Computation Completed

Properties will be evaluated at   0.000000,   0.000000,   0.000000 [a0]

Properties computed using the SCF density matrix

 Multipole Moments:

 ------------------------------------------------------------------------------------
     Multipole            Electronic (a.u.)      Nuclear  (a.u.)        Total (a.u.)
 ------------------------------------------------------------------------------------

 L = 1.  Multiply by 2.5417464519 to convert [e a0] to [Debye]
 Dipole X            :          0.0000000            0.0000000            0.0000000
 Dipole Y            :          0.0000000            0.0000000            0.0000000
 Dipole Z            :          2.3046457           -2.2992213            0.0054244
 Magnitude           :                                                    0.0054244

 ------------------------------------------------------------------------------------

*** tstop() called on Joses-MacBook-Pro-2.local at Wed Jul 16 19:27:08 2025
Module time:
	user time   =       2.86 seconds =       0.05 minutes
	system time =       2.43 seconds =       0.04 minutes
	total time  =          0 seconds =       0.00 minutes
Total time:
	user time   =     103.77 seconds =       1.73 minutes
	system time =      75.42 seconds =       1.26 minutes
	total time  =         18 seconds =       0.30 minutes

*** tstart() called on Joses-MacBook-Pro-2.local
*** at Wed Jul 16 19:27:08 2025

         ------------------------------------------------------------
                                   SCF GRAD
                          Rob Parrish, Justin Turney,
                       Andy Simmonett, and Alex Sokolov
         ------------------------------------------------------------

  ==> Geometry <==

    Molecular point group: c2v
    Full point group: C_inf_v

    Geometry (in Angstrom), charge = 0, multiplicity = 4:

       Center              X                  Y                   Z               Mass
    ------------   -----------------  -----------------  -----------------  -----------------
         F            0.000000000000     0.000000000000     2.408698142123    18.998403162730
         MG           0.000000000000     0.000000000000    -1.907914898772    23.985041697000

  Nuclear repulsion =   13.239810520635171

  ==> Basis Set <==

  Basis Set: CC-PVDZ
    Blend: CC-PVDZ
    Number of shells: 14
    Number of basis functions: 32
    Number of Cartesian functions: 34
    Spherical Harmonics?: true
    Max angular momentum: 2

  ==> DFJKGrad: Density-Fitted SCF Gradients <==

    Gradient:                    1
    J tasked:                  Yes
    K tasked:                  Yes
    wK tasked:                  No
    OpenMP threads:              1
    Integrals threads:           1
    Memory [MiB]:              375
    Schwarz Cutoff:          1E-12
    Fitting Condition:       1E-10

   => Auxiliary Basis Set <=

  Basis Set: (CC-PVDZ AUX)
    Blend: CC-PVDZ-JKFIT + DEF2-UNIVERSAL-JKFIT
    Number of shells: 58
    Number of basis functions: 182
    Number of Cartesian functions: 218
    Spherical Harmonics?: true
    Max angular momentum: 4

  ==> DFT Potential <==

   => LibXC <=

    Version 6.2.2
    S. Lehtola, C. Steigemann, M. J.T. Oliveira, and M. A.L. Marques.,  SoftwareX 7, 1â€“5 (2018) (10.1016/j.softx.2017.11.002)

   => Composite Functional: B3LYP <=

    B3LYP Hyb-GGA Exchange-Correlation Functional

    P. J. Stephens, F. J. Devlin, C. F. Chabalowski, and M. J. Frisch.,  J. Phys. Chem. 98, 11623 (1994) (10.1021/j100096a001)

    Deriv               =              1
    GGA                 =           TRUE
    Meta                =          FALSE

    Exchange Hybrid     =           TRUE
    MP2 Hybrid          =          FALSE

   => Exchange Functionals <=

    0.0800   Slater exchange
    0.7200         Becke 88

   => Exact (HF) Exchange <=

    0.2000               HF

   => Correlation Functionals <=

    0.1900   Vosko, Wilk & Nusair (VWN5_RPA)
    0.8100   Lee, Yang & Parr

   => LibXC Density Thresholds  <==

    XC_HYB_GGA_XC_B3LYP:  1.00E-15

   => Molecular Quadrature <=

    Radial Scheme          =       TREUTLER
    Pruning Scheme         =           NONE
    Nuclear Scheme         =       TREUTLER

    Blocking Scheme        =         OCTREE
    BS radius alpha        =              1
    Pruning alpha          =              1
    Radial Points          =             75
    Spherical Points       =            302
    Total Points           =          43586
    Total Blocks           =            434
    Max Points             =            256
    Max Functions          =             32
    Weights Tolerance      =       1.00E-15

  -Total Gradient:
     Atom            X                  Y                   Z
    ------   -----------------  -----------------  -----------------
       1       -0.000000000000     0.000000000000     0.000062996721
       2       -0.000000000000     0.000000000000     0.000063446797

*** tstop() called on Joses-MacBook-Pro-2.local at Wed Jul 16 19:27:08 2025
Module time:
	user time   =       1.21 seconds =       0.02 minutes
	system time =       1.37 seconds =       0.02 minutes
	total time  =          0 seconds =       0.00 minutes
Total time:
	user time   =     104.98 seconds =       1.75 minutes
	system time =      76.79 seconds =       1.28 minutes
	total time  =         18 seconds =       0.30 minutes

    			-----------------------------------------

    			 OPTKING 3.0: for geometry optimizations

    			     By R.A. King, Bethel University

    			        with contributions from

    			    A.V. Copan, J. Cayton, A. Heide

    			-----------------------------------------

	                            ===> Fragment 1 <==

	 Z (Atomic Numbers)          Masses                          Geom
	       9.000000            18.998403          0.00000000  0.00000000  4.55177981
	      12.000000            23.985042          0.00000000  0.00000000 -3.60543663

	 - Coordinate -           - BOHR/RAD -       - ANG/DEG -
	 R(1,2)           =         8.157216           4.316613

	        --- Internal Coordinate Step in ANG or DEG, aJ/ANG or AJ/DEG ---
	-------------------------------------------------------------------------------
	           Coordinate      Previous         Force          Change          New
	           ----------      --------        ------          ------        ------
	               R(1,2)       4.31661        0.00000        0.00051       4.31713
	-------------------------------------------------------------------------------

	                                 ==> Convergence Check <==

	Measures of convergence in internal coordinates in au.

	Criteria marked as inactive (o), active & met (*), and active & unmet ( ).

	----------------------------------------------------------------------------------------------
	   Step    Total Energy     Delta E     Max Force     RMS Force      Max Disp      RMS Disp
	----------------------------------------------------------------------------------------------
	  Convergence Criteria     1.00e-06 *    3.00e-04 *             o    1.20e-03 *             o
	----------------------------------------------------------------------------------------------
	    18    -299.71510866   -9.47e-06      2.25e-07 *    2.25e-07 o    9.69e-04 *    9.69e-04 o  ~
	----------------------------------------------------------------------------------------------

Next Geometry in Ang
	Fragment 1 (Ang)

	    F   0.0000000000   0.0000000000   2.4089545239
	   Mg   0.0000000000   0.0000000000  -1.9081712806

    Final optimized geometry and variables:
    Molecular point group: c2v
    Full point group: C_inf_v

    Geometry (in Angstrom), charge = 0, multiplicity = 4:

    F            0.000000000000     0.000000000000     2.408698142123
    MG           0.000000000000     0.000000000000    -1.907914898772

    Psi4 stopped on: Wednesday, 16 July 2025 07:27PM
    Psi4 wall time for execution: 0:00:19.03

*** Psi4 exiting successfully. Buy a developer a beer!
