                               Psi4 1.9.1 release

  ==> Input File <==

--------------------------------------------------------------------------
molecule {
0 4
Li   0.00000        0.60000        0.00000
C   0.00000       -0.60000        0.00000
}

set {
basis              cc-pvdz
reference          uks
maxiter            500
geom_maxiter       500
DAMPING_PERCENTAGE 1
guess              SAP
}

optimize('b3lyp')
--------------------------------------------------------------------------

    Molecular point group: c2v
  Charge       = 0
  Multiplicity = 4
  Basis Set: CC-PVDZ
    Blend: CC-PVDZ
  Basis Set: (CC-PVDZ AUX)
    Blend: CC-PVDZ-JKFIT + DEF2-UNIVERSAL-JKFIT
  @DF-UKS Final Energy:   -45.22621360578749
    Total Energy =                        -45.2262136057874997
 Dipole X            :          0.0000000            0.0000000            0.0000000
 Dipole Y            :          0.0000000            0.0000000            0.0000000
 Dipole Z            :          2.4704418           -0.7269546            1.7434871
 Magnitude           :                                                    1.7434871
    Molecular point group: c2v
  Basis Set: CC-PVDZ
    Blend: CC-PVDZ
  Basis Set: (CC-PVDZ AUX)
    Blend: CC-PVDZ-JKFIT + DEF2-UNIVERSAL-JKFIT
  Basis Set: CC-PVDZ
    Blend: CC-PVDZ
  Basis Set: (CC-PVDZ AUX)
    Blend: CC-PVDZ-JKFIT + DEF2-UNIVERSAL-JKFIT
  @DF-UKS Final Energy:   -45.36304622986111
    Total Energy =                        -45.3630462298611050
  Basis Set: CC-PVDZ
    Blend: CC-PVDZ
  Basis Set: (CC-PVDZ AUX)
    Blend: CC-PVDZ-JKFIT + DEF2-UNIVERSAL-JKFIT
  Basis Set: CC-PVDZ
    Blend: CC-PVDZ
  @DF-UKS Final Energy:   -45.40566927667491
    Total Energy =                        -45.4056692766748995
  @DF-UKS Final Energy:   -45.42555361113765
    Total Energy =                        -45.4255536111376585
  @DF-UKS Final Energy:   -45.43213964038130
    Total Energy =                        -45.4321396403813011
  @DF-UKS Final Energy:   -45.43348692128637
    Total Energy =                        -45.4334869212863595
  @DF-UKS Final Energy:   -45.43385812740917
    Total Energy =                        -45.4338581274091666
  @DF-UKS Final Energy:   -45.43390013985063
    Total Energy =                        -45.4339001398506355
  Basis Set: (CC-PVDZ AUX)
    Blend: CC-PVDZ-JKFIT + DEF2-UNIVERSAL-JKFIT
  Basis Set: CC-PVDZ
    Blend: CC-PVDZ
  Basis Set: (CC-PVDZ AUX)
    Blend: CC-PVDZ-JKFIT + DEF2-UNIVERSAL-JKFIT
  @DF-UKS Final Energy:   -45.43390515583846
    Total Energy =                        -45.4339051558384597
  Basis Set: CC-PVDZ
    Blend: CC-PVDZ
  Basis Set: (CC-PVDZ AUX)
    Blend: CC-PVDZ-JKFIT + DEF2-UNIVERSAL-JKFIT
  Charge       = 0
  Multiplicity = 4
  Basis Set: CC-PVDZ
    Blend: CC-PVDZ
  Basis Set: (CC-PVDZ AUX)
    Blend: CC-PVDZ-JKFIT + DEF2-UNIVERSAL-JKFIT

    Orbital Energies [Eh]
    ---------------------

    Alpha Occupied:

       1A1   -10.167400     2A1    -2.031603     3A1    -0.513671
       4A1    -0.195898     1B1    -0.176078     1B2    -0.176078

    Alpha Virtual:

       5A1    -0.058053     2B2     0.006483     2B1     0.006483
       6A1     0.033881     7A1     0.085875     3B1     0.087306
       3B2     0.087306     8A1     0.202208     1A2     0.232949
       9A1     0.232949     4B1     0.293687     4B2     0.293687
      10A1     0.445302     5B1     0.606151     5B2     0.606151
      11A1     0.632023    12A1     1.092227     2A2     1.221454
      13A1     1.221458     6B1     1.297551     6B2     1.297551
      14A1     1.416601

    Beta Occupied:

       1A1   -10.133994     2A1    -2.027893     3A1    -0.377457

    Beta Virtual:

       4A1    -0.061189     1B2    -0.034636     1B1    -0.034636
       5A1    -0.011985     6A1     0.043743     2B1     0.043757
       2B2     0.043757     7A1     0.085855     3B1     0.100935
       3B2     0.100935     8A1     0.228566     1A2     0.250266
       9A1     0.250271     4B1     0.319628     4B2     0.319628
      10A1     0.476286     5B1     0.677371     5B2     0.677371
      11A1     0.707227    12A1     1.176757     2A2     1.326043
      13A1     1.326053     6B1     1.399598     6B2     1.399598
      14A1     1.488921

    Final Occupation by Irrep:
             A1    A2    B1    B2
    DOCC [     3,    0,    0,    0 ]
    SOCC [     1,    0,    1,    1 ]
    NA   [     4,    0,    1,    1 ]
    NB   [     3,    0,    0,    0 ]

  @DF-UKS Final Energy:   -45.43390581556320

   => Energetics <=

    Nuclear Repulsion Energy =              4.9915517919344916
    One-Electron Energy =                 -70.8500492755862297
    Two-Electron Energy =                  26.2501927457028508
    DFT Exchange-Correlation Energy =      -5.8256010776143237
    Empirical Dispersion Energy =           0.0000000000000000
    VV10 Nonlocal Energy =                  0.0000000000000000
    Total Energy =                        -45.4339058155632074

  UHF NO Occupations:
  HONO-2 :    1 B2 1.0000000
  HONO-1 :    1 B1 1.0000000
  HONO-0 :    4 A1 1.0000000
  LUNO+0 :    5 A1 0.0014151
  LUNO+1 :    6 A1 0.0000004
  LUNO+2 :    7 A1 0.0000003
  LUNO+3 :    8 A1 0.0000000

Computation Completed

Properties will be evaluated at   0.000000,   0.000000,   0.000000 [a0]

Properties computed using the SCF density matrix

 Multipole Moments:

 ------------------------------------------------------------------------------------
     Multipole            Electronic (a.u.)      Nuclear  (a.u.)        Total (a.u.)
 ------------------------------------------------------------------------------------

 L = 1.  Multiply by 2.5417464519 to convert [e a0] to [Debye]
 Dipole X            :          0.0000000            0.0000000            0.0000000
 Dipole Y            :          0.0000000            0.0000000            0.0000000
 Dipole Z            :          3.4835096           -1.1560167            2.3274929
 Magnitude           :                                                    2.3274929

 ------------------------------------------------------------------------------------

*** tstop() called on Joses-MacBook-Pro-2.local at Wed Jul 16 18:29:32 2025
Module time:
	user time   =       2.85 seconds =       0.05 minutes
	system time =       2.41 seconds =       0.04 minutes
	total time  =          0 seconds =       0.00 minutes
Total time:
	user time   =      42.21 seconds =       0.70 minutes
	system time =      44.64 seconds =       0.74 minutes
	total time  =          8 seconds =       0.13 minutes

*** tstart() called on Joses-MacBook-Pro-2.local
*** at Wed Jul 16 18:29:32 2025

         ------------------------------------------------------------
                                   SCF GRAD
                          Rob Parrish, Justin Turney,
                       Andy Simmonett, and Alex Sokolov
         ------------------------------------------------------------

  ==> Geometry <==

    Molecular point group: c2v
    Full point group: C_inf_v

    Geometry (in Angstrom), charge = 0, multiplicity = 4:

       Center              X                  Y                   Z               Mass
    ------------   -----------------  -----------------  -----------------  -----------------
         LI           0.000000000000     0.000000000000     1.204203971077     7.016003436600
         C            0.000000000000     0.000000000000    -0.704058266620    12.000000000000

  Nuclear repulsion =    4.991551791934492

  ==> Basis Set <==

  Basis Set: CC-PVDZ
    Blend: CC-PVDZ
    Number of shells: 12
    Number of basis functions: 28
    Number of Cartesian functions: 30
    Spherical Harmonics?: true
    Max angular momentum: 2

  ==> DFJKGrad: Density-Fitted SCF Gradients <==

    Gradient:                    1
    J tasked:                  Yes
    K tasked:                  Yes
    wK tasked:                  No
    OpenMP threads:              1
    Integrals threads:           1
    Memory [MiB]:              375
    Schwarz Cutoff:          1E-12
    Fitting Condition:       1E-10

   => Auxiliary Basis Set <=

  Basis Set: (CC-PVDZ AUX)
    Blend: CC-PVDZ-JKFIT + DEF2-UNIVERSAL-JKFIT
    Number of shells: 41
    Number of basis functions: 121
    Number of Cartesian functions: 141
    Spherical Harmonics?: true
    Max angular momentum: 3

  ==> DFT Potential <==

   => LibXC <=

    Version 6.2.2
    S. Lehtola, C. Steigemann, M. J.T. Oliveira, and M. A.L. Marques.,  SoftwareX 7, 1â€“5 (2018) (10.1016/j.softx.2017.11.002)

   => Composite Functional: B3LYP <=

    B3LYP Hyb-GGA Exchange-Correlation Functional

    P. J. Stephens, F. J. Devlin, C. F. Chabalowski, and M. J. Frisch.,  J. Phys. Chem. 98, 11623 (1994) (10.1021/j100096a001)

    Deriv               =              1
    GGA                 =           TRUE
    Meta                =          FALSE

    Exchange Hybrid     =           TRUE
    MP2 Hybrid          =          FALSE

   => Exchange Functionals <=

    0.0800   Slater exchange
    0.7200         Becke 88

   => Exact (HF) Exchange <=

    0.2000               HF

   => Correlation Functionals <=

    0.1900   Vosko, Wilk & Nusair (VWN5_RPA)
    0.8100   Lee, Yang & Parr

   => LibXC Density Thresholds  <==

    XC_HYB_GGA_XC_B3LYP:  1.00E-15

   => Molecular Quadrature <=

    Radial Scheme          =       TREUTLER
    Pruning Scheme         =           NONE
    Nuclear Scheme         =       TREUTLER

    Blocking Scheme        =         OCTREE
    BS radius alpha        =              1
    Pruning alpha          =              1
    Radial Points          =             75
    Spherical Points       =            302
    Total Points           =          44308
    Total Blocks           =            427
    Max Points             =            255
    Max Functions          =             28
    Weights Tolerance      =       1.00E-15

  -Total Gradient:
     Atom            X                  Y                   Z
    ------   -----------------  -----------------  -----------------
       1       -0.000000000000     0.000000000000    -0.000051400357
       2        0.000000000000    -0.000000000000     0.000076297359

*** tstop() called on Joses-MacBook-Pro-2.local at Wed Jul 16 18:29:33 2025
Module time:
	user time   =       0.42 seconds =       0.01 minutes
	system time =       1.41 seconds =       0.02 minutes
	total time  =          1 seconds =       0.02 minutes
Total time:
	user time   =      42.64 seconds =       0.71 minutes
	system time =      46.05 seconds =       0.77 minutes
	total time  =          9 seconds =       0.15 minutes

    			-----------------------------------------

    			 OPTKING 3.0: for geometry optimizations

    			     By R.A. King, Bethel University

    			        with contributions from

    			    A.V. Copan, J. Cayton, A. Heide

    			-----------------------------------------

	                            ===> Fragment 1 <==

	 Z (Atomic Numbers)          Masses                          Geom
	       3.000000             7.016003          0.00000000  0.00000000  2.27561570
	       6.000000            12.000000          0.00000000  0.00000000 -1.33047730

	 - Coordinate -           - BOHR/RAD -       - ANG/DEG -
	 R(1,2)           =         3.606093           1.908262

	        --- Internal Coordinate Step in ANG or DEG, aJ/ANG or AJ/DEG ---
	-------------------------------------------------------------------------------
	           Coordinate      Previous         Force          Change          New
	           ----------      --------        ------          ------        ------
	               R(1,2)       1.90826        0.00053        0.00039       1.90865
	-------------------------------------------------------------------------------

	                                 ==> Convergence Check <==

	Measures of convergence in internal coordinates in au.

	Criteria marked as inactive (o), active & met (*), and active & unmet ( ).

	----------------------------------------------------------------------------------------------
	   Step    Total Energy     Delta E     Max Force     RMS Force      Max Disp      RMS Disp
	----------------------------------------------------------------------------------------------
	  Convergence Criteria     1.00e-06 *    3.00e-04 *             o    1.20e-03 *             o
	----------------------------------------------------------------------------------------------
	    10     -45.43390582   -6.60e-07 *    6.38e-05 *    6.38e-05 o    7.40e-04 *    7.40e-04 o  ~
	----------------------------------------------------------------------------------------------

Next Geometry in Ang
	Fragment 1 (Ang)

	   Li   0.0000000000   0.0000000000   1.2043998299
	    C   0.0000000000   0.0000000000  -0.7042541254

    Final optimized geometry and variables:
    Molecular point group: c2v
    Full point group: C_inf_v

    Geometry (in Angstrom), charge = 0, multiplicity = 4:

    LI           0.000000000000     0.000000000000     1.204203971077
    C            0.000000000000     0.000000000000    -0.704058266620

    Psi4 stopped on: Wednesday, 16 July 2025 06:29PM
    Psi4 wall time for execution: 0:00:09.15

*** Psi4 exiting successfully. Buy a developer a beer!
