                               Psi4 1.9.1 release

  ==> Input File <==

--------------------------------------------------------------------------
molecule {
0 4
N   0.00000        0.60000        0.00000
S   0.00000       -0.60000        0.00000
}

set {
basis              cc-pvdz
reference          uks
maxiter            500
geom_maxiter       500
DAMPING_PERCENTAGE 1
guess              SAP
}

optimize('b3lyp')
--------------------------------------------------------------------------

    Molecular point group: c2v
  Charge       = 0
  Multiplicity = 4
  Basis Set: CC-PVDZ
    Blend: CC-PVDZ
  Basis Set: (CC-PVDZ AUX)
    Blend: CC-PVDZ-JKFIT
  @DF-UKS Final Energy:  -452.50019502253724
    Total Energy =                       -452.5001950225372411
 Dipole X            :          0.0000000            0.0000000            0.0000000
 Dipole Y            :          0.0000000            0.0000000            0.0000000
 Dipole Z            :          0.1835217           -0.0120688            0.1714529
 Magnitude           :                                                    0.1714529
    Molecular point group: c2v
  Basis Set: CC-PVDZ
    Blend: CC-PVDZ
  Basis Set: (CC-PVDZ AUX)
    Blend: CC-PVDZ-JKFIT
  Basis Set: CC-PVDZ
    Blend: CC-PVDZ
  Basis Set: (CC-PVDZ AUX)
    Blend: CC-PVDZ-JKFIT
  @DF-UKS Final Energy:  -452.65913726762676
    Total Energy =                       -452.6591372676268179
  Basis Set: CC-PVDZ
    Blend: CC-PVDZ
  Basis Set: (CC-PVDZ AUX)
    Blend: CC-PVDZ-JKFIT
  Basis Set: CC-PVDZ
    Blend: CC-PVDZ
  @DF-UKS Final Energy:  -452.72424593644303
    Total Energy =                       -452.7242459364430260
  @DF-UKS Final Energy:  -452.74338469199881
    Total Energy =                       -452.7433846919988696
  @DF-UKS Final Energy:  -452.75257369962389
    Total Energy =                       -452.7525736996238948
  @DF-UKS Final Energy:  -452.75511340136183
    Total Energy =                       -452.7551134013618253
  @DF-UKS Final Energy:  -452.75593274533003
    Total Energy =                       -452.7559327453300853
  @DF-UKS Final Energy:  -452.75629719914281
    Total Energy =                       -452.7562971991428071
  @DF-UKS Final Energy:  -452.75638202803873
    Total Energy =                       -452.7563820280386722
  Basis Set: (CC-PVDZ AUX)
    Blend: CC-PVDZ-JKFIT
  Basis Set: CC-PVDZ
    Blend: CC-PVDZ
  Basis Set: (CC-PVDZ AUX)
    Blend: CC-PVDZ-JKFIT
  @DF-UKS Final Energy:  -452.75639325540124
    Total Energy =                       -452.7563932554012354
  Basis Set: CC-PVDZ
    Blend: CC-PVDZ
  Basis Set: (CC-PVDZ AUX)
    Blend: CC-PVDZ-JKFIT
  Charge       = 0
  Multiplicity = 4
  Basis Set: CC-PVDZ
    Blend: CC-PVDZ
  Basis Set: (CC-PVDZ AUX)
    Blend: CC-PVDZ-JKFIT

    Orbital Energies [Eh]
    ---------------------

    Alpha Occupied:

       1A1   -88.953168     2A1   -14.441578     3A1    -8.010086
       4A1    -5.979930     1B1    -5.967838     1B2    -5.967838
       5A1    -0.932936     6A1    -0.660628     7A1    -0.452005
       2B2    -0.405610     2B1    -0.405610     3B2    -0.243601
       3B1    -0.243601

    Alpha Virtual:

       8A1     0.026399     9A1     0.442597    10A1     0.445232
       4B2     0.460737     4B1     0.460737    11A1     0.553425
       1A2     0.553426     5B2     0.558650     5B1     0.558650
      12A1     0.611346     6B2     0.737352     6B1     0.737352
      13A1     0.965933    14A1     1.150921     2A2     1.689211
      15A1     1.689213     7B2     1.843680     7B1     1.843680
      16A1     2.324160

    Beta Occupied:

       1A1   -88.946492     2A1   -14.399548     3A1    -8.003429
       4A1    -5.970100     1B1    -5.957531     1B2    -5.957531
       5A1    -0.855287     6A1    -0.547776     2B2    -0.323935
       2B1    -0.323935

    Beta Virtual:

       7A1    -0.264287     3B2    -0.089843     3B1    -0.089843
       8A1     0.078826     9A1     0.469758     4B2     0.480603
       4B1     0.480603    10A1     0.484229    11A1     0.597033
       1A2     0.597033     5B2     0.622295     5B1     0.622295
      12A1     0.683078     6B2     0.799148     6B1     0.799148
      13A1     1.022064    14A1     1.208707     2A2     1.788595
      15A1     1.788600     7B2     1.941075     7B1     1.941075
      16A1     2.416744

    Final Occupation by Irrep:
             A1    A2    B1    B2
    DOCC [     6,    0,    2,    2 ]
    SOCC [     1,    0,    1,    1 ]
    NA   [     7,    0,    3,    3 ]
    NB   [     6,    0,    2,    2 ]

  @DF-UKS Final Energy:  -452.75639383412249

   => Energetics <=

    Nuclear Repulsion Energy =             36.6723717273549923
    One-Electron Energy =                -696.2356390959848795
    Two-Electron Energy =                 233.0002254984156025
    DFT Exchange-Correlation Energy =     -26.1933519639082135
    Empirical Dispersion Energy =           0.0000000000000000
    VV10 Nonlocal Energy =                  0.0000000000000000
    Total Energy =                       -452.7563938341224912

  UHF NO Occupations:
  HONO-2 :    7 A1 1.0000000
  HONO-1 :    3 B2 1.0000000
  HONO-0 :    3 B1 1.0000000
  LUNO+0 :    4 B2 0.0019426
  LUNO+1 :    4 B1 0.0019426
  LUNO+2 :    8 A1 0.0007986
  LUNO+3 :    9 A1 0.0003898

Computation Completed

Properties will be evaluated at   0.000000,   0.000000,   0.000000 [a0]

Properties computed using the SCF density matrix

 Multipole Moments:

 ------------------------------------------------------------------------------------
     Multipole            Electronic (a.u.)      Nuclear  (a.u.)        Total (a.u.)
 ------------------------------------------------------------------------------------

 L = 1.  Multiply by 2.5417464519 to convert [e a0] to [Debye]
 Dipole X            :          0.0000000            0.0000000            0.0000000
 Dipole Y            :          0.0000000            0.0000000            0.0000000
 Dipole Z            :         -0.1746668           -0.0162542           -0.1909210
 Magnitude           :                                                    0.1909210

 ------------------------------------------------------------------------------------

*** tstop() called on Joses-MacBook-Pro-2.local at Wed Jul 16 19:14:18 2025
Module time:
	user time   =       5.49 seconds =       0.09 minutes
	system time =       3.53 seconds =       0.06 minutes
	total time  =          0 seconds =       0.00 minutes
Total time:
	user time   =      81.16 seconds =       1.35 minutes
	system time =      62.47 seconds =       1.04 minutes
	total time  =         14 seconds =       0.23 minutes

*** tstart() called on Joses-MacBook-Pro-2.local
*** at Wed Jul 16 19:14:18 2025

         ------------------------------------------------------------
                                   SCF GRAD
                          Rob Parrish, Justin Turney,
                       Andy Simmonett, and Alex Sokolov
         ------------------------------------------------------------

  ==> Geometry <==

    Molecular point group: c2v
    Full point group: C_inf_v

    Geometry (in Angstrom), charge = 0, multiplicity = 4:

       Center              X                  Y                   Z               Mass
    ------------   -----------------  -----------------  -----------------  -----------------
         N            0.000000000000     0.000000000000     1.123900382584    14.003074004430
         S            0.000000000000     0.000000000000    -0.492244000868    31.972071174400

  Nuclear repulsion =   36.672371727354992

  ==> Basis Set <==

  Basis Set: CC-PVDZ
    Blend: CC-PVDZ
    Number of shells: 14
    Number of basis functions: 32
    Number of Cartesian functions: 34
    Spherical Harmonics?: true
    Max angular momentum: 2

  ==> DFJKGrad: Density-Fitted SCF Gradients <==

    Gradient:                    1
    J tasked:                  Yes
    K tasked:                  Yes
    wK tasked:                  No
    OpenMP threads:              1
    Integrals threads:           1
    Memory [MiB]:              375
    Schwarz Cutoff:          1E-12
    Fitting Condition:       1E-10

   => Auxiliary Basis Set <=

  Basis Set: (CC-PVDZ AUX)
    Blend: CC-PVDZ-JKFIT
    Number of shells: 60
    Number of basis functions: 182
    Number of Cartesian functions: 211
    Spherical Harmonics?: true
    Max angular momentum: 3

  ==> DFT Potential <==

   => LibXC <=

    Version 6.2.2
    S. Lehtola, C. Steigemann, M. J.T. Oliveira, and M. A.L. Marques.,  SoftwareX 7, 1â€“5 (2018) (10.1016/j.softx.2017.11.002)

   => Composite Functional: B3LYP <=

    B3LYP Hyb-GGA Exchange-Correlation Functional

    P. J. Stephens, F. J. Devlin, C. F. Chabalowski, and M. J. Frisch.,  J. Phys. Chem. 98, 11623 (1994) (10.1021/j100096a001)

    Deriv               =              1
    GGA                 =           TRUE
    Meta                =          FALSE

    Exchange Hybrid     =           TRUE
    MP2 Hybrid          =          FALSE

   => Exchange Functionals <=

    0.0800   Slater exchange
    0.7200         Becke 88

   => Exact (HF) Exchange <=

    0.2000               HF

   => Correlation Functionals <=

    0.1900   Vosko, Wilk & Nusair (VWN5_RPA)
    0.8100   Lee, Yang & Parr

   => LibXC Density Thresholds  <==

    XC_HYB_GGA_XC_B3LYP:  1.00E-15

   => Molecular Quadrature <=

    Radial Scheme          =       TREUTLER
    Pruning Scheme         =           NONE
    Nuclear Scheme         =       TREUTLER

    Blocking Scheme        =         OCTREE
    BS radius alpha        =              1
    Pruning alpha          =              1
    Radial Points          =             75
    Spherical Points       =            302
    Total Points           =          41593
    Total Blocks           =            372
    Max Points             =            255
    Max Functions          =             32
    Weights Tolerance      =       1.00E-15

  -Total Gradient:
     Atom            X                  Y                   Z
    ------   -----------------  -----------------  -----------------
       1        0.000000000000    -0.000000000000    -0.000095235483
       2       -0.000000000000    -0.000000000000     0.000074979618

*** tstop() called on Joses-MacBook-Pro-2.local at Wed Jul 16 19:14:19 2025
Module time:
	user time   =       1.58 seconds =       0.03 minutes
	system time =       1.87 seconds =       0.03 minutes
	total time  =          1 seconds =       0.02 minutes
Total time:
	user time   =      82.74 seconds =       1.38 minutes
	system time =      64.34 seconds =       1.07 minutes
	total time  =         15 seconds =       0.25 minutes

    			-----------------------------------------

    			 OPTKING 3.0: for geometry optimizations

    			     By R.A. King, Bethel University

    			        with contributions from

    			    A.V. Copan, J. Cayton, A. Heide

    			-----------------------------------------

	                            ===> Fragment 1 <==

	 Z (Atomic Numbers)          Masses                          Geom
	       7.000000            14.003074          0.00000000  0.00000000  2.12386392
	      16.000000            31.972071          0.00000000  0.00000000 -0.93020635

	 - Coordinate -           - BOHR/RAD -       - ANG/DEG -
	 R(1,2)           =         3.054070           1.616144

	        --- Internal Coordinate Step in ANG or DEG, aJ/ANG or AJ/DEG ---
	-------------------------------------------------------------------------------
	           Coordinate      Previous         Force          Change          New
	           ----------      --------        ------          ------        ------
	               R(1,2)       1.61614        0.00070        0.00013       1.61628
	-------------------------------------------------------------------------------

	                                 ==> Convergence Check <==

	Measures of convergence in internal coordinates in au.

	Criteria marked as inactive (o), active & met (*), and active & unmet ( ).

	----------------------------------------------------------------------------------------------
	   Step    Total Energy     Delta E     Max Force     RMS Force      Max Disp      RMS Disp
	----------------------------------------------------------------------------------------------
	  Convergence Criteria     1.00e-06 *    3.00e-04 *             o    1.20e-03 *             o
	----------------------------------------------------------------------------------------------
	    11    -452.75639383   -5.79e-07 *    8.51e-05 *    8.51e-05 o    2.51e-04 *    2.51e-04 o  ~
	----------------------------------------------------------------------------------------------

Next Geometry in Ang
	Fragment 1 (Ang)

	    N   0.0000000000   0.0000000000   1.1239667521
	    S   0.0000000000   0.0000000000  -0.4923103704

    Final optimized geometry and variables:
    Molecular point group: c2v
    Full point group: C_inf_v

    Geometry (in Angstrom), charge = 0, multiplicity = 4:

    N            0.000000000000     0.000000000000     1.123900382584
    S            0.000000000000     0.000000000000    -0.492244000868

    Psi4 stopped on: Wednesday, 16 July 2025 07:14PM
    Psi4 wall time for execution: 0:00:15.65

*** Psi4 exiting successfully. Buy a developer a beer!
