                               Psi4 1.9.1 release

  ==> Input File <==

--------------------------------------------------------------------------
molecule {
0 4
Na   0.00000        0.60000        0.00000
S   0.00000       -0.60000        0.00000
}

set {
basis              cc-pvdz
reference          uks
maxiter            500
geom_maxiter       500
DAMPING_PERCENTAGE 1
guess              SAP
}

optimize('b3lyp')
--------------------------------------------------------------------------

    Molecular point group: c2v
  Charge       = 0
  Multiplicity = 4
  Basis Set: CC-PVDZ
    Blend: CC-PVDZ
  Basis Set: (CC-PVDZ AUX)
    Blend: CC-PVDZ-JKFIT + DEF2-UNIVERSAL-JKFIT
  @DF-UKS Final Energy:  -559.38147834523454
    Total Energy =                       -559.3814783452345409
 Dipole X            :          0.0000000            0.0000000            0.0000000
 Dipole Y            :          0.0000000            0.0000000            0.0000000
 Dipole Z            :         -0.2919832           -0.6660660           -0.9580492
 Magnitude           :                                                    0.9580492
    Molecular point group: c2v
  Basis Set: CC-PVDZ
    Blend: CC-PVDZ
  Basis Set: (CC-PVDZ AUX)
    Blend: CC-PVDZ-JKFIT + DEF2-UNIVERSAL-JKFIT
  Basis Set: CC-PVDZ
    Blend: CC-PVDZ
  Basis Set: (CC-PVDZ AUX)
    Blend: CC-PVDZ-JKFIT + DEF2-UNIVERSAL-JKFIT
  @DF-UKS Final Energy:  -559.39526276454501
    Total Energy =                       -559.3952627645450093
  Basis Set: CC-PVDZ
    Blend: CC-PVDZ
  Basis Set: (CC-PVDZ AUX)
    Blend: CC-PVDZ-JKFIT + DEF2-UNIVERSAL-JKFIT
  Basis Set: CC-PVDZ
    Blend: CC-PVDZ
  @DF-UKS Final Energy:  -559.42184988356098
    Total Energy =                       -559.4218498835608671
  @DF-UKS Final Energy:  -559.51806506431535
    Total Energy =                       -559.5180650643153513
  @DF-UKS Final Energy:  -559.93509322987939
    Total Energy =                       -559.9350932298793850
  @DF-UKS Final Energy:  -560.14380259867858
    Total Energy =                       -560.1438025986785760
  @DF-UKS Final Energy:  -560.26791244414130
    Total Energy =                       -560.2679124441413023
  @DF-UKS Final Energy:  -560.33036232897803
    Total Energy =                       -560.3303623289780262
  @DF-UKS Final Energy:  -560.36400255806382
    Total Energy =                       -560.3640025580638167
  @DF-UKS Final Energy:  -560.38298256232088
    Total Energy =                       -560.3829825623208762
  @DF-UKS Final Energy:  -560.39455175169667
    Total Energy =                       -560.3945517516967811
  @DF-UKS Final Energy:  -560.40198031180910
    Total Energy =                       -560.4019803118090977
  @DF-UKS Final Energy:  -560.40693732254056
    Total Energy =                       -560.4069373225405570
  @DF-UKS Final Energy:  -560.41031042734721
    Total Energy =                       -560.4103104273472127
  @DF-UKS Final Energy:  -560.41036729038956
    Total Energy =                       -560.4103672903895585
  @DF-UKS Final Energy:  -560.41278479469929
    Total Energy =                       -560.4127847946994052
  @DF-UKS Final Energy:  -560.41280607871340
    Total Energy =                       -560.4128060787136292
  @DF-UKS Final Energy:  -560.41419845500354
    Total Energy =                       -560.4141984550035431
  @DF-UKS Final Energy:  -560.41420603675022
    Total Energy =                       -560.4142060367502154
  @DF-UKS Final Energy:  -560.41421356003070
    Total Energy =                       -560.4142135600307029
  @DF-UKS Final Energy:  -560.41495681470019
    Total Energy =                       -560.4149568147001901
  @DF-UKS Final Energy:  -560.41495940086907
    Total Energy =                       -560.4149594008690656
  @DF-UKS Final Energy:  -560.41496197329957
    Total Energy =                       -560.4149619732995689
  @DF-UKS Final Energy:  -560.41496453198727
    Total Energy =                       -560.4149645319872661
  @DF-UKS Final Energy:  -560.41496707708745
    Total Energy =                       -560.4149670770874536
  @DF-UKS Final Energy:  -560.41537142631148
    Total Energy =                       -560.4153714263113670
  @DF-UKS Final Energy:  -560.41537226128435
    Total Energy =                       -560.4153722612843467
  @DF-UKS Final Energy:  -560.41537309373427
    Total Energy =                       -560.4153730937341606
  @DF-UKS Final Energy:  -560.41537392351881
    Total Energy =                       -560.4153739235188141
  @DF-UKS Final Energy:  -560.41537475062853
    Total Energy =                       -560.4153747506284162
  @DF-UKS Final Energy:  -560.41537557495303
    Total Energy =                       -560.4153755749530319
  @DF-UKS Final Energy:  -560.41537639665626
    Total Energy =                       -560.4153763966562565
  @DF-UKS Final Energy:  -560.41537721561144
    Total Energy =                       -560.4153772156114428
  @DF-UKS Final Energy:  -560.41537803197480
    Total Energy =                       -560.4153780319747966
  Basis Set: (CC-PVDZ AUX)
    Blend: CC-PVDZ-JKFIT + DEF2-UNIVERSAL-JKFIT
  Basis Set: CC-PVDZ
    Blend: CC-PVDZ
  Basis Set: (CC-PVDZ AUX)
    Blend: CC-PVDZ-JKFIT + DEF2-UNIVERSAL-JKFIT
  @DF-UKS Final Energy:  -560.41537884568856
    Total Energy =                       -560.4153788456885650
  Basis Set: CC-PVDZ
    Blend: CC-PVDZ
  Basis Set: (CC-PVDZ AUX)
    Blend: CC-PVDZ-JKFIT + DEF2-UNIVERSAL-JKFIT
  Charge       = 0
  Multiplicity = 4
  Basis Set: CC-PVDZ
    Blend: CC-PVDZ
  Basis Set: (CC-PVDZ AUX)
    Blend: CC-PVDZ-JKFIT + DEF2-UNIVERSAL-JKFIT

    Orbital Energies [Eh]
    ---------------------

    Alpha Occupied:

       1A1   -88.932078     2A1   -38.480261     3A1    -7.990319
       4A1    -5.959551     1B1    -5.959539     1B2    -5.939777
       5A1    -2.224989     6A1    -1.155851     2B1    -1.155811
       2B2    -1.155808     7A1    -0.721504     8A1    -0.330552
       3B1    -0.330238     3B2    -0.281731     9A1    -0.128818

    Alpha Virtual:

       4B1    -0.021378     4B2    -0.020858    10A1    -0.019823
      11A1     0.053627    12A1     0.075076     5B1     0.075652
       5B2     0.076154    13A1     0.156047     6B1     0.158154
       6B2     0.158581     1A2     0.158658    14A1     0.158661
      15A1     0.455065     7B1     0.456596     7B2     0.487448
      16A1     0.505627     8B1     0.521042    17A1     0.523061
       2A2     0.559446     8B2     0.559638    18A1     0.574104

    Beta Occupied:

       1A1   -88.921275     2A1   -38.478794     3A1    -7.979290
       4A1    -5.938174     1B1    -5.938155     1B2    -5.933246
       5A1    -2.222043     6A1    -1.153932     2B1    -1.153892
       2B2    -1.153889     7A1    -0.628637     3B2    -0.254936

    Beta Virtual:

       8A1    -0.174362     3B1    -0.172896     9A1    -0.064813
       4B2    -0.000142     4B1     0.002512    10A1     0.002934
      11A1     0.066860    12A1     0.093065     5B2     0.093089
       5B1     0.094052    13A1     0.185754    14A1     0.187537
       1A2     0.187555     6B2     0.188234     6B1     0.188272
      15A1     0.497523     7B2     0.500287     7B1     0.506333
      16A1     0.548255     2A2     0.616702     8B2     0.616799
      17A1     0.620092     8B1     0.628945    18A1     0.629810

    Final Occupation by Irrep:
             A1    A2    B1    B2
    DOCC [     7,    0,    2,    3 ]
    SOCC [     2,    0,    1,    0 ]
    NA   [     9,    0,    3,    3 ]
    NB   [     7,    0,    2,    3 ]

  @DF-UKS Final Energy:  -560.41559645049165

   => Energetics <=

    Nuclear Repulsion Energy =             18.1649074245958353
    One-Electron Energy =                -813.6512926289051393
    Two-Electron Energy =                 267.3556786192202708
    DFT Exchange-Correlation Energy =     -32.2848898654026826
    Empirical Dispersion Energy =           0.0000000000000000
    VV10 Nonlocal Energy =                  0.0000000000000000
    Total Energy =                       -560.4155964504916483

  UHF NO Occupations:
  HONO-2 :    8 A1 1.0000000
  HONO-1 :    9 A1 1.0000000
  HONO-0 :    3 B1 1.0000000
  LUNO+0 :   10 A1 0.0010314
  LUNO+1 :    4 B2 0.0001100
  LUNO+2 :   11 A1 0.0000012
  LUNO+3 :    4 B1 0.0000012

Computation Completed

Properties will be evaluated at   0.000000,   0.000000,   0.000000 [a0]

Properties computed using the SCF density matrix

 Multipole Moments:

 ------------------------------------------------------------------------------------
     Multipole            Electronic (a.u.)      Nuclear  (a.u.)        Total (a.u.)
 ------------------------------------------------------------------------------------

 L = 1.  Multiply by 2.5417464519 to convert [e a0] to [Debye]
 Dipole X            :          0.0000000            0.0000000            0.0000000
 Dipole Y            :          0.0000000            0.0000000            0.0000000
 Dipole Z            :          2.8072293           -2.8458801           -0.0386507
 Magnitude           :                                                    0.0386507

 ------------------------------------------------------------------------------------

*** tstop() called on Joses-MacBook-Pro-2.local at Wed Jul 16 19:49:19 2025
Module time:
	user time   =       4.35 seconds =       0.07 minutes
	system time =       3.72 seconds =       0.06 minutes
	total time  =          1 seconds =       0.02 minutes
Total time:
	user time   =     313.15 seconds =       5.22 minutes
	system time =     209.68 seconds =       3.49 minutes
	total time  =         51 seconds =       0.85 minutes

*** tstart() called on Joses-MacBook-Pro-2.local
*** at Wed Jul 16 19:49:19 2025

         ------------------------------------------------------------
                                   SCF GRAD
                          Rob Parrish, Justin Turney,
                       Andy Simmonett, and Alex Sokolov
         ------------------------------------------------------------

  ==> Geometry <==

    Molecular point group: c2v
    Full point group: C_inf_v

    Geometry (in Angstrom), charge = 0, multiplicity = 4:

       Center              X                  Y                   Z               Mass
    ------------   -----------------  -----------------  -----------------  -----------------
         NA           0.000000000000     0.000000000000     2.982566363454    22.989769282000
         S            0.000000000000     0.000000000000    -2.144637805603    31.972071174400

  Nuclear repulsion =   18.164907424595835

  ==> Basis Set <==

  Basis Set: CC-PVDZ
    Blend: CC-PVDZ
    Number of shells: 16
    Number of basis functions: 36
    Number of Cartesian functions: 38
    Spherical Harmonics?: true
    Max angular momentum: 2

  ==> DFJKGrad: Density-Fitted SCF Gradients <==

    Gradient:                    1
    J tasked:                  Yes
    K tasked:                  Yes
    wK tasked:                  No
    OpenMP threads:              1
    Integrals threads:           1
    Memory [MiB]:              375
    Schwarz Cutoff:          1E-12
    Fitting Condition:       1E-10

   => Auxiliary Basis Set <=

  Basis Set: (CC-PVDZ AUX)
    Blend: CC-PVDZ-JKFIT + DEF2-UNIVERSAL-JKFIT
    Number of shells: 70
    Number of basis functions: 224
    Number of Cartesian functions: 267
    Spherical Harmonics?: true
    Max angular momentum: 4

  ==> DFT Potential <==

   => LibXC <=

    Version 6.2.2
    S. Lehtola, C. Steigemann, M. J.T. Oliveira, and M. A.L. Marques.,  SoftwareX 7, 1â€“5 (2018) (10.1016/j.softx.2017.11.002)

   => Composite Functional: B3LYP <=

    B3LYP Hyb-GGA Exchange-Correlation Functional

    P. J. Stephens, F. J. Devlin, C. F. Chabalowski, and M. J. Frisch.,  J. Phys. Chem. 98, 11623 (1994) (10.1021/j100096a001)

    Deriv               =              1
    GGA                 =           TRUE
    Meta                =          FALSE

    Exchange Hybrid     =           TRUE
    MP2 Hybrid          =          FALSE

   => Exchange Functionals <=

    0.0800   Slater exchange
    0.7200         Becke 88

   => Exact (HF) Exchange <=

    0.2000               HF

   => Correlation Functionals <=

    0.1900   Vosko, Wilk & Nusair (VWN5_RPA)
    0.8100   Lee, Yang & Parr

   => LibXC Density Thresholds  <==

    XC_HYB_GGA_XC_B3LYP:  1.00E-15

   => Molecular Quadrature <=

    Radial Scheme          =       TREUTLER
    Pruning Scheme         =           NONE
    Nuclear Scheme         =       TREUTLER

    Blocking Scheme        =         OCTREE
    BS radius alpha        =              1
    Pruning alpha          =              1
    Radial Points          =             75
    Spherical Points       =            302
    Total Points           =          43927
    Total Blocks           =            462
    Max Points             =            255
    Max Functions          =             36
    Weights Tolerance      =       1.00E-15

  -Total Gradient:
     Atom            X                  Y                   Z
    ------   -----------------  -----------------  -----------------
       1        0.000000000000    -0.000000000000    -0.000243932571
       2       -0.000000000000    -0.000000000000     0.000247194698

*** tstop() called on Joses-MacBook-Pro-2.local at Wed Jul 16 19:49:19 2025
Module time:
	user time   =       1.38 seconds =       0.02 minutes
	system time =       2.08 seconds =       0.03 minutes
	total time  =          0 seconds =       0.00 minutes
Total time:
	user time   =     314.53 seconds =       5.24 minutes
	system time =     211.76 seconds =       3.53 minutes
	total time  =         51 seconds =       0.85 minutes

    			-----------------------------------------

    			 OPTKING 3.0: for geometry optimizations

    			     By R.A. King, Bethel University

    			        with contributions from

    			    A.V. Copan, J. Cayton, A. Heide

    			-----------------------------------------

	                            ===> Fragment 1 <==

	 Z (Atomic Numbers)          Masses                          Geom
	      11.000000            22.989769          0.00000000  0.00000000  5.63623358
	      16.000000            31.972071          0.00000000  0.00000000 -4.05277809

	 - Coordinate -           - BOHR/RAD -       - ANG/DEG -
	 R(1,2)           =         9.689012           5.127204

	        --- Internal Coordinate Step in ANG or DEG, aJ/ANG or AJ/DEG ---
	-------------------------------------------------------------------------------
	           Coordinate      Previous         Force          Change          New
	           ----------      --------        ------          ------        ------
	               R(1,2)       5.12720        0.00202        0.00055       5.12776
	-------------------------------------------------------------------------------

	                                 ==> Convergence Check <==

	Measures of convergence in internal coordinates in au.

	Criteria marked as inactive (o), active & met (*), and active & unmet ( ).

	----------------------------------------------------------------------------------------------
	   Step    Total Energy     Delta E     Max Force     RMS Force      Max Disp      RMS Disp
	----------------------------------------------------------------------------------------------
	  Convergence Criteria     1.00e-06 *    3.00e-04 *             o    1.20e-03 *             o
	----------------------------------------------------------------------------------------------
	    36    -560.41559645   -2.18e-04      2.46e-04 *    2.46e-04 o    1.05e-03 *    1.05e-03 o  ~
	----------------------------------------------------------------------------------------------

Next Geometry in Ang
	Fragment 1 (Ang)

	   Na   0.0000000000   0.0000000000   2.9828436691
	    S   0.0000000000   0.0000000000  -2.1449151112

    Final optimized geometry and variables:
    Molecular point group: c2v
    Full point group: C_inf_v

    Geometry (in Angstrom), charge = 0, multiplicity = 4:

    NA           0.000000000000     0.000000000000     2.982566363454
    S            0.000000000000     0.000000000000    -2.144637805603

    Psi4 stopped on: Wednesday, 16 July 2025 07:49PM
    Psi4 wall time for execution: 0:00:51.63

*** Psi4 exiting successfully. Buy a developer a beer!
