                               Psi4 1.9.1 release

  ==> Input File <==

--------------------------------------------------------------------------
molecule {
0 4
F   0.00000        0.60000        0.00000
S   0.00000       -0.60000        0.00000
}

set {
basis              cc-pvdz
reference          uks
maxiter            500
geom_maxiter       500
DAMPING_PERCENTAGE 1
guess              SAP
}

optimize('b3lyp')
--------------------------------------------------------------------------

    Molecular point group: c2v
  Charge       = 0
  Multiplicity = 4
  Basis Set: CC-PVDZ
    Blend: CC-PVDZ
  Basis Set: (CC-PVDZ AUX)
    Blend: CC-PVDZ-JKFIT
  @DF-UKS Final Energy:  -497.53579100726847
    Total Energy =                       -497.5357910072684717
 Dipole X            :          0.0000000            0.0000000            0.0000000
 Dipole Y            :          0.0000000            0.0000000            0.0000000
 Dipole Z            :          1.2136062           -0.7218847            0.4917216
 Magnitude           :                                                    0.4917216
    Molecular point group: c2v
  Basis Set: CC-PVDZ
    Blend: CC-PVDZ
  Basis Set: (CC-PVDZ AUX)
    Blend: CC-PVDZ-JKFIT
  Basis Set: CC-PVDZ
    Blend: CC-PVDZ
  Basis Set: (CC-PVDZ AUX)
    Blend: CC-PVDZ-JKFIT
  @DF-UKS Final Energy:  -497.70137391350477
    Total Energy =                       -497.7013739135047672
  Basis Set: CC-PVDZ
    Blend: CC-PVDZ
  Basis Set: (CC-PVDZ AUX)
    Blend: CC-PVDZ-JKFIT
  Basis Set: CC-PVDZ
    Blend: CC-PVDZ
  @DF-UKS Final Energy:  -497.80247882296612
    Total Energy =                       -497.8024788229661226
  @DF-UKS Final Energy:  -497.85104948035644
    Total Energy =                       -497.8510494803564370
  @DF-UKS Final Energy:  -497.88334501418126
    Total Energy =                       -497.8833450141812591
  @DF-UKS Final Energy:  -497.89951390321744
    Total Energy =                       -497.8995139032174393
  @DF-UKS Final Energy:  -497.90496969536940
    Total Energy =                       -497.9049696953694024
  @DF-UKS Final Energy:  -497.90644851195594
    Total Energy =                       -497.9064485119559436
  @DF-UKS Final Energy:  -497.90669288799683
    Total Energy =                       -497.9066928879968259
  @DF-UKS Final Energy:  -497.90674396437589
    Total Energy =                       -497.9067439643758917
  Basis Set: (CC-PVDZ AUX)
    Blend: CC-PVDZ-JKFIT
  Basis Set: CC-PVDZ
    Blend: CC-PVDZ
  Basis Set: (CC-PVDZ AUX)
    Blend: CC-PVDZ-JKFIT
  @DF-UKS Final Energy:  -497.90674862520081
    Total Energy =                       -497.9067486252008052
  Basis Set: CC-PVDZ
    Blend: CC-PVDZ
  Basis Set: (CC-PVDZ AUX)
    Blend: CC-PVDZ-JKFIT
  Charge       = 0
  Multiplicity = 4
  Basis Set: CC-PVDZ
    Blend: CC-PVDZ
  Basis Set: (CC-PVDZ AUX)
    Blend: CC-PVDZ-JKFIT

    Orbital Energies [Eh]
    ---------------------

    Alpha Occupied:

       1A1   -88.985033     2A1   -24.669257     3A1    -8.040764
       1B1    -6.005957     1B2    -6.005957     4A1    -6.000631
       5A1    -1.130443     6A1    -0.765888     7A1    -0.457991
       2B2    -0.404847     2B1    -0.404847     3B2    -0.335279
       3B1    -0.335279     8A1    -0.238672

    Alpha Virtual:

       9A1     0.418253    10A1     0.425407     4B1     0.434128
       4B2     0.434128     1A2     0.493885    11A1     0.493885
       5B2     0.506945     5B1     0.506945    12A1     0.644664
       6B2     1.207217     6B1     1.207217    13A1     1.262497
      14A1     1.948646     7B2     3.583391     7B1     3.583391
       2A2     3.593699    15A1     3.593752    16A1     3.644717

    Beta Occupied:

       1A1   -88.970775     2A1   -24.645521     3A1    -8.026208
       1B1    -5.983520     1B2    -5.983520     4A1    -5.981535
       5A1    -1.071627     6A1    -0.657288     7A1    -0.374525
       2B1    -0.342745     2B2    -0.342745

    Beta Virtual:

       3B2    -0.187791     3B1    -0.187791     8A1    -0.086449
       9A1     0.458302    10A1     0.473375     4B1     0.483905
       4B2     0.483905     5B2     0.588818     5B1     0.588818
      11A1     0.595570     1A2     0.595570    12A1     0.713331
       6B2     1.235304     6B1     1.235304    13A1     1.302747
      14A1     1.987755     2A2     3.629769    15A1     3.629822
       7B2     3.635400     7B1     3.635400    16A1     3.701349

    Final Occupation by Irrep:
             A1    A2    B1    B2
    DOCC [     7,    0,    2,    2 ]
    SOCC [     1,    0,    1,    1 ]
    NA   [     8,    0,    3,    3 ]
    NB   [     7,    0,    2,    2 ]

  @DF-UKS Final Energy:  -497.90674912390949

   => Energetics <=

    Nuclear Repulsion Energy =             38.9218605518143548
    One-Electron Energy =                -766.7580977975042060
    Two-Electron Energy =                 259.0192255151383165
    DFT Exchange-Correlation Energy =     -29.0897373933579360
    Empirical Dispersion Energy =           0.0000000000000000
    VV10 Nonlocal Energy =                  0.0000000000000000
    Total Energy =                       -497.9067491239094920

  UHF NO Occupations:
  HONO-2 :    3 B1 1.0000000
  HONO-1 :    3 B2 1.0000000
  HONO-0 :    8 A1 1.0000000
  LUNO+0 :    9 A1 0.0008230
  LUNO+1 :    4 B1 0.0004678
  LUNO+2 :    4 B2 0.0004678
  LUNO+3 :   10 A1 0.0000898

Computation Completed

Properties will be evaluated at   0.000000,   0.000000,   0.000000 [a0]

Properties computed using the SCF density matrix

 Multipole Moments:

 ------------------------------------------------------------------------------------
     Multipole            Electronic (a.u.)      Nuclear  (a.u.)        Total (a.u.)
 ------------------------------------------------------------------------------------

 L = 1.  Multiply by 2.5417464519 to convert [e a0] to [Debye]
 Dipole X            :          0.0000000            0.0000000            0.0000000
 Dipole Y            :          0.0000000            0.0000000            0.0000000
 Dipole Z            :          0.3109713           -1.1777595           -0.8667882
 Magnitude           :                                                    0.8667882

 ------------------------------------------------------------------------------------

*** tstop() called on Joses-MacBook-Pro-2.local at Wed Jul 16 19:30:09 2025
Module time:
	user time   =       3.97 seconds =       0.07 minutes
	system time =       3.28 seconds =       0.05 minutes
	total time  =          0 seconds =       0.00 minutes
Total time:
	user time   =      59.47 seconds =       0.99 minutes
	system time =      66.45 seconds =       1.11 minutes
	total time  =         12 seconds =       0.20 minutes

*** tstart() called on Joses-MacBook-Pro-2.local
*** at Wed Jul 16 19:30:09 2025

         ------------------------------------------------------------
                                   SCF GRAD
                          Rob Parrish, Justin Turney,
                       Andy Simmonett, and Alex Sokolov
         ------------------------------------------------------------

  ==> Geometry <==

    Molecular point group: c2v
    Full point group: C_inf_v

    Geometry (in Angstrom), charge = 0, multiplicity = 4:

       Center              X                  Y                   Z               Mass
    ------------   -----------------  -----------------  -----------------  -----------------
         F            0.000000000000     0.000000000000     1.228067189587    18.998403162730
         S            0.000000000000     0.000000000000    -0.729740511693    31.972071174400

  Nuclear repulsion =   38.921860551814355

  ==> Basis Set <==

  Basis Set: CC-PVDZ
    Blend: CC-PVDZ
    Number of shells: 14
    Number of basis functions: 32
    Number of Cartesian functions: 34
    Spherical Harmonics?: true
    Max angular momentum: 2

  ==> DFJKGrad: Density-Fitted SCF Gradients <==

    Gradient:                    1
    J tasked:                  Yes
    K tasked:                  Yes
    wK tasked:                  No
    OpenMP threads:              1
    Integrals threads:           1
    Memory [MiB]:              375
    Schwarz Cutoff:          1E-12
    Fitting Condition:       1E-10

   => Auxiliary Basis Set <=

  Basis Set: (CC-PVDZ AUX)
    Blend: CC-PVDZ-JKFIT
    Number of shells: 60
    Number of basis functions: 182
    Number of Cartesian functions: 211
    Spherical Harmonics?: true
    Max angular momentum: 3

  ==> DFT Potential <==

   => LibXC <=

    Version 6.2.2
    S. Lehtola, C. Steigemann, M. J.T. Oliveira, and M. A.L. Marques.,  SoftwareX 7, 1â€“5 (2018) (10.1016/j.softx.2017.11.002)

   => Composite Functional: B3LYP <=

    B3LYP Hyb-GGA Exchange-Correlation Functional

    P. J. Stephens, F. J. Devlin, C. F. Chabalowski, and M. J. Frisch.,  J. Phys. Chem. 98, 11623 (1994) (10.1021/j100096a001)

    Deriv               =              1
    GGA                 =           TRUE
    Meta                =          FALSE

    Exchange Hybrid     =           TRUE
    MP2 Hybrid          =          FALSE

   => Exchange Functionals <=

    0.0800   Slater exchange
    0.7200         Becke 88

   => Exact (HF) Exchange <=

    0.2000               HF

   => Correlation Functionals <=

    0.1900   Vosko, Wilk & Nusair (VWN5_RPA)
    0.8100   Lee, Yang & Parr

   => LibXC Density Thresholds  <==

    XC_HYB_GGA_XC_B3LYP:  1.00E-15

   => Molecular Quadrature <=

    Radial Scheme          =       TREUTLER
    Pruning Scheme         =           NONE
    Nuclear Scheme         =       TREUTLER

    Blocking Scheme        =         OCTREE
    BS radius alpha        =              1
    Pruning alpha          =              1
    Radial Points          =             75
    Spherical Points       =            302
    Total Points           =          42196
    Total Blocks           =            378
    Max Points             =            256
    Max Functions          =             32
    Weights Tolerance      =       1.00E-15

  -Total Gradient:
     Atom            X                  Y                   Z
    ------   -----------------  -----------------  -----------------
       1        0.000000000000     0.000000000000    -0.000068018460
       2        0.000000000000    -0.000000000000     0.000042408755

*** tstop() called on Joses-MacBook-Pro-2.local at Wed Jul 16 19:30:10 2025
Module time:
	user time   =       1.55 seconds =       0.03 minutes
	system time =       1.00 seconds =       0.02 minutes
	total time  =          1 seconds =       0.02 minutes
Total time:
	user time   =      61.03 seconds =       1.02 minutes
	system time =      67.45 seconds =       1.12 minutes
	total time  =         13 seconds =       0.22 minutes

    			-----------------------------------------

    			 OPTKING 3.0: for geometry optimizations

    			     By R.A. King, Bethel University

    			        with contributions from

    			    A.V. Copan, J. Cayton, A. Heide

    			-----------------------------------------

	                            ===> Fragment 1 <==

	 Z (Atomic Numbers)          Masses                          Geom
	       9.000000            18.998403          0.00000000  0.00000000  2.32071065
	      16.000000            31.972071          0.00000000  0.00000000 -1.37900971

	 - Coordinate -           - BOHR/RAD -       - ANG/DEG -
	 R(1,2)           =         3.699720           1.957808

	        --- Internal Coordinate Step in ANG or DEG, aJ/ANG or AJ/DEG ---
	-------------------------------------------------------------------------------
	           Coordinate      Previous         Force          Change          New
	           ----------      --------        ------          ------        ------
	               R(1,2)       1.95781        0.00045        0.00025       1.95806
	-------------------------------------------------------------------------------

	                                 ==> Convergence Check <==

	Measures of convergence in internal coordinates in au.

	Criteria marked as inactive (o), active & met (*), and active & unmet ( ).

	----------------------------------------------------------------------------------------------
	   Step    Total Energy     Delta E     Max Force     RMS Force      Max Disp      RMS Disp
	----------------------------------------------------------------------------------------------
	  Convergence Criteria     1.00e-06 *    3.00e-04 *             o    1.20e-03 *             o
	----------------------------------------------------------------------------------------------
	    12    -497.90674912   -4.99e-07 *    5.52e-05 *    5.52e-05 o    4.74e-04 *    4.74e-04 o  ~
	----------------------------------------------------------------------------------------------

Next Geometry in Ang
	Fragment 1 (Ang)

	    F   0.0000000000   0.0000000000   1.2281926738
	    S   0.0000000000   0.0000000000  -0.7298659959

    Final optimized geometry and variables:
    Molecular point group: c2v
    Full point group: C_inf_v

    Geometry (in Angstrom), charge = 0, multiplicity = 4:

    F            0.000000000000     0.000000000000     1.228067189587
    S            0.000000000000     0.000000000000    -0.729740511693

    Psi4 stopped on: Wednesday, 16 July 2025 07:30PM
    Psi4 wall time for execution: 0:00:12.92

*** Psi4 exiting successfully. Buy a developer a beer!
