                               Psi4 1.9.1 release

  ==> Input File <==

--------------------------------------------------------------------------
molecule {
0 4
B   0.00000        0.60000        0.00000
Si   0.00000       -0.60000        0.00000
}

set {
basis              cc-pvdz
reference          uks
maxiter            500
geom_maxiter       500
DAMPING_PERCENTAGE 1
guess              SAP
}

optimize('b3lyp')
--------------------------------------------------------------------------

    Molecular point group: c2v
  Charge       = 0
  Multiplicity = 4
  Basis Set: CC-PVDZ
    Blend: CC-PVDZ
  Basis Set: (CC-PVDZ AUX)
    Blend: CC-PVDZ-JKFIT
  @DF-UKS Final Energy:  -313.63887058209514
    Total Energy =                       -313.6388705820951373
 Dipole X            :          0.0000000            0.0000000            0.0000000
 Dipole Y            :          0.0000000            0.0000000            0.0000000
 Dipole Z            :         -0.0788441           -0.8286114           -0.9074555
 Magnitude           :                                                    0.9074555
    Molecular point group: c2v
  Basis Set: CC-PVDZ
    Blend: CC-PVDZ
  Basis Set: (CC-PVDZ AUX)
    Blend: CC-PVDZ-JKFIT
  Basis Set: CC-PVDZ
    Blend: CC-PVDZ
  Basis Set: (CC-PVDZ AUX)
    Blend: CC-PVDZ-JKFIT
  @DF-UKS Final Energy:  -313.87049086346110
    Total Energy =                       -313.8704908634611002
  Basis Set: CC-PVDZ
    Blend: CC-PVDZ
  Basis Set: (CC-PVDZ AUX)
    Blend: CC-PVDZ-JKFIT
  Basis Set: CC-PVDZ
    Blend: CC-PVDZ
  @DF-UKS Final Energy:  -314.00418568302757
    Total Energy =                       -314.0041856830275719
  @DF-UKS Final Energy:  -314.11866475708121
    Total Energy =                       -314.1186647570812056
  @DF-UKS Final Energy:  -314.16421248205216
    Total Energy =                       -314.1642124820521644
  @DF-UKS Final Energy:  -314.16667670232005
    Total Energy =                       -314.1666767023200464
  @DF-UKS Final Energy:  -314.16740753389121
    Total Energy =                       -314.1674075338912075
  Basis Set: (CC-PVDZ AUX)
    Blend: CC-PVDZ-JKFIT
  Basis Set: CC-PVDZ
    Blend: CC-PVDZ
  Basis Set: (CC-PVDZ AUX)
    Blend: CC-PVDZ-JKFIT
  @DF-UKS Final Energy:  -314.16743592281603
    Total Energy =                       -314.1674359228160256
  Basis Set: CC-PVDZ
    Blend: CC-PVDZ
  Basis Set: (CC-PVDZ AUX)
    Blend: CC-PVDZ-JKFIT
  Charge       = 0
  Multiplicity = 4
  Basis Set: CC-PVDZ
    Blend: CC-PVDZ
  Basis Set: (CC-PVDZ AUX)
    Blend: CC-PVDZ-JKFIT

    Orbital Energies [Eh]
    ---------------------

    Alpha Occupied:

       1A1   -66.163778     2A1    -6.824853     3A1    -5.308339
       1B1    -3.668682     1B2    -3.668682     4A1    -3.663861
       5A1    -0.548438     6A1    -0.354725     7A1    -0.235415
       2B2    -0.235250     2B1    -0.235250

    Alpha Virtual:

       3B2    -0.062170     3B1    -0.062170     8A1     0.073458
       9A1     0.221357    10A1     0.261000     4B2     0.270326
       4B1     0.270326    11A1     0.327798     5B2     0.328219
       5B1     0.328219    12A1     0.329193     1A2     0.329194
       6B2     0.388068     6B1     0.388068    13A1     0.554805
      14A1     0.703911     2A2     0.703911    15A1     0.710841
       7B2     0.890022     7B1     0.890022    16A1     1.122188

    Beta Occupied:

       1A1   -66.159262     2A1    -6.809371     3A1    -5.303226
       1B1    -3.660673     1B2    -3.660673     4A1    -3.657577
       5A1    -0.480271     6A1    -0.291485

    Beta Virtual:

       2B2    -0.131591     2B1    -0.131591     7A1    -0.107250
       3B2    -0.009200     3B1    -0.009200     8A1     0.102684
       9A1     0.250194    10A1     0.297299     4B2     0.300347
       4B1     0.300347     5B2     0.359631     5B1     0.359631
      11A1     0.369591     1A2     0.381778    12A1     0.381778
       6B2     0.432691     6B1     0.432691    13A1     0.584879
      14A1     0.753965    15A1     0.756065     2A2     0.756065
       7B2     0.949862     7B1     0.949862    16A1     1.174959

    Final Occupation by Irrep:
             A1    A2    B1    B2
    DOCC [     6,    0,    1,    1 ]
    SOCC [     1,    0,    1,    1 ]
    NA   [     7,    0,    2,    2 ]
    NB   [     6,    0,    1,    1 ]

  @DF-UKS Final Energy:  -314.16743712635838

   => Energetics <=

    Nuclear Repulsion Energy =             19.1774988383296012
    One-Electron Energy =                -471.4764413084238868
    Two-Electron Energy =                 158.1348390330532823
    DFT Exchange-Correlation Energy =     -20.0033336893173512
    Empirical Dispersion Energy =           0.0000000000000000
    VV10 Nonlocal Energy =                  0.0000000000000000
    Total Energy =                       -314.1674371263583794

  UHF NO Occupations:
  HONO-2 :    2 B2 1.0000000
  HONO-1 :    7 A1 1.0000000
  HONO-0 :    2 B1 1.0000000
  LUNO+0 :    8 A1 0.0006722
  LUNO+1 :    9 A1 0.0001632
  LUNO+2 :   10 A1 0.0000001
  LUNO+3 :    3 B1 0.0000000

Computation Completed

Properties will be evaluated at   0.000000,   0.000000,   0.000000 [a0]

Properties computed using the SCF density matrix

 Multipole Moments:

 ------------------------------------------------------------------------------------
     Multipole            Electronic (a.u.)      Nuclear  (a.u.)        Total (a.u.)
 ------------------------------------------------------------------------------------

 L = 1.  Multiply by 2.5417464519 to convert [e a0] to [Debye]
 Dipole X            :          0.0000000            0.0000000            0.0000000
 Dipole Y            :          0.0000000            0.0000000            0.0000000
 Dipole Z            :          1.0974338           -1.3337574           -0.2363236
 Magnitude           :                                                    0.2363236

 ------------------------------------------------------------------------------------

*** tstop() called on Joses-MacBook-Pro-2.local at Wed Jul 16 18:55:16 2025
Module time:
	user time   =       6.00 seconds =       0.10 minutes
	system time =       4.67 seconds =       0.08 minutes
	total time  =          1 seconds =       0.02 minutes
Total time:
	user time   =      75.73 seconds =       1.26 minutes
	system time =      56.38 seconds =       0.94 minutes
	total time  =         16 seconds =       0.27 minutes

*** tstart() called on Joses-MacBook-Pro-2.local
*** at Wed Jul 16 18:55:16 2025

         ------------------------------------------------------------
                                   SCF GRAD
                          Rob Parrish, Justin Turney,
                       Andy Simmonett, and Alex Sokolov
         ------------------------------------------------------------

  ==> Geometry <==

    Molecular point group: c2v
    Full point group: C_inf_v

    Geometry (in Angstrom), charge = 0, multiplicity = 4:

       Center              X                  Y                   Z               Mass
    ------------   -----------------  -----------------  -----------------  -----------------
         B            0.000000000000     0.000000000000     1.386104419995    11.009305360000
         SI           0.000000000000     0.000000000000    -0.545451152459    27.976926534650

  Nuclear repulsion =   19.177498838329601

  ==> Basis Set <==

  Basis Set: CC-PVDZ
    Blend: CC-PVDZ
    Number of shells: 14
    Number of basis functions: 32
    Number of Cartesian functions: 34
    Spherical Harmonics?: true
    Max angular momentum: 2

  ==> DFJKGrad: Density-Fitted SCF Gradients <==

    Gradient:                    1
    J tasked:                  Yes
    K tasked:                  Yes
    wK tasked:                  No
    OpenMP threads:              1
    Integrals threads:           1
    Memory [MiB]:              375
    Schwarz Cutoff:          1E-12
    Fitting Condition:       1E-10

   => Auxiliary Basis Set <=

  Basis Set: (CC-PVDZ AUX)
    Blend: CC-PVDZ-JKFIT
    Number of shells: 60
    Number of basis functions: 182
    Number of Cartesian functions: 211
    Spherical Harmonics?: true
    Max angular momentum: 3

  ==> DFT Potential <==

   => LibXC <=

    Version 6.2.2
    S. Lehtola, C. Steigemann, M. J.T. Oliveira, and M. A.L. Marques.,  SoftwareX 7, 1â€“5 (2018) (10.1016/j.softx.2017.11.002)

   => Composite Functional: B3LYP <=

    B3LYP Hyb-GGA Exchange-Correlation Functional

    P. J. Stephens, F. J. Devlin, C. F. Chabalowski, and M. J. Frisch.,  J. Phys. Chem. 98, 11623 (1994) (10.1021/j100096a001)

    Deriv               =              1
    GGA                 =           TRUE
    Meta                =          FALSE

    Exchange Hybrid     =           TRUE
    MP2 Hybrid          =          FALSE

   => Exchange Functionals <=

    0.0800   Slater exchange
    0.7200         Becke 88

   => Exact (HF) Exchange <=

    0.2000               HF

   => Correlation Functionals <=

    0.1900   Vosko, Wilk & Nusair (VWN5_RPA)
    0.8100   Lee, Yang & Parr

   => LibXC Density Thresholds  <==

    XC_HYB_GGA_XC_B3LYP:  1.00E-15

   => Molecular Quadrature <=

    Radial Scheme          =       TREUTLER
    Pruning Scheme         =           NONE
    Nuclear Scheme         =       TREUTLER

    Blocking Scheme        =         OCTREE
    BS radius alpha        =              1
    Pruning alpha          =              1
    Radial Points          =             75
    Spherical Points       =            302
    Total Points           =          42130
    Total Blocks           =            386
    Max Points             =            256
    Max Functions          =             32
    Weights Tolerance      =       1.00E-15

  -Total Gradient:
     Atom            X                  Y                   Z
    ------   -----------------  -----------------  -----------------
       1        0.000000000000     0.000000000000    -0.000138756037
       2       -0.000000000000    -0.000000000000     0.000127884446

*** tstop() called on Joses-MacBook-Pro-2.local at Wed Jul 16 18:55:17 2025
Module time:
	user time   =       1.35 seconds =       0.02 minutes
	system time =       1.29 seconds =       0.02 minutes
	total time  =          1 seconds =       0.02 minutes
Total time:
	user time   =      77.08 seconds =       1.28 minutes
	system time =      57.68 seconds =       0.96 minutes
	total time  =         17 seconds =       0.28 minutes

    			-----------------------------------------

    			 OPTKING 3.0: for geometry optimizations

    			     By R.A. King, Bethel University

    			        with contributions from

    			    A.V. Copan, J. Cayton, A. Heide

    			-----------------------------------------

	                            ===> Fragment 1 <==

	 Z (Atomic Numbers)          Masses                          Geom
	       5.000000            11.009305          0.00000000  0.00000000  2.61935774
	      14.000000            27.976927          0.00000000  0.00000000 -1.03075329

	 - Coordinate -           - BOHR/RAD -       - ANG/DEG -
	 R(1,2)           =         3.650111           1.931556

	        --- Internal Coordinate Step in ANG or DEG, aJ/ANG or AJ/DEG ---
	-------------------------------------------------------------------------------
	           Coordinate      Previous         Force          Change          New
	           ----------      --------        ------          ------        ------
	               R(1,2)       1.93156        0.00110        0.00034       1.93190
	-------------------------------------------------------------------------------

	                                 ==> Convergence Check <==

	Measures of convergence in internal coordinates in au.

	Criteria marked as inactive (o), active & met (*), and active & unmet ( ).

	----------------------------------------------------------------------------------------------
	   Step    Total Energy     Delta E     Max Force     RMS Force      Max Disp      RMS Disp
	----------------------------------------------------------------------------------------------
	  Convergence Criteria     1.00e-06 *    3.00e-04 *             o    1.20e-03 *             o
	----------------------------------------------------------------------------------------------
	     9    -314.16743713   -1.20e-06      1.33e-04 *    1.33e-04 o    6.50e-04 *    6.50e-04 o  ~
	----------------------------------------------------------------------------------------------

Next Geometry in Ang
	Fragment 1 (Ang)

	    B   0.0000000000   0.0000000000   1.3862764053
	   Si   0.0000000000   0.0000000000  -0.5456231378

    Final optimized geometry and variables:
    Molecular point group: c2v
    Full point group: C_inf_v

    Geometry (in Angstrom), charge = 0, multiplicity = 4:

    B            0.000000000000     0.000000000000     1.386104419995
    SI           0.000000000000     0.000000000000    -0.545451152459

    Psi4 stopped on: Wednesday, 16 July 2025 06:55PM
    Psi4 wall time for execution: 0:00:17.12

*** Psi4 exiting successfully. Buy a developer a beer!
