                               Psi4 1.9.1 release

  ==> Input File <==

--------------------------------------------------------------------------
molecule {
0 4
Li   0.00000        0.60000        0.00000
Ne   0.00000       -0.60000        0.00000
}

set {
basis              cc-pvdz
reference          uks
maxiter            500
geom_maxiter       500
DAMPING_PERCENTAGE 1
guess              SAP
}

optimize('b3lyp')
--------------------------------------------------------------------------

    Molecular point group: c2v
  Charge       = 0
  Multiplicity = 4
  Basis Set: CC-PVDZ
    Blend: CC-PVDZ
  Basis Set: (CC-PVDZ AUX)
    Blend: CC-PVDZ-JKFIT + DEF2-UNIVERSAL-JKFIT
  @DF-UKS Final Energy:  -135.52622225494088
    Total Energy =                       -135.5262222549408762
 Dipole X            :          0.0000000            0.0000000            0.0000000
 Dipole Y            :          0.0000000            0.0000000            0.0000000
 Dipole Z            :         -0.2128817           -0.8549566           -1.0678384
 Magnitude           :                                                    1.0678384
    Molecular point group: c2v
  Basis Set: CC-PVDZ
    Blend: CC-PVDZ
  Basis Set: (CC-PVDZ AUX)
    Blend: CC-PVDZ-JKFIT + DEF2-UNIVERSAL-JKFIT
  Basis Set: CC-PVDZ
    Blend: CC-PVDZ
  Basis Set: (CC-PVDZ AUX)
    Blend: CC-PVDZ-JKFIT + DEF2-UNIVERSAL-JKFIT
  @DF-UKS Final Energy:  -135.62158604701844
    Total Energy =                       -135.6215860470184396
  Basis Set: CC-PVDZ
    Blend: CC-PVDZ
  Basis Set: (CC-PVDZ AUX)
    Blend: CC-PVDZ-JKFIT + DEF2-UNIVERSAL-JKFIT
  Basis Set: CC-PVDZ
    Blend: CC-PVDZ
  @DF-UKS Final Energy:  -135.67261080797789
    Total Energy =                       -135.6726108079778896
  @DF-UKS Final Energy:  -135.71250375156887
    Total Energy =                       -135.7125037515688746
  @DF-UKS Final Energy:  -135.74141112629104
    Total Energy =                       -135.7414111262910410
  @DF-UKS Final Energy:  -135.75810124395812
    Total Energy =                       -135.7581012439581230
  @DF-UKS Final Energy:  -135.76056909578222
    Total Energy =                       -135.7605690957822162
  @DF-UKS Final Energy:  -135.76560734251046
    Total Energy =                       -135.7656073425104637
  @DF-UKS Final Energy:  -135.76636994159756
    Total Energy =                       -135.7663699415975600
  Basis Set: (CC-PVDZ AUX)
    Blend: CC-PVDZ-JKFIT + DEF2-UNIVERSAL-JKFIT
  Basis Set: CC-PVDZ
    Blend: CC-PVDZ
  Basis Set: (CC-PVDZ AUX)
    Blend: CC-PVDZ-JKFIT + DEF2-UNIVERSAL-JKFIT
  @DF-UKS Final Energy:  -135.76642968554373
    Total Energy =                       -135.7664296855437271
  Basis Set: CC-PVDZ
    Blend: CC-PVDZ
  Basis Set: (CC-PVDZ AUX)
    Blend: CC-PVDZ-JKFIT + DEF2-UNIVERSAL-JKFIT
  Charge       = 0
  Multiplicity = 4
  Basis Set: CC-PVDZ
    Blend: CC-PVDZ
  Basis Set: (CC-PVDZ AUX)
    Blend: CC-PVDZ-JKFIT + DEF2-UNIVERSAL-JKFIT

    Orbital Energies [Eh]
    ---------------------

    Alpha Occupied:

       1A1   -31.633468     2A1    -2.005825     3A1    -2.002550
       4A1    -1.175381     1B2    -1.065201     1B1    -1.064519
       5A1    -0.162194     2B1    -0.072664

    Alpha Virtual:

       6A1    -0.031955     2B2    -0.026665     7A1     0.027297
       3B1     0.063708     3B2     0.081348     8A1     0.100535
       4B1     0.202444     4B2     0.221545     1A2     0.225287
       9A1     0.226002    10A1     0.240060     5B2     1.005415
       5B1     1.006798    11A1     1.010239    12A1     1.610232
      13A1     4.100583     6B2     4.124925     6B1     4.125560
       2A2     4.206360    14A1     4.206850

    Beta Occupied:

       1A1   -31.592219     2A1    -1.999306     3A1    -1.892786
       1B2    -1.024515     1B1    -1.023280

    Beta Virtual:

       4A1    -0.813288     5A1    -0.069622     6A1    -0.014837
       2B2     0.002036     2B1     0.010563     7A1     0.070181
       3B2     0.095159     3B1     0.106775     8A1     0.110801
       4B2     0.245489     4B1     0.258018     9A1     0.259401
       1A2     0.282761    10A1     0.286409     5B2     1.025583
       5B1     1.028462    11A1     1.117454    12A1     1.669821
       2A2     4.226280    13A1     4.226719     6B2     4.239965
       6B1     4.240787    14A1     4.265174

    Final Occupation by Irrep:
             A1    A2    B1    B2
    DOCC [     3,    0,    1,    1 ]
    SOCC [     2,    0,    1,    0 ]
    NA   [     5,    0,    2,    1 ]
    NB   [     3,    0,    1,    1 ]

  @DF-UKS Final Energy:  -135.76643062422784

   => Energetics <=

    Nuclear Repulsion Energy =              5.7973806789753004
    One-Electron Energy =                -198.3278075825574547
    Two-Electron Energy =                  68.0336400601231333
    DFT Exchange-Correlation Energy =     -11.2696437807687886
    Empirical Dispersion Energy =           0.0000000000000000
    VV10 Nonlocal Energy =                  0.0000000000000000
    Total Energy =                       -135.7664306242278371

  UHF NO Occupations:
  HONO-2 :    4 A1 1.0000000
  HONO-1 :    5 A1 1.0000000
  HONO-0 :    2 B1 1.0000000
  LUNO+0 :    6 A1 0.0002635
  LUNO+1 :    3 B1 0.0000482
  LUNO+2 :    2 B2 0.0000469
  LUNO+3 :    7 A1 0.0000009

Computation Completed

Properties will be evaluated at   0.000000,   0.000000,   0.000000 [a0]

Properties computed using the SCF density matrix

 Multipole Moments:

 ------------------------------------------------------------------------------------
     Multipole            Electronic (a.u.)      Nuclear  (a.u.)        Total (a.u.)
 ------------------------------------------------------------------------------------

 L = 1.  Multiply by 2.5417464519 to convert [e a0] to [Debye]
 Dipole X            :          0.0000000            0.0000000            0.0000000
 Dipole Y            :          0.0000000            0.0000000            0.0000000
 Dipole Z            :         -0.6597547           -1.9509827           -2.6107374
 Magnitude           :                                                    2.6107374

 ------------------------------------------------------------------------------------

*** tstop() called on Joses-MacBook-Pro-2.local at Wed Jul 16 18:32:06 2025
Module time:
	user time   =       2.56 seconds =       0.04 minutes
	system time =       2.49 seconds =       0.04 minutes
	total time  =          0 seconds =       0.00 minutes
Total time:
	user time   =      41.33 seconds =       0.69 minutes
	system time =      45.39 seconds =       0.76 minutes
	total time  =          8 seconds =       0.13 minutes

*** tstart() called on Joses-MacBook-Pro-2.local
*** at Wed Jul 16 18:32:06 2025

         ------------------------------------------------------------
                                   SCF GRAD
                          Rob Parrish, Justin Turney,
                       Andy Simmonett, and Alex Sokolov
         ------------------------------------------------------------

  ==> Geometry <==

    Molecular point group: c2v
    Full point group: C_inf_v

    Geometry (in Angstrom), charge = 0, multiplicity = 4:

       Center              X                  Y                   Z               Mass
    ------------   -----------------  -----------------  -----------------  -----------------
         LI           0.000000000000     0.000000000000     2.027014314124     7.016003436600
         NE           0.000000000000     0.000000000000    -0.711345852162    19.992440176200

  Nuclear repulsion =    5.797380678975300

  ==> Basis Set <==

  Basis Set: CC-PVDZ
    Blend: CC-PVDZ
    Number of shells: 12
    Number of basis functions: 28
    Number of Cartesian functions: 30
    Spherical Harmonics?: true
    Max angular momentum: 2

  ==> DFJKGrad: Density-Fitted SCF Gradients <==

    Gradient:                    1
    J tasked:                  Yes
    K tasked:                  Yes
    wK tasked:                  No
    OpenMP threads:              1
    Integrals threads:           1
    Memory [MiB]:              375
    Schwarz Cutoff:          1E-12
    Fitting Condition:       1E-10

   => Auxiliary Basis Set <=

  Basis Set: (CC-PVDZ AUX)
    Blend: CC-PVDZ-JKFIT + DEF2-UNIVERSAL-JKFIT
    Number of shells: 41
    Number of basis functions: 121
    Number of Cartesian functions: 141
    Spherical Harmonics?: true
    Max angular momentum: 3

  ==> DFT Potential <==

   => LibXC <=

    Version 6.2.2
    S. Lehtola, C. Steigemann, M. J.T. Oliveira, and M. A.L. Marques.,  SoftwareX 7, 1â€“5 (2018) (10.1016/j.softx.2017.11.002)

   => Composite Functional: B3LYP <=

    B3LYP Hyb-GGA Exchange-Correlation Functional

    P. J. Stephens, F. J. Devlin, C. F. Chabalowski, and M. J. Frisch.,  J. Phys. Chem. 98, 11623 (1994) (10.1021/j100096a001)

    Deriv               =              1
    GGA                 =           TRUE
    Meta                =          FALSE

    Exchange Hybrid     =           TRUE
    MP2 Hybrid          =          FALSE

   => Exchange Functionals <=

    0.0800   Slater exchange
    0.7200         Becke 88

   => Exact (HF) Exchange <=

    0.2000               HF

   => Correlation Functionals <=

    0.1900   Vosko, Wilk & Nusair (VWN5_RPA)
    0.8100   Lee, Yang & Parr

   => LibXC Density Thresholds  <==

    XC_HYB_GGA_XC_B3LYP:  1.00E-15

   => Molecular Quadrature <=

    Radial Scheme          =       TREUTLER
    Pruning Scheme         =           NONE
    Nuclear Scheme         =       TREUTLER

    Blocking Scheme        =         OCTREE
    BS radius alpha        =              1
    Pruning alpha          =              1
    Radial Points          =             75
    Spherical Points       =            302
    Total Points           =          44341
    Total Blocks           =            417
    Max Points             =            255
    Max Functions          =             28
    Weights Tolerance      =       1.00E-15

  -Total Gradient:
     Atom            X                  Y                   Z
    ------   -----------------  -----------------  -----------------
       1        0.000000000000     0.000000000000    -0.000021587406
       2        0.000000000000    -0.000000000000     0.000028391959

*** tstop() called on Joses-MacBook-Pro-2.local at Wed Jul 16 18:32:06 2025
Module time:
	user time   =       0.51 seconds =       0.01 minutes
	system time =       1.01 seconds =       0.02 minutes
	total time  =          0 seconds =       0.00 minutes
Total time:
	user time   =      41.85 seconds =       0.70 minutes
	system time =      46.40 seconds =       0.77 minutes
	total time  =          8 seconds =       0.13 minutes

    			-----------------------------------------

    			 OPTKING 3.0: for geometry optimizations

    			     By R.A. King, Bethel University

    			        with contributions from

    			    A.V. Copan, J. Cayton, A. Heide

    			-----------------------------------------

	                            ===> Fragment 1 <==

	 Z (Atomic Numbers)          Masses                          Geom
	       3.000000             7.016003          0.00000000  0.00000000  3.83050191
	      10.000000            19.992440          0.00000000  0.00000000 -1.34424884

	 - Coordinate -           - BOHR/RAD -       - ANG/DEG -
	 R(1,2)           =         5.174751           2.738360

	        --- Internal Coordinate Step in ANG or DEG, aJ/ANG or AJ/DEG ---
	-------------------------------------------------------------------------------
	           Coordinate      Previous         Force          Change          New
	           ----------      --------        ------          ------        ------
	               R(1,2)       2.73836        0.00021        0.00063       2.73899
	-------------------------------------------------------------------------------

	                                 ==> Convergence Check <==

	Measures of convergence in internal coordinates in au.

	Criteria marked as inactive (o), active & met (*), and active & unmet ( ).

	----------------------------------------------------------------------------------------------
	   Step    Total Energy     Delta E     Max Force     RMS Force      Max Disp      RMS Disp
	----------------------------------------------------------------------------------------------
	  Convergence Criteria     1.00e-06 *    3.00e-04 *             o    1.20e-03 *             o
	----------------------------------------------------------------------------------------------
	    11    -135.76643062   -9.39e-07 *    2.50e-05 *    2.50e-05 o    1.19e-03 *    1.19e-03 o  ~
	----------------------------------------------------------------------------------------------

Next Geometry in Ang
	Fragment 1 (Ang)

	   Li   0.0000000000   0.0000000000   2.0273284831
	   Ne   0.0000000000   0.0000000000  -0.7116600212

    Final optimized geometry and variables:
    Molecular point group: c2v
    Full point group: C_inf_v

    Geometry (in Angstrom), charge = 0, multiplicity = 4:

    LI           0.000000000000     0.000000000000     2.027014314124
    NE           0.000000000000     0.000000000000    -0.711345852162

    Psi4 stopped on: Wednesday, 16 July 2025 06:32PM
    Psi4 wall time for execution: 0:00:08.90

*** Psi4 exiting successfully. Buy a developer a beer!
