                               Psi4 1.9.1 release

  ==> Input File <==

--------------------------------------------------------------------------
molecule {
0 4
Cl   0.00000        0.60000        0.00000
Ar   0.00000       -0.60000        0.00000
}

set {
basis              cc-pvdz
reference          uks
maxiter            500
geom_maxiter       500
DAMPING_PERCENTAGE 1
guess              SAP
}

optimize('b3lyp')
--------------------------------------------------------------------------

    Molecular point group: c2v
  Charge       = 0
  Multiplicity = 4
  Basis Set: CC-PVDZ
    Blend: CC-PVDZ
  Basis Set: (CC-PVDZ AUX)
    Blend: CC-PVDZ-JKFIT
  @DF-UKS Final Energy:  -985.63566713220280
    Total Energy =                       -985.6356671322027978
 Dipole X            :          0.0000000            0.0000000            0.0000000
 Dipole Y            :          0.0000000            0.0000000            0.0000000
 Dipole Z            :         -1.8594728            1.5107824           -0.3486903
 Magnitude           :                                                    0.3486903
    Molecular point group: c2v
  Basis Set: CC-PVDZ
    Blend: CC-PVDZ
  Basis Set: (CC-PVDZ AUX)
    Blend: CC-PVDZ-JKFIT
  Basis Set: CC-PVDZ
    Blend: CC-PVDZ
  Basis Set: (CC-PVDZ AUX)
    Blend: CC-PVDZ-JKFIT
  @DF-UKS Final Energy:  -985.68526748992929
    Total Energy =                       -985.6852674899292879
  Basis Set: CC-PVDZ
    Blend: CC-PVDZ
  Basis Set: (CC-PVDZ AUX)
    Blend: CC-PVDZ-JKFIT
  Basis Set: CC-PVDZ
    Blend: CC-PVDZ
  @DF-UKS Final Energy:  -985.77575398641932
    Total Energy =                       -985.7757539864193177
  @DF-UKS Final Energy:  -986.05856252898207
    Total Energy =                       -986.0585625289820655
  @DF-UKS Final Energy:  -986.55566273244108
    Total Energy =                       -986.5556627324410783
  @DF-UKS Final Energy:  -986.73727401332962
    Total Energy =                       -986.7372740133296247
  @DF-UKS Final Energy:  -986.85294840505048
    Total Energy =                       -986.8529484050504834
  @DF-UKS Final Energy:  -986.89784370314044
    Total Energy =                       -986.8978437031404383
  @DF-UKS Final Energy:  -986.91669117676133
    Total Energy =                       -986.9166911767614465
  @DF-UKS Final Energy:  -986.92408791901244
    Total Energy =                       -986.9240879190125497
  @DF-UKS Final Energy:  -986.92660368146380
    Total Energy =                       -986.9266036814638028
  @DF-UKS Final Energy:  -986.92846737385491
    Total Energy =                       -986.9284673738549145
  @DF-UKS Final Energy:  -986.93007158643343
    Total Energy =                       -986.9300715864334279
  @DF-UKS Final Energy:  -986.93394055228498
    Total Energy =                       -986.9339405522849802
  @DF-UKS Final Energy:  -986.94746176676347
    Total Energy =                       -986.9474617667634675
  Basis Set: (CC-PVDZ AUX)
    Blend: CC-PVDZ-JKFIT
  Basis Set: CC-PVDZ
    Blend: CC-PVDZ
  Basis Set: (CC-PVDZ AUX)
    Blend: CC-PVDZ-JKFIT
  @DF-UKS Final Energy:  -986.94746909543574
    Total Energy =                       -986.9474690954357357
  Basis Set: CC-PVDZ
    Blend: CC-PVDZ
  Basis Set: (CC-PVDZ AUX)
    Blend: CC-PVDZ-JKFIT
  Charge       = 0
  Multiplicity = 4
  Basis Set: CC-PVDZ
    Blend: CC-PVDZ
  Basis Set: (CC-PVDZ AUX)
    Blend: CC-PVDZ-JKFIT

    Orbital Energies [Eh]
    ---------------------

    Alpha Occupied:

       1A1  -115.131831     2A1  -101.631945     3A1   -11.172962
       4A1    -9.548302     5A1    -8.725296     1B2    -8.722062
       1B1    -8.721343     2B2    -7.315629     6A1    -7.314289
       2B1    -7.293635     7A1    -1.020164     8A1    -0.904691
       9A1    -0.519813     3B2    -0.475434     3B1    -0.467011
       4B2    -0.435664     4B1    -0.386841    10A1    -0.375174
      11A1     0.398794

    Alpha Virtual:

       5B2     0.443586     5B1     0.468849    12A1     0.532438
       6B2     0.537248     6B1     0.556017    13A1     0.563223
      14A1     0.608129     1A2     0.630738    15A1     0.638573
       7B2     0.650810     7B1     0.676221    16A1     0.740471
       2A2     0.794337    17A1     0.794353     8B2     0.810054
       8B1     0.815668    18A1     1.177534

    Beta Occupied:

       1A1  -115.128784     2A1  -101.613936     3A1   -11.170030
       4A1    -9.530120     1B2    -8.719773     1B1    -8.719527
       5A1    -8.716767     2B2    -7.286260     2B1    -7.282504
       6A1    -7.277889     7A1    -1.004525     8A1    -0.791614
       9A1    -0.468387     3B1    -0.461228     3B2    -0.460559
       4B1    -0.349386

    Beta Virtual:

       4B2    -0.254495    10A1    -0.203723     5B1     0.487206
       5B2     0.492392    11A1     0.540275    12A1     0.569144
       6B1     0.578461     6B2     0.581762    13A1     0.644989
      14A1     0.671035     1A2     0.703720    15A1     0.709889
       7B1     0.725897     7B2     0.736408    16A1     0.755982
       2A2     0.798265    17A1     0.798284     8B1     0.833711
       8B2     0.835693    18A1     1.213512

    Final Occupation by Irrep:
             A1    A2    B1    B2
    DOCC [     9,    0,    4,    3 ]
    SOCC [     2,    0,    0,    1 ]
    NA   [    11,    0,    4,    4 ]
    NB   [     9,    0,    4,    3 ]

  @DF-UKS Final Energy:  -986.94752148448163

   => Energetics <=

    Nuclear Repulsion Energy =             66.3646748143416687
    One-Electron Energy =               -1494.0491068170495055
    Two-Electron Energy =                 488.3698954142735715
    DFT Exchange-Correlation Energy =     -47.6329848960474678
    Empirical Dispersion Energy =           0.0000000000000000
    VV10 Nonlocal Energy =                  0.0000000000000000
    Total Energy =                       -986.9475214844817401

  UHF NO Occupations:
  HONO-2 :    4 B2 1.0000000
  HONO-1 :   10 A1 1.0000000
  HONO-0 :   11 A1 1.0000000
  LUNO+0 :   12 A1 0.0010416
  LUNO+1 :   13 A1 0.0002536
  LUNO+2 :    5 B1 0.0001646
  LUNO+3 :    5 B2 0.0000288

Computation Completed

Properties will be evaluated at   0.000000,   0.000000,   0.000000 [a0]

Properties computed using the SCF density matrix

 Multipole Moments:

 ------------------------------------------------------------------------------------
     Multipole            Electronic (a.u.)      Nuclear  (a.u.)        Total (a.u.)
 ------------------------------------------------------------------------------------

 L = 1.  Multiply by 2.5417464519 to convert [e a0] to [Debye]
 Dipole X            :          0.0000000            0.0000000            0.0000000
 Dipole Y            :          0.0000000            0.0000000            0.0000000
 Dipole Z            :         -3.9807687            3.0718943           -0.9088744
 Magnitude           :                                                    0.9088744

 ------------------------------------------------------------------------------------

*** tstop() called on Joses-MacBook-Pro-2.local at Wed Jul 16 20:33:47 2025
Module time:
	user time   =       8.50 seconds =       0.14 minutes
	system time =       1.88 seconds =       0.03 minutes
	total time  =          1 seconds =       0.02 minutes
Total time:
	user time   =     182.40 seconds =       3.04 minutes
	system time =      55.74 seconds =       0.93 minutes
	total time  =         22 seconds =       0.37 minutes

*** tstart() called on Joses-MacBook-Pro-2.local
*** at Wed Jul 16 20:33:47 2025

         ------------------------------------------------------------
                                   SCF GRAD
                          Rob Parrish, Justin Turney,
                       Andy Simmonett, and Alex Sokolov
         ------------------------------------------------------------

  ==> Geometry <==

    Molecular point group: c2v
    Full point group: C_inf_v

    Geometry (in Angstrom), charge = 0, multiplicity = 4:

       Center              X                  Y                   Z               Mass
    ------------   -----------------  -----------------  -----------------  -----------------
         CL           0.000000000000     0.000000000000     1.301289940113    34.968852682000
         AR           0.000000000000     0.000000000000    -1.138686250805    39.962383123700

  Nuclear repulsion =   66.364674814341669

  ==> Basis Set <==

  Basis Set: CC-PVDZ
    Blend: CC-PVDZ
    Number of shells: 16
    Number of basis functions: 36
    Number of Cartesian functions: 38
    Spherical Harmonics?: true
    Max angular momentum: 2

  ==> DFJKGrad: Density-Fitted SCF Gradients <==

    Gradient:                    1
    J tasked:                  Yes
    K tasked:                  Yes
    wK tasked:                  No
    OpenMP threads:              1
    Integrals threads:           1
    Memory [MiB]:              375
    Schwarz Cutoff:          1E-12
    Fitting Condition:       1E-10

   => Auxiliary Basis Set <=

  Basis Set: (CC-PVDZ AUX)
    Blend: CC-PVDZ-JKFIT
    Number of shells: 72
    Number of basis functions: 224
    Number of Cartesian functions: 260
    Spherical Harmonics?: true
    Max angular momentum: 3

  ==> DFT Potential <==

   => LibXC <=

    Version 6.2.2
    S. Lehtola, C. Steigemann, M. J.T. Oliveira, and M. A.L. Marques.,  SoftwareX 7, 1â€“5 (2018) (10.1016/j.softx.2017.11.002)

   => Composite Functional: B3LYP <=

    B3LYP Hyb-GGA Exchange-Correlation Functional

    P. J. Stephens, F. J. Devlin, C. F. Chabalowski, and M. J. Frisch.,  J. Phys. Chem. 98, 11623 (1994) (10.1021/j100096a001)

    Deriv               =              1
    GGA                 =           TRUE
    Meta                =          FALSE

    Exchange Hybrid     =           TRUE
    MP2 Hybrid          =          FALSE

   => Exchange Functionals <=

    0.0800   Slater exchange
    0.7200         Becke 88

   => Exact (HF) Exchange <=

    0.2000               HF

   => Correlation Functionals <=

    0.1900   Vosko, Wilk & Nusair (VWN5_RPA)
    0.8100   Lee, Yang & Parr

   => LibXC Density Thresholds  <==

    XC_HYB_GGA_XC_B3LYP:  1.00E-15

   => Molecular Quadrature <=

    Radial Scheme          =       TREUTLER
    Pruning Scheme         =           NONE
    Nuclear Scheme         =       TREUTLER

    Blocking Scheme        =         OCTREE
    BS radius alpha        =              1
    Pruning alpha          =              1
    Radial Points          =             75
    Spherical Points       =            302
    Total Points           =          39730
    Total Blocks           =            358
    Max Points             =            252
    Max Functions          =             36
    Weights Tolerance      =       1.00E-15

  -Total Gradient:
     Atom            X                  Y                   Z
    ------   -----------------  -----------------  -----------------
       1        0.000000000000     0.000000000000    -0.000071360798
       2        0.000000000000    -0.000000000000     0.000083244847

*** tstop() called on Joses-MacBook-Pro-2.local at Wed Jul 16 20:33:48 2025
Module time:
	user time   =       2.21 seconds =       0.04 minutes
	system time =       1.27 seconds =       0.02 minutes
	total time  =          1 seconds =       0.02 minutes
Total time:
	user time   =     184.61 seconds =       3.08 minutes
	system time =      57.01 seconds =       0.95 minutes
	total time  =         23 seconds =       0.38 minutes

    			-----------------------------------------

    			 OPTKING 3.0: for geometry optimizations

    			     By R.A. King, Bethel University

    			        with contributions from

    			    A.V. Copan, J. Cayton, A. Heide

    			-----------------------------------------

	                            ===> Fragment 1 <==

	 Z (Atomic Numbers)          Masses                          Geom
	      17.000000            34.968853          0.00000000  0.00000000  2.45908160
	      18.000000            39.962383          0.00000000  0.00000000 -2.15180516

	 - Coordinate -           - BOHR/RAD -       - ANG/DEG -
	 R(1,2)           =         4.610887           2.439976

	        --- Internal Coordinate Step in ANG or DEG, aJ/ANG or AJ/DEG ---
	-------------------------------------------------------------------------------
	           Coordinate      Previous         Force          Change          New
	           ----------      --------        ------          ------        ------
	               R(1,2)       2.43998        0.00064        0.00062       2.44059
	-------------------------------------------------------------------------------

	                                 ==> Convergence Check <==

	Measures of convergence in internal coordinates in au.

	Criteria marked as inactive (o), active & met (*), and active & unmet ( ).

	----------------------------------------------------------------------------------------------
	   Step    Total Energy     Delta E     Max Force     RMS Force      Max Disp      RMS Disp
	----------------------------------------------------------------------------------------------
	  Convergence Criteria     1.00e-06 *    3.00e-04 *             o    1.20e-03 *             o
	----------------------------------------------------------------------------------------------
	    17    -986.94752148   -5.24e-05      7.73e-05 *    7.73e-05 o    1.16e-03 *    1.16e-03 o  ~
	----------------------------------------------------------------------------------------------

Next Geometry in Ang
	Fragment 1 (Ang)

	   Cl   0.0000000000   0.0000000000   1.3015980068
	   Ar   0.0000000000   0.0000000000  -1.1389943175

    Final optimized geometry and variables:
    Molecular point group: c2v
    Full point group: C_inf_v

    Geometry (in Angstrom), charge = 0, multiplicity = 4:

    CL           0.000000000000     0.000000000000     1.301289940113
    AR           0.000000000000     0.000000000000    -1.138686250805

    Psi4 stopped on: Wednesday, 16 July 2025 08:33PM
    Psi4 wall time for execution: 0:00:23.36

*** Psi4 exiting successfully. Buy a developer a beer!
