                               Psi4 1.9.1 release

  ==> Input File <==

--------------------------------------------------------------------------
molecule {
0 4
B   0.00000        0.60000        0.00000
Ne   0.00000       -0.60000        0.00000
}

set {
basis              cc-pvdz
reference          uks
maxiter            500
geom_maxiter       500
DAMPING_PERCENTAGE 1
guess              SAP
}

optimize('b3lyp')
--------------------------------------------------------------------------

    Molecular point group: c2v
  Charge       = 0
  Multiplicity = 4
  Basis Set: CC-PVDZ
    Blend: CC-PVDZ
  Basis Set: (CC-PVDZ AUX)
    Blend: CC-PVDZ-JKFIT
  @DF-UKS Final Energy:  -153.30879491673832
    Total Energy =                       -153.3087949167383215
 Dipole X            :          0.0000000            0.0000000            0.0000000
 Dipole Y            :          0.0000000            0.0000000            0.0000000
 Dipole Z            :         -0.3933975           -0.7410371           -1.1344346
 Magnitude           :                                                    1.1344346
    Molecular point group: c2v
  Basis Set: CC-PVDZ
    Blend: CC-PVDZ
  Basis Set: (CC-PVDZ AUX)
    Blend: CC-PVDZ-JKFIT
  Basis Set: CC-PVDZ
    Blend: CC-PVDZ
  Basis Set: (CC-PVDZ AUX)
    Blend: CC-PVDZ-JKFIT
  @DF-UKS Final Energy:  -153.38963845295345
    Total Energy =                       -153.3896384529534771
  Basis Set: CC-PVDZ
    Blend: CC-PVDZ
  Basis Set: (CC-PVDZ AUX)
    Blend: CC-PVDZ-JKFIT
  Basis Set: CC-PVDZ
    Blend: CC-PVDZ
  @DF-UKS Final Energy:  -153.41575167560754
    Total Energy =                       -153.4157516756075381
  @DF-UKS Final Energy:  -153.43145765898470
    Total Energy =                       -153.4314576589847263
  @DF-UKS Final Energy:  -153.43732572049461
    Total Energy =                       -153.4373257204946412
  @DF-UKS Final Energy:  -153.44091669760209
    Total Energy =                       -153.4409166976021197
  @DF-UKS Final Energy:  -153.44293428086414
    Total Energy =                       -153.4429342808641081
  @DF-UKS Final Energy:  -153.44380145930140
    Total Energy =                       -153.4438014593013975
  @DF-UKS Final Energy:  -153.44414316984285
    Total Energy =                       -153.4441431698428460
  @DF-UKS Final Energy:  -153.44423799903589
    Total Energy =                       -153.4442379990358916
  @DF-UKS Final Energy:  -153.44427506339900
    Total Energy =                       -153.4442750633990045
  @DF-UKS Final Energy:  -153.44428309904580
    Total Energy =                       -153.4442830990458049
  Basis Set: (CC-PVDZ AUX)
    Blend: CC-PVDZ-JKFIT
  Basis Set: CC-PVDZ
    Blend: CC-PVDZ
  Basis Set: (CC-PVDZ AUX)
    Blend: CC-PVDZ-JKFIT
  @DF-UKS Final Energy:  -153.44428531950760
    Total Energy =                       -153.4442853195076282
  Basis Set: CC-PVDZ
    Blend: CC-PVDZ
  Basis Set: (CC-PVDZ AUX)
    Blend: CC-PVDZ-JKFIT
  Charge       = 0
  Multiplicity = 4
  Basis Set: CC-PVDZ
    Blend: CC-PVDZ
  Basis Set: (CC-PVDZ AUX)
    Blend: CC-PVDZ-JKFIT

    Orbital Energies [Eh]
    ---------------------

    Alpha Occupied:

       1A1   -31.037189     2A1    -6.860751     3A1    -1.497879
       4A1    -0.622245     1B1    -0.602053     1B2    -0.602053
       5A1    -0.414104     2B1    -0.198220     2B2    -0.198220

    Alpha Virtual:

       6A1    -0.081354     3B2     0.271800     3B1     0.271800
       7A1     0.298118     8A1     0.347212     4B2     0.661078
       4B1     0.661078     9A1     0.662828     1A2     0.662829
      10A1     0.722850     5B1     1.366988     5B2     1.366988
      11A1     1.429005    12A1     2.166608     6B2     4.662037
       6B1     4.662037    13A1     4.663623     2A2     4.663779
      14A1     4.677762

    Beta Occupied:

       1A1   -31.035433     2A1    -6.821782     3A1    -1.494637
       4A1    -0.613006     1B1    -0.599654     1B2    -0.599654

    Beta Virtual:

       5A1    -0.178003     6A1     0.003069     2B2     0.016250
       2B1     0.016250     7A1     0.336295     3B2     0.368024
       3B1     0.368024     8A1     0.429061     4B2     0.780724
       4B1     0.780724     9A1     0.810988     1A2     0.829977
      10A1     0.829980     5B1     1.374238     5B2     1.374238
      11A1     1.434612    12A1     2.179108     6B2     4.665276
       6B1     4.665276    13A1     4.665326     2A2     4.665483
      14A1     4.681754

    Final Occupation by Irrep:
             A1    A2    B1    B2
    DOCC [     4,    0,    1,    1 ]
    SOCC [     1,    0,    1,    1 ]
    NA   [     5,    0,    2,    2 ]
    NB   [     4,    0,    1,    1 ]

  @DF-UKS Final Energy:  -153.44428566216038

   => Energetics <=

    Nuclear Repulsion Energy =             12.4461200222310939
    One-Electron Energy =                -239.0554139614971803
    Two-Electron Energy =                  86.4516402118166667
    DFT Exchange-Correlation Energy =     -13.2866319347109680
    Empirical Dispersion Energy =           0.0000000000000000
    VV10 Nonlocal Energy =                  0.0000000000000000
    Total Energy =                       -153.4442856621603823

  UHF NO Occupations:
  HONO-2 :    2 B2 1.0000000
  HONO-1 :    2 B1 1.0000000
  HONO-0 :    5 A1 1.0000000
  LUNO+0 :    6 A1 0.0000965
  LUNO+1 :    3 B2 0.0000035
  LUNO+2 :    3 B1 0.0000035
  LUNO+3 :    7 A1 0.0000009

Computation Completed

Properties will be evaluated at   0.000000,   0.000000,   0.000000 [a0]

Properties computed using the SCF density matrix

 Multipole Moments:

 ------------------------------------------------------------------------------------
     Multipole            Electronic (a.u.)      Nuclear  (a.u.)        Total (a.u.)
 ------------------------------------------------------------------------------------

 L = 1.  Multiply by 2.5417464519 to convert [e a0] to [Debye]
 Dipole X            :          0.0000000            0.0000000            0.0000000
 Dipole Y            :          0.0000000            0.0000000            0.0000000
 Dipole Z            :          0.9949619           -1.3127919           -0.3178299
 Magnitude           :                                                    0.3178299

 ------------------------------------------------------------------------------------

*** tstop() called on Joses-MacBook-Pro-2.local at Wed Jul 16 18:51:36 2025
Module time:
	user time   =       2.30 seconds =       0.04 minutes
	system time =       3.98 seconds =       0.07 minutes
	total time  =          1 seconds =       0.02 minutes
Total time:
	user time   =      42.98 seconds =       0.72 minutes
	system time =      85.48 seconds =       1.42 minutes
	total time  =         14 seconds =       0.23 minutes

*** tstart() called on Joses-MacBook-Pro-2.local
*** at Wed Jul 16 18:51:36 2025

         ------------------------------------------------------------
                                   SCF GRAD
                          Rob Parrish, Justin Turney,
                       Andy Simmonett, and Alex Sokolov
         ------------------------------------------------------------

  ==> Geometry <==

    Molecular point group: c2v
    Full point group: C_inf_v

    Geometry (in Angstrom), charge = 0, multiplicity = 4:

       Center              X                  Y                   Z               Mass
    ------------   -----------------  -----------------  -----------------  -----------------
         B            0.000000000000     0.000000000000     1.370934830092    11.009305360000
         NE           0.000000000000     0.000000000000    -0.754937368331    19.992440176200

  Nuclear repulsion =   12.446120022231094

  ==> Basis Set <==

  Basis Set: CC-PVDZ
    Blend: CC-PVDZ
    Number of shells: 12
    Number of basis functions: 28
    Number of Cartesian functions: 30
    Spherical Harmonics?: true
    Max angular momentum: 2

  ==> DFJKGrad: Density-Fitted SCF Gradients <==

    Gradient:                    1
    J tasked:                  Yes
    K tasked:                  Yes
    wK tasked:                  No
    OpenMP threads:              1
    Integrals threads:           1
    Memory [MiB]:              375
    Schwarz Cutoff:          1E-12
    Fitting Condition:       1E-10

   => Auxiliary Basis Set <=

  Basis Set: (CC-PVDZ AUX)
    Blend: CC-PVDZ-JKFIT
    Number of shells: 48
    Number of basis functions: 140
    Number of Cartesian functions: 162
    Spherical Harmonics?: true
    Max angular momentum: 3

  ==> DFT Potential <==

   => LibXC <=

    Version 6.2.2
    S. Lehtola, C. Steigemann, M. J.T. Oliveira, and M. A.L. Marques.,  SoftwareX 7, 1â€“5 (2018) (10.1016/j.softx.2017.11.002)

   => Composite Functional: B3LYP <=

    B3LYP Hyb-GGA Exchange-Correlation Functional

    P. J. Stephens, F. J. Devlin, C. F. Chabalowski, and M. J. Frisch.,  J. Phys. Chem. 98, 11623 (1994) (10.1021/j100096a001)

    Deriv               =              1
    GGA                 =           TRUE
    Meta                =          FALSE

    Exchange Hybrid     =           TRUE
    MP2 Hybrid          =          FALSE

   => Exchange Functionals <=

    0.0800   Slater exchange
    0.7200         Becke 88

   => Exact (HF) Exchange <=

    0.2000               HF

   => Correlation Functionals <=

    0.1900   Vosko, Wilk & Nusair (VWN5_RPA)
    0.8100   Lee, Yang & Parr

   => LibXC Density Thresholds  <==

    XC_HYB_GGA_XC_B3LYP:  1.00E-15

   => Molecular Quadrature <=

    Radial Scheme          =       TREUTLER
    Pruning Scheme         =           NONE
    Nuclear Scheme         =       TREUTLER

    Blocking Scheme        =         OCTREE
    BS radius alpha        =              1
    Pruning alpha          =              1
    Radial Points          =             75
    Spherical Points       =            302
    Total Points           =          43619
    Total Blocks           =            390
    Max Points             =            256
    Max Functions          =             28
    Weights Tolerance      =       1.00E-15

  -Total Gradient:
     Atom            X                  Y                   Z
    ------   -----------------  -----------------  -----------------
       1        0.000000000000    -0.000000000000    -0.000045300997
       2        0.000000000000    -0.000000000000    -0.000012392415

*** tstop() called on Joses-MacBook-Pro-2.local at Wed Jul 16 18:51:36 2025
Module time:
	user time   =       0.86 seconds =       0.01 minutes
	system time =       1.24 seconds =       0.02 minutes
	total time  =          0 seconds =       0.00 minutes
Total time:
	user time   =      43.84 seconds =       0.73 minutes
	system time =      86.73 seconds =       1.45 minutes
	total time  =         14 seconds =       0.23 minutes

    			-----------------------------------------

    			 OPTKING 3.0: for geometry optimizations

    			     By R.A. King, Bethel University

    			        with contributions from

    			    A.V. Copan, J. Cayton, A. Heide

    			-----------------------------------------

	                            ===> Fragment 1 <==

	 Z (Atomic Numbers)          Masses                          Geom
	       5.000000            11.009305          0.00000000  0.00000000  2.59069136
	      10.000000            19.992440          0.00000000  0.00000000 -1.42662487

	 - Coordinate -           - BOHR/RAD -       - ANG/DEG -
	 R(1,2)           =         4.017316           2.125872

	        --- Internal Coordinate Step in ANG or DEG, aJ/ANG or AJ/DEG ---
	-------------------------------------------------------------------------------
	           Coordinate      Previous         Force          Change          New
	           ----------      --------        ------          ------        ------
	               R(1,2)       2.12587        0.00014        0.00081       2.12668
	-------------------------------------------------------------------------------

	                                 ==> Convergence Check <==

	Measures of convergence in internal coordinates in au.

	Criteria marked as inactive (o), active & met (*), and active & unmet ( ).

	----------------------------------------------------------------------------------------------
	   Step    Total Energy     Delta E     Max Force     RMS Force      Max Disp      RMS Disp
	----------------------------------------------------------------------------------------------
	  Convergence Criteria     1.00e-06 *    3.00e-04 *             o    1.20e-03 *             o
	----------------------------------------------------------------------------------------------
	    14    -153.44428566   -3.43e-07 *    1.65e-05 *    1.65e-05 o    1.53e-03      1.53e-03 o  ~
	----------------------------------------------------------------------------------------------

Next Geometry in Ang
	Fragment 1 (Ang)

	    B   0.0000000000   0.0000000000   1.3713404957
	   Ne   0.0000000000   0.0000000000  -0.7553430339

    Final optimized geometry and variables:
    Molecular point group: c2v
    Full point group: C_inf_v

    Geometry (in Angstrom), charge = 0, multiplicity = 4:

    B            0.000000000000     0.000000000000     1.370934830092
    NE           0.000000000000     0.000000000000    -0.754937368331

    Psi4 stopped on: Wednesday, 16 July 2025 06:51PM
    Psi4 wall time for execution: 0:00:15.13

*** Psi4 exiting successfully. Buy a developer a beer!
