                               Psi4 1.9.1 release

  ==> Input File <==

--------------------------------------------------------------------------
molecule {
0 4
Al   0.00000        0.60000        0.00000
Ar   0.00000       -0.60000        0.00000
}

set {
basis              cc-pvdz
reference          uks
maxiter            500
geom_maxiter       500
DAMPING_PERCENTAGE 1
guess              SAP
}

optimize('b3lyp')
--------------------------------------------------------------------------

    Molecular point group: c2v
  Charge       = 0
  Multiplicity = 4
  Basis Set: CC-PVDZ
    Blend: CC-PVDZ
  Basis Set: (CC-PVDZ AUX)
    Blend: CC-PVDZ-JKFIT
  @DF-UKS Final Energy:  -768.44295383850897
    Total Energy =                       -768.4429538385089700
 Dipole X            :          0.0000000            0.0000000            0.0000000
 Dipole Y            :          0.0000000            0.0000000            0.0000000
 Dipole Z            :         -3.0358806            1.1464141           -1.8894665
 Magnitude           :                                                    1.8894665
    Molecular point group: c2v
  Basis Set: CC-PVDZ
    Blend: CC-PVDZ
  Basis Set: (CC-PVDZ AUX)
    Blend: CC-PVDZ-JKFIT
  Basis Set: CC-PVDZ
    Blend: CC-PVDZ
  Basis Set: (CC-PVDZ AUX)
    Blend: CC-PVDZ-JKFIT
  @DF-UKS Final Energy:  -768.47947155754866
    Total Energy =                       -768.4794715575486634
  Basis Set: CC-PVDZ
    Blend: CC-PVDZ
  Basis Set: (CC-PVDZ AUX)
    Blend: CC-PVDZ-JKFIT
  Basis Set: CC-PVDZ
    Blend: CC-PVDZ
  @DF-UKS Final Energy:  -768.54787464803383
    Total Energy =                       -768.5478746480337122
  @DF-UKS Final Energy:  -768.77583168450167
    Total Energy =                       -768.7758316845015543
  @DF-UKS Final Energy:  -769.32564241549278
    Total Energy =                       -769.3256424154928936
  @DF-UKS Final Energy:  -769.52082844116990
    Total Energy =                       -769.5208284411700106
  @DF-UKS Final Energy:  -769.64713238777381
    Total Energy =                       -769.6471323877738087
  @DF-UKS Final Energy:  -769.71939397774986
    Total Energy =                       -769.7193939777499736
  @DF-UKS Final Energy:  -769.75581673212571
    Total Energy =                       -769.7558167321257088
  @DF-UKS Final Energy:  -769.77414259941156
    Total Energy =                       -769.7741425994115616
  @DF-UKS Final Energy:  -769.78289286811673
    Total Energy =                       -769.7828928681166190
  @DF-UKS Final Energy:  -769.78682400657522
    Total Energy =                       -769.7868240065752161
  @DF-UKS Final Energy:  -769.78843042232370
    Total Energy =                       -769.7884304223236995
  @DF-UKS Final Energy:  -769.78888764791623
    Total Energy =                       -769.7888876479161127
  @DF-UKS Final Energy:  -769.78909094308267
    Total Energy =                       -769.7890909430826696
  @DF-UKS Final Energy:  -769.78914250910418
    Total Energy =                       -769.7891425091042947
  @DF-UKS Final Energy:  -769.78916106446627
    Total Energy =                       -769.7891610644662705
  Basis Set: (CC-PVDZ AUX)
    Blend: CC-PVDZ-JKFIT
  Basis Set: CC-PVDZ
    Blend: CC-PVDZ
  Basis Set: (CC-PVDZ AUX)
    Blend: CC-PVDZ-JKFIT
  @DF-UKS Final Energy:  -769.78916399000730
    Total Energy =                       -769.7891639900074097
  Basis Set: CC-PVDZ
    Blend: CC-PVDZ
  Basis Set: (CC-PVDZ AUX)
    Blend: CC-PVDZ-JKFIT
  Charge       = 0
  Multiplicity = 4
  Basis Set: CC-PVDZ
    Blend: CC-PVDZ
  Basis Set: (CC-PVDZ AUX)
    Blend: CC-PVDZ-JKFIT

    Orbital Energies [Eh]
    ---------------------

    Alpha Occupied:

       1A1  -115.149430     2A1   -56.109553     3A1   -11.185549
       4A1    -8.736812     1B1    -8.734783     1B2    -8.734783
       5A1    -4.189951     6A1    -2.745303     2B2    -2.741531
       2B1    -2.741531     7A1    -1.013808     8A1    -0.487737
       3B2    -0.466117     3B1    -0.466117     9A1    -0.351273
       4B2    -0.154402     4B1    -0.154402

    Alpha Virtual:

      10A1    -0.076935    11A1     0.147903    12A1     0.187122
       5B2     0.195602     5B1     0.195602     6B1     0.225159
       6B2     0.225159     1A2     0.227622    13A1     0.227622
      14A1     0.273555     7B2     0.583293     7B1     0.583293
      15A1     0.595065    16A1     0.789374     2A2     0.792149
      17A1     0.792170     8B1     0.799673     8B2     0.799673
      18A1     0.999988

    Beta Occupied:

       1A1  -115.148876     2A1   -56.100580     3A1   -11.185006
       4A1    -8.735648     1B1    -8.734233     1B2    -8.734233
       5A1    -4.176905     6A1    -2.737634     2B2    -2.726611
       2B1    -2.726611     7A1    -1.011183     8A1    -0.480397
       3B2    -0.464623     3B1    -0.464623

    Beta Virtual:

       9A1    -0.196870    10A1    -0.026031     4B1    -0.016547
       4B2    -0.016547    11A1     0.187881    12A1     0.217457
       5B1     0.255533     5B2     0.255533     6B1     0.297460
       6B2     0.297460    13A1     0.325705    14A1     0.339575
       1A2     0.339576     7B2     0.587190     7B1     0.587190
      15A1     0.596745    16A1     0.792941     2A2     0.793514
      17A1     0.793535     8B1     0.804111     8B2     0.804111
      18A1     1.011192

    Final Occupation by Irrep:
             A1    A2    B1    B2
    DOCC [     8,    0,    3,    3 ]
    SOCC [     1,    0,    1,    1 ]
    NA   [     9,    0,    4,    4 ]
    NB   [     8,    0,    3,    3 ]

  @DF-UKS Final Energy:  -769.78916445590721

   => Energetics <=

    Nuclear Repulsion Energy =             43.4788269080240042
    One-Electron Energy =               -1150.5980145359280868
    Two-Electron Energy =                 377.1928192545279899
    DFT Exchange-Correlation Energy =     -39.8627960825311618
    Empirical Dispersion Energy =           0.0000000000000000
    VV10 Nonlocal Energy =                  0.0000000000000000
    Total Energy =                       -769.7891644559072120

  UHF NO Occupations:
  HONO-2 :    9 A1 1.0000000
  HONO-1 :    4 B2 1.0000000
  HONO-0 :    4 B1 1.0000000
  LUNO+0 :   10 A1 0.0000881
  LUNO+1 :    5 B2 0.0000064
  LUNO+2 :    5 B1 0.0000064
  LUNO+3 :   11 A1 0.0000013

Computation Completed

Properties will be evaluated at   0.000000,   0.000000,   0.000000 [a0]

Properties computed using the SCF density matrix

 Multipole Moments:

 ------------------------------------------------------------------------------------
     Multipole            Electronic (a.u.)      Nuclear  (a.u.)        Total (a.u.)
 ------------------------------------------------------------------------------------

 L = 1.  Multiply by 2.5417464519 to convert [e a0] to [Debye]
 Dipole X            :          0.0000000            0.0000000            0.0000000
 Dipole Y            :          0.0000000            0.0000000            0.0000000
 Dipole Z            :         -3.2011033            2.7208176           -0.4802858
 Magnitude           :                                                    0.4802858

 ------------------------------------------------------------------------------------

*** tstop() called on Joses-MacBook-Pro-2.local at Wed Jul 16 20:12:12 2025
Module time:
	user time   =       7.14 seconds =       0.12 minutes
	system time =       1.87 seconds =       0.03 minutes
	total time  =          1 seconds =       0.02 minutes
Total time:
	user time   =     239.56 seconds =       3.99 minutes
	system time =      56.38 seconds =       0.94 minutes
	total time  =         28 seconds =       0.47 minutes

*** tstart() called on Joses-MacBook-Pro-2.local
*** at Wed Jul 16 20:12:12 2025

         ------------------------------------------------------------
                                   SCF GRAD
                          Rob Parrish, Justin Turney,
                       Andy Simmonett, and Alex Sokolov
         ------------------------------------------------------------

  ==> Geometry <==

    Molecular point group: c2v
    Full point group: C_inf_v

    Geometry (in Angstrom), charge = 0, multiplicity = 4:

       Center              X                  Y                   Z               Mass
    ------------   -----------------  -----------------  -----------------  -----------------
         AL           0.000000000000     0.000000000000     1.700119313745    26.981538530000
         AR           0.000000000000     0.000000000000    -1.147875356367    39.962383123700

  Nuclear repulsion =   43.478826908024004

  ==> Basis Set <==

  Basis Set: CC-PVDZ
    Blend: CC-PVDZ
    Number of shells: 16
    Number of basis functions: 36
    Number of Cartesian functions: 38
    Spherical Harmonics?: true
    Max angular momentum: 2

  ==> DFJKGrad: Density-Fitted SCF Gradients <==

    Gradient:                    1
    J tasked:                  Yes
    K tasked:                  Yes
    wK tasked:                  No
    OpenMP threads:              1
    Integrals threads:           1
    Memory [MiB]:              375
    Schwarz Cutoff:          1E-12
    Fitting Condition:       1E-10

   => Auxiliary Basis Set <=

  Basis Set: (CC-PVDZ AUX)
    Blend: CC-PVDZ-JKFIT
    Number of shells: 72
    Number of basis functions: 224
    Number of Cartesian functions: 260
    Spherical Harmonics?: true
    Max angular momentum: 3

  ==> DFT Potential <==

   => LibXC <=

    Version 6.2.2
    S. Lehtola, C. Steigemann, M. J.T. Oliveira, and M. A.L. Marques.,  SoftwareX 7, 1â€“5 (2018) (10.1016/j.softx.2017.11.002)

   => Composite Functional: B3LYP <=

    B3LYP Hyb-GGA Exchange-Correlation Functional

    P. J. Stephens, F. J. Devlin, C. F. Chabalowski, and M. J. Frisch.,  J. Phys. Chem. 98, 11623 (1994) (10.1021/j100096a001)

    Deriv               =              1
    GGA                 =           TRUE
    Meta                =          FALSE

    Exchange Hybrid     =           TRUE
    MP2 Hybrid          =          FALSE

   => Exchange Functionals <=

    0.0800   Slater exchange
    0.7200         Becke 88

   => Exact (HF) Exchange <=

    0.2000               HF

   => Correlation Functionals <=

    0.1900   Vosko, Wilk & Nusair (VWN5_RPA)
    0.8100   Lee, Yang & Parr

   => LibXC Density Thresholds  <==

    XC_HYB_GGA_XC_B3LYP:  1.00E-15

   => Molecular Quadrature <=

    Radial Scheme          =       TREUTLER
    Pruning Scheme         =           NONE
    Nuclear Scheme         =       TREUTLER

    Blocking Scheme        =         OCTREE
    BS radius alpha        =              1
    Pruning alpha          =              1
    Radial Points          =             75
    Spherical Points       =            302
    Total Points           =          42714
    Total Blocks           =            407
    Max Points             =            256
    Max Functions          =             36
    Weights Tolerance      =       1.00E-15

  -Total Gradient:
     Atom            X                  Y                   Z
    ------   -----------------  -----------------  -----------------
       1        0.000000000000    -0.000000000000    -0.000007596081
       2        0.000000000000     0.000000000000     0.000054484523

*** tstop() called on Joses-MacBook-Pro-2.local at Wed Jul 16 20:12:12 2025
Module time:
	user time   =       2.71 seconds =       0.05 minutes
	system time =       1.05 seconds =       0.02 minutes
	total time  =          0 seconds =       0.00 minutes
Total time:
	user time   =     242.28 seconds =       4.04 minutes
	system time =      57.44 seconds =       0.96 minutes
	total time  =         28 seconds =       0.47 minutes

    			-----------------------------------------

    			 OPTKING 3.0: for geometry optimizations

    			     By R.A. King, Bethel University

    			        with contributions from

    			    A.V. Copan, J. Cayton, A. Heide

    			-----------------------------------------

	                            ===> Fragment 1 <==

	 Z (Atomic Numbers)          Masses                          Geom
	      13.000000            26.981539          0.00000000  0.00000000  3.21275988
	      18.000000            39.962383          0.00000000  0.00000000 -2.16917005

	 - Coordinate -           - BOHR/RAD -       - ANG/DEG -
	 R(1,2)           =         5.381930           2.847995

	        --- Internal Coordinate Step in ANG or DEG, aJ/ANG or AJ/DEG ---
	-------------------------------------------------------------------------------
	           Coordinate      Previous         Force          Change          New
	           ----------      --------        ------          ------        ------
	               R(1,2)       2.84799        0.00026        0.00200       2.84999
	-------------------------------------------------------------------------------

	                                 ==> Convergence Check <==

	Measures of convergence in internal coordinates in au.

	Criteria marked as inactive (o), active & met (*), and active & unmet ( ).

	----------------------------------------------------------------------------------------------
	   Step    Total Energy     Delta E     Max Force     RMS Force      Max Disp      RMS Disp
	----------------------------------------------------------------------------------------------
	  Convergence Criteria     1.00e-06 *    3.00e-04 *             o    1.20e-03 *             o
	----------------------------------------------------------------------------------------------
	    19    -769.78916446   -4.66e-07 *    3.10e-05 *    3.10e-05 o    3.78e-03      3.78e-03 o  ~
	----------------------------------------------------------------------------------------------

Next Geometry in Ang
	Fragment 1 (Ang)

	   Al   0.0000000000   0.0000000000   1.7011184846
	   Ar   0.0000000000   0.0000000000  -1.1488745273

    Final optimized geometry and variables:
    Molecular point group: c2v
    Full point group: C_inf_v

    Geometry (in Angstrom), charge = 0, multiplicity = 4:

    AL           0.000000000000     0.000000000000     1.700119313745
    AR           0.000000000000     0.000000000000    -1.147875356367

    Psi4 stopped on: Wednesday, 16 July 2025 08:12PM
    Psi4 wall time for execution: 0:00:29.37

*** Psi4 exiting successfully. Buy a developer a beer!
