                               Psi4 1.9.1 release

  ==> Input File <==

--------------------------------------------------------------------------
molecule {
0 4
Be   0.00000        0.60000        0.00000
F   0.00000       -0.60000        0.00000
}

set {
basis              cc-pvdz
reference          uks
maxiter            500
geom_maxiter       500
DAMPING_PERCENTAGE 1
guess              SAP
}

optimize('b3lyp')
--------------------------------------------------------------------------

    Molecular point group: c2v
  Charge       = 0
  Multiplicity = 4
  Basis Set: CC-PVDZ
    Blend: CC-PVDZ
  Basis Set: (CC-PVDZ AUX)
    Blend: CC-PVDZ-JKFIT + DEF2-UNIVERSAL-JKFIT
  @DF-UKS Final Energy:  -114.14628503124388
    Total Energy =                       -114.1462850312438775
 Dipole X            :          0.0000000            0.0000000            0.0000000
 Dipole Y            :          0.0000000            0.0000000            0.0000000
 Dipole Z            :         -0.7755963           -0.4141822           -1.1897785
 Magnitude           :                                                    1.1897785
    Molecular point group: c2v
  Basis Set: CC-PVDZ
    Blend: CC-PVDZ
  Basis Set: (CC-PVDZ AUX)
    Blend: CC-PVDZ-JKFIT + DEF2-UNIVERSAL-JKFIT
  Basis Set: CC-PVDZ
    Blend: CC-PVDZ
  Basis Set: (CC-PVDZ AUX)
    Blend: CC-PVDZ-JKFIT + DEF2-UNIVERSAL-JKFIT
  @DF-UKS Final Energy:  -114.25029238089080
    Total Energy =                       -114.2502923808907980
  Basis Set: CC-PVDZ
    Blend: CC-PVDZ
  Basis Set: (CC-PVDZ AUX)
    Blend: CC-PVDZ-JKFIT + DEF2-UNIVERSAL-JKFIT
  Basis Set: CC-PVDZ
    Blend: CC-PVDZ
  @DF-UKS Final Energy:  -114.27929365712828
    Total Energy =                       -114.2792936571282780
  @DF-UKS Final Energy:  -114.29715781331709
    Total Energy =                       -114.2971578133170851
  @DF-UKS Final Energy:  -114.30367856081624
    Total Energy =                       -114.3036785608162376
  @DF-UKS Final Energy:  -114.30766196252668
    Total Energy =                       -114.3076619625266801
  @DF-UKS Final Energy:  -114.31008965770697
    Total Energy =                       -114.3100896577069676
  @DF-UKS Final Energy:  -114.31130672258280
    Total Energy =                       -114.3113067225827990
  @DF-UKS Final Energy:  -114.31190001542174
    Total Energy =                       -114.3119000154217559
  @DF-UKS Final Energy:  -114.31216058674549
    Total Energy =                       -114.3121605867454917
  @DF-UKS Final Energy:  -114.31223616111420
    Total Energy =                       -114.3122361611142139
  @DF-UKS Final Energy:  -114.31226655441776
    Total Energy =                       -114.3122665544177607
  @DF-UKS Final Energy:  -114.31227354969998
    Total Energy =                       -114.3122735496999809
  Basis Set: (CC-PVDZ AUX)
    Blend: CC-PVDZ-JKFIT + DEF2-UNIVERSAL-JKFIT
  Basis Set: CC-PVDZ
    Blend: CC-PVDZ
  Basis Set: (CC-PVDZ AUX)
    Blend: CC-PVDZ-JKFIT + DEF2-UNIVERSAL-JKFIT
  @DF-UKS Final Energy:  -114.31227562189407
    Total Energy =                       -114.3122756218940879
  Basis Set: CC-PVDZ
    Blend: CC-PVDZ
  Basis Set: (CC-PVDZ AUX)
    Blend: CC-PVDZ-JKFIT + DEF2-UNIVERSAL-JKFIT
  Charge       = 0
  Multiplicity = 4
  Basis Set: CC-PVDZ
    Blend: CC-PVDZ
  Basis Set: (CC-PVDZ AUX)
    Blend: CC-PVDZ-JKFIT + DEF2-UNIVERSAL-JKFIT

    Orbital Energies [Eh]
    ---------------------

    Alpha Occupied:

       1A1   -24.858454     2A1    -4.100612     3A1    -1.283889
       1B1    -0.607240     4A1    -0.533492     1B2    -0.517561
       5A1    -0.248042     2B2    -0.127741

    Alpha Virtual:

       2B1    -0.059500     6A1    -0.028444     3B2     0.172133
       7A1     0.181662     3B1     0.189870     8A1     0.191157
       1A2     0.449085     4B2     0.449713     9A1     0.457660
       4B1     0.461233    10A1     0.523327     5B1     1.041794
       5B2     1.095772    11A1     1.145338    12A1     1.723869
      13A1     3.376777     2A2     3.393796     6B1     3.395948
       6B2     3.465859    14A1     3.483739

    Beta Occupied:

       1A1   -24.825748     2A1    -4.082433     3A1    -1.189505
       4A1    -0.496293     1B2    -0.482972

    Beta Virtual:

       1B1    -0.311968     5A1    -0.103311     2B1    -0.003512
       2B2     0.021759     6A1     0.022828     7A1     0.205710
       3B1     0.216702     8A1     0.234651     3B2     0.241478
       4B1     0.518265     4B2     0.545207     9A1     0.547103
       1A2     0.553948    10A1     0.593726     5B2     1.119455
       5B1     1.149768    11A1     1.168849    12A1     1.773785
       6B2     3.484789     2A2     3.490656     6B1     3.494490
      13A1     3.494921    14A1     3.523459

    Final Occupation by Irrep:
             A1    A2    B1    B2
    DOCC [     4,    0,    0,    1 ]
    SOCC [     1,    0,    1,    1 ]
    NA   [     5,    0,    1,    2 ]
    NB   [     4,    0,    0,    1 ]

  @DF-UKS Final Energy:  -114.31227599997604

   => Energetics <=

    Nuclear Repulsion Energy =              8.3682832366159108
    One-Electron Energy =                -174.3648188071035179
    Two-Electron Energy =                  62.3160390820038543
    DFT Exchange-Correlation Energy =     -10.6317795114922955
    Empirical Dispersion Energy =           0.0000000000000000
    VV10 Nonlocal Energy =                  0.0000000000000000
    Total Energy =                       -114.3122759999760376

  UHF NO Occupations:
  HONO-2 :    2 B2 1.0000000
  HONO-1 :    1 B1 1.0000000
  HONO-0 :    5 A1 1.0000000
  LUNO+0 :    6 A1 0.0003936
  LUNO+1 :    7 A1 0.0001673
  LUNO+2 :    3 B2 0.0000921
  LUNO+3 :    8 A1 0.0000005

Computation Completed

Properties will be evaluated at   0.000000,   0.000000,   0.000000 [a0]

Properties computed using the SCF density matrix

 Multipole Moments:

 ------------------------------------------------------------------------------------
     Multipole            Electronic (a.u.)      Nuclear  (a.u.)        Total (a.u.)
 ------------------------------------------------------------------------------------

 L = 1.  Multiply by 2.5417464519 to convert [e a0] to [Debye]
 Dipole X            :          0.0000000            0.0000000            0.0000000
 Dipole Y            :          0.0000000            0.0000000            0.0000000
 Dipole Z            :          0.2675580           -0.7857374           -0.5181794
 Magnitude           :                                                    0.5181794

 ------------------------------------------------------------------------------------

*** tstop() called on Joses-MacBook-Pro-2.local at Wed Jul 16 18:41:33 2025
Module time:
	user time   =       2.35 seconds =       0.04 minutes
	system time =       3.10 seconds =       0.05 minutes
	total time  =          0 seconds =       0.00 minutes
Total time:
	user time   =      57.28 seconds =       0.95 minutes
	system time =      66.38 seconds =       1.11 minutes
	total time  =         11 seconds =       0.18 minutes

*** tstart() called on Joses-MacBook-Pro-2.local
*** at Wed Jul 16 18:41:33 2025

         ------------------------------------------------------------
                                   SCF GRAD
                          Rob Parrish, Justin Turney,
                       Andy Simmonett, and Alex Sokolov
         ------------------------------------------------------------

  ==> Geometry <==

    Molecular point group: c2v
    Full point group: C_inf_v

    Geometry (in Angstrom), charge = 0, multiplicity = 4:

       Center              X                  Y                   Z               Mass
    ------------   -----------------  -----------------  -----------------  -----------------
         BE           0.000000000000     0.000000000000     1.544052858810     9.012183065000
         F            0.000000000000     0.000000000000    -0.732445085328    18.998403162730

  Nuclear repulsion =    8.368283236615911

  ==> Basis Set <==

  Basis Set: CC-PVDZ
    Blend: CC-PVDZ
    Number of shells: 12
    Number of basis functions: 28
    Number of Cartesian functions: 30
    Spherical Harmonics?: true
    Max angular momentum: 2

  ==> DFJKGrad: Density-Fitted SCF Gradients <==

    Gradient:                    1
    J tasked:                  Yes
    K tasked:                  Yes
    wK tasked:                  No
    OpenMP threads:              1
    Integrals threads:           1
    Memory [MiB]:              375
    Schwarz Cutoff:          1E-12
    Fitting Condition:       1E-10

   => Auxiliary Basis Set <=

  Basis Set: (CC-PVDZ AUX)
    Blend: CC-PVDZ-JKFIT + DEF2-UNIVERSAL-JKFIT
    Number of shells: 41
    Number of basis functions: 121
    Number of Cartesian functions: 141
    Spherical Harmonics?: true
    Max angular momentum: 3

  ==> DFT Potential <==

   => LibXC <=

    Version 6.2.2
    S. Lehtola, C. Steigemann, M. J.T. Oliveira, and M. A.L. Marques.,  SoftwareX 7, 1â€“5 (2018) (10.1016/j.softx.2017.11.002)

   => Composite Functional: B3LYP <=

    B3LYP Hyb-GGA Exchange-Correlation Functional

    P. J. Stephens, F. J. Devlin, C. F. Chabalowski, and M. J. Frisch.,  J. Phys. Chem. 98, 11623 (1994) (10.1021/j100096a001)

    Deriv               =              1
    GGA                 =           TRUE
    Meta                =          FALSE

    Exchange Hybrid     =           TRUE
    MP2 Hybrid          =          FALSE

   => Exchange Functionals <=

    0.0800   Slater exchange
    0.7200         Becke 88

   => Exact (HF) Exchange <=

    0.2000               HF

   => Correlation Functionals <=

    0.1900   Vosko, Wilk & Nusair (VWN5_RPA)
    0.8100   Lee, Yang & Parr

   => LibXC Density Thresholds  <==

    XC_HYB_GGA_XC_B3LYP:  1.00E-15

   => Molecular Quadrature <=

    Radial Scheme          =       TREUTLER
    Pruning Scheme         =           NONE
    Nuclear Scheme         =       TREUTLER

    Blocking Scheme        =         OCTREE
    BS radius alpha        =              1
    Pruning alpha          =              1
    Radial Points          =             75
    Spherical Points       =            302
    Total Points           =          43617
    Total Blocks           =            400
    Max Points             =            256
    Max Functions          =             28
    Weights Tolerance      =       1.00E-15

  -Total Gradient:
     Atom            X                  Y                   Z
    ------   -----------------  -----------------  -----------------
       1       -0.000000000000    -0.000000000000    -0.000035275752
       2       -0.000000000000     0.000000000000    -0.000009764107

*** tstop() called on Joses-MacBook-Pro-2.local at Wed Jul 16 18:41:33 2025
Module time:
	user time   =       0.55 seconds =       0.01 minutes
	system time =       1.02 seconds =       0.02 minutes
	total time  =          0 seconds =       0.00 minutes
Total time:
	user time   =      57.83 seconds =       0.96 minutes
	system time =      67.40 seconds =       1.12 minutes
	total time  =         11 seconds =       0.18 minutes

    			-----------------------------------------

    			 OPTKING 3.0: for geometry optimizations

    			     By R.A. King, Bethel University

    			        with contributions from

    			    A.V. Copan, J. Cayton, A. Heide

    			-----------------------------------------

	                            ===> Fragment 1 <==

	 Z (Atomic Numbers)          Masses                          Geom
	       4.000000             9.012183          0.00000000  0.00000000  2.91783703
	       9.000000            18.998403          0.00000000  0.00000000 -1.38412061

	 - Coordinate -           - BOHR/RAD -       - ANG/DEG -
	 R(1,2)           =         4.301958           2.276498

	        --- Internal Coordinate Step in ANG or DEG, aJ/ANG or AJ/DEG ---
	-------------------------------------------------------------------------------
	           Coordinate      Previous         Force          Change          New
	           ----------      --------        ------          ------        ------
	               R(1,2)       2.27650        0.00011        0.00107       2.27757
	-------------------------------------------------------------------------------

	                                 ==> Convergence Check <==

	Measures of convergence in internal coordinates in au.

	Criteria marked as inactive (o), active & met (*), and active & unmet ( ).

	----------------------------------------------------------------------------------------------
	   Step    Total Energy     Delta E     Max Force     RMS Force      Max Disp      RMS Disp
	----------------------------------------------------------------------------------------------
	  Convergence Criteria     1.00e-06 *    3.00e-04 *             o    1.20e-03 *             o
	----------------------------------------------------------------------------------------------
	    15    -114.31227600   -3.78e-07 *    1.28e-05 *    1.28e-05 o    2.03e-03      2.03e-03 o  ~
	----------------------------------------------------------------------------------------------

Next Geometry in Ang
	Fragment 1 (Ang)

	   Be   0.0000000000   0.0000000000   1.5445896709
	    F   0.0000000000   0.0000000000  -0.7329818975

    Final optimized geometry and variables:
    Molecular point group: c2v
    Full point group: C_inf_v

    Geometry (in Angstrom), charge = 0, multiplicity = 4:

    BE           0.000000000000     0.000000000000     1.544052858810
    F            0.000000000000     0.000000000000    -0.732445085328

    Psi4 stopped on: Wednesday, 16 July 2025 06:41PM
    Psi4 wall time for execution: 0:00:12.36

*** Psi4 exiting successfully. Buy a developer a beer!
