                               Psi4 1.9.1 release

  ==> Input File <==

--------------------------------------------------------------------------
molecule {
0 4
Ne   0.00000        0.60000        0.00000
Na   0.00000       -0.60000        0.00000
}

set {
basis              cc-pvdz
reference          uks
maxiter            500
geom_maxiter       500
DAMPING_PERCENTAGE 1
guess              SAP
}

optimize('b3lyp')
--------------------------------------------------------------------------

    Molecular point group: c2v
  Charge       = 0
  Multiplicity = 4
  Basis Set: CC-PVDZ
    Blend: CC-PVDZ
  Basis Set: (CC-PVDZ AUX)
    Blend: CC-PVDZ-JKFIT + DEF2-UNIVERSAL-JKFIT
  @DF-UKS Final Energy:  -290.11680776020648
    Total Energy =                       -290.1168077602064841
 Dipole X            :          0.0000000            0.0000000            0.0000000
 Dipole Y            :          0.0000000            0.0000000            0.0000000
 Dipole Z            :          0.1411546            0.5265734            0.6677281
 Magnitude           :                                                    0.6677281
    Molecular point group: c2v
  Basis Set: CC-PVDZ
    Blend: CC-PVDZ
  Basis Set: (CC-PVDZ AUX)
    Blend: CC-PVDZ-JKFIT + DEF2-UNIVERSAL-JKFIT
  Basis Set: CC-PVDZ
    Blend: CC-PVDZ
  Basis Set: (CC-PVDZ AUX)
    Blend: CC-PVDZ-JKFIT + DEF2-UNIVERSAL-JKFIT
  @DF-UKS Final Energy:  -290.27079274638061
    Total Energy =                       -290.2707927463806641
  Basis Set: CC-PVDZ
    Blend: CC-PVDZ
  Basis Set: (CC-PVDZ AUX)
    Blend: CC-PVDZ-JKFIT + DEF2-UNIVERSAL-JKFIT
  Basis Set: CC-PVDZ
    Blend: CC-PVDZ
  @DF-UKS Final Energy:  -290.37244816658244
    Total Energy =                       -290.3724481665823873
  @DF-UKS Final Energy:  -290.42471638263299
    Total Energy =                       -290.4247163826329938
  @DF-UKS Final Energy:  -290.46185038962142
    Total Energy =                       -290.4618503896214179
  @DF-UKS Final Energy:  -290.49081184734644
    Total Energy =                       -290.4908118473464356
  @DF-UKS Final Energy:  -290.51840218003497
    Total Energy =                       -290.5184021800349115
  @DF-UKS Final Energy:  -290.53706646869614
    Total Energy =                       -290.5370664686961959
  @DF-UKS Final Energy:  -290.54724877408404
    Total Energy =                       -290.5472487740840961
  @DF-UKS Final Energy:  -290.54774234707929
    Total Energy =                       -290.5477423470792928
  @DF-UKS Final Energy:  -290.55094917589503
    Total Energy =                       -290.5509491758950276
  @DF-UKS Final Energy:  -290.55130231531484
    Total Energy =                       -290.5513023153148424
  Basis Set: (CC-PVDZ AUX)
    Blend: CC-PVDZ-JKFIT + DEF2-UNIVERSAL-JKFIT
  Basis Set: CC-PVDZ
    Blend: CC-PVDZ
  Basis Set: (CC-PVDZ AUX)
    Blend: CC-PVDZ-JKFIT + DEF2-UNIVERSAL-JKFIT
  @DF-UKS Final Energy:  -290.55132456318921
    Total Energy =                       -290.5513245631892119
  Basis Set: CC-PVDZ
    Blend: CC-PVDZ
  Basis Set: (CC-PVDZ AUX)
    Blend: CC-PVDZ-JKFIT + DEF2-UNIVERSAL-JKFIT
  Charge       = 0
  Multiplicity = 4
  Basis Set: CC-PVDZ
    Blend: CC-PVDZ
  Basis Set: (CC-PVDZ AUX)
    Blend: CC-PVDZ-JKFIT + DEF2-UNIVERSAL-JKFIT

    Orbital Energies [Eh]
    ---------------------

    Alpha Occupied:

       1A1   -38.480042     2A1   -31.645917     3A1    -2.227946
       4A1    -2.014719     5A1    -1.187778     6A1    -1.160585
       1B1    -1.159059     1B2    -1.157436     2B1    -1.077256
       2B2    -1.076620     7A1    -0.165425     3B2    -0.066428

    Alpha Virtual:

       8A1    -0.040076     3B1    -0.027080     9A1     0.014263
       4B2     0.060031    10A1     0.067471     4B1     0.072684
       5B2     0.140571    11A1     0.150746     5B1     0.150956
       1A2     0.157700    12A1     0.166961    13A1     0.984733
       6B1     0.986934     6B2     0.988481    14A1     1.574112
      15A1     4.086871     7B1     4.111823     7B2     4.112394
       2A2     4.193932    16A1     4.194876

    Beta Occupied:

       1A1   -38.478391     2A1   -31.604806     3A1    -2.224937
       4A1    -1.905093     5A1    -1.158273     1B1    -1.157453
       1B2    -1.154219     2B1    -1.036679     2B2    -1.035539

    Beta Virtual:

       6A1    -0.825586     7A1    -0.084531     8A1    -0.028105
       3B1    -0.002862     3B2     0.004302     9A1     0.048937
      10A1     0.077920     4B1     0.088031     4B2     0.096699
       5B1     0.163975    11A1     0.171902     5B2     0.174102
       1A2     0.193839    12A1     0.197139     6B1     1.006643
       6B2     1.009280    13A1     1.092428    14A1     1.632223
       2A2     4.213757    15A1     4.214619     7B1     4.226781
       7B2     4.227514    16A1     4.251415

    Final Occupation by Irrep:
             A1    A2    B1    B2
    DOCC [     5,    0,    2,    2 ]
    SOCC [     2,    0,    0,    1 ]
    NA   [     7,    0,    2,    3 ]
    NB   [     5,    0,    2,    2 ]

  @DF-UKS Final Energy:  -290.55132502223364

   => Energetics <=

    Nuclear Repulsion Energy =             19.8249558806711228
    One-Electron Energy =                -444.2566630234492777
    Two-Electron Energy =                 155.2899004330396338
    DFT Exchange-Correlation Energy =     -21.4095183124951127
    Empirical Dispersion Energy =           0.0000000000000000
    VV10 Nonlocal Energy =                  0.0000000000000000
    Total Energy =                       -290.5513250222336410

  UHF NO Occupations:
  HONO-2 :    3 B2 1.0000000
  HONO-1 :    6 A1 1.0000000
  HONO-0 :    7 A1 1.0000000
  LUNO+0 :    8 A1 0.0002630
  LUNO+1 :    4 B2 0.0000472
  LUNO+2 :    3 B1 0.0000462
  LUNO+3 :    9 A1 0.0000007

Computation Completed

Properties will be evaluated at   0.000000,   0.000000,   0.000000 [a0]

Properties computed using the SCF density matrix

 Multipole Moments:

 ------------------------------------------------------------------------------------
     Multipole            Electronic (a.u.)      Nuclear  (a.u.)        Total (a.u.)
 ------------------------------------------------------------------------------------

 L = 1.  Multiply by 2.5417464519 to convert [e a0] to [Debye]
 Dipole X            :          0.0000000            0.0000000            0.0000000
 Dipole Y            :          0.0000000            0.0000000            0.0000000
 Dipole Z            :          1.4172972            1.2884254            2.7057227
 Magnitude           :                                                    2.7057227

 ------------------------------------------------------------------------------------

*** tstop() called on Joses-MacBook-Pro-2.local at Wed Jul 16 19:33:05 2025
Module time:
	user time   =       2.99 seconds =       0.05 minutes
	system time =       2.93 seconds =       0.05 minutes
	total time  =          1 seconds =       0.02 minutes
Total time:
	user time   =      64.85 seconds =       1.08 minutes
	system time =      69.14 seconds =       1.15 minutes
	total time  =         13 seconds =       0.22 minutes

*** tstart() called on Joses-MacBook-Pro-2.local
*** at Wed Jul 16 19:33:05 2025

         ------------------------------------------------------------
                                   SCF GRAD
                          Rob Parrish, Justin Turney,
                       Andy Simmonett, and Alex Sokolov
         ------------------------------------------------------------

  ==> Geometry <==

    Molecular point group: c2v
    Full point group: C_inf_v

    Geometry (in Angstrom), charge = 0, multiplicity = 4:

       Center              X                  Y                   Z               Mass
    ------------   -----------------  -----------------  -----------------  -----------------
         NE           0.000000000000     0.000000000000     1.570462118273    19.992440176200
         NA           0.000000000000     0.000000000000    -1.365710528167    22.989769282000

  Nuclear repulsion =   19.824955880671126

  ==> Basis Set <==

  Basis Set: CC-PVDZ
    Blend: CC-PVDZ
    Number of shells: 14
    Number of basis functions: 32
    Number of Cartesian functions: 34
    Spherical Harmonics?: true
    Max angular momentum: 2

  ==> DFJKGrad: Density-Fitted SCF Gradients <==

    Gradient:                    1
    J tasked:                  Yes
    K tasked:                  Yes
    wK tasked:                  No
    OpenMP threads:              1
    Integrals threads:           1
    Memory [MiB]:              375
    Schwarz Cutoff:          1E-12
    Fitting Condition:       1E-10

   => Auxiliary Basis Set <=

  Basis Set: (CC-PVDZ AUX)
    Blend: CC-PVDZ-JKFIT + DEF2-UNIVERSAL-JKFIT
    Number of shells: 58
    Number of basis functions: 182
    Number of Cartesian functions: 218
    Spherical Harmonics?: true
    Max angular momentum: 4

  ==> DFT Potential <==

   => LibXC <=

    Version 6.2.2
    S. Lehtola, C. Steigemann, M. J.T. Oliveira, and M. A.L. Marques.,  SoftwareX 7, 1â€“5 (2018) (10.1016/j.softx.2017.11.002)

   => Composite Functional: B3LYP <=

    B3LYP Hyb-GGA Exchange-Correlation Functional

    P. J. Stephens, F. J. Devlin, C. F. Chabalowski, and M. J. Frisch.,  J. Phys. Chem. 98, 11623 (1994) (10.1021/j100096a001)

    Deriv               =              1
    GGA                 =           TRUE
    Meta                =          FALSE

    Exchange Hybrid     =           TRUE
    MP2 Hybrid          =          FALSE

   => Exchange Functionals <=

    0.0800   Slater exchange
    0.7200         Becke 88

   => Exact (HF) Exchange <=

    0.2000               HF

   => Correlation Functionals <=

    0.1900   Vosko, Wilk & Nusair (VWN5_RPA)
    0.8100   Lee, Yang & Parr

   => LibXC Density Thresholds  <==

    XC_HYB_GGA_XC_B3LYP:  1.00E-15

   => Molecular Quadrature <=

    Radial Scheme          =       TREUTLER
    Pruning Scheme         =           NONE
    Nuclear Scheme         =       TREUTLER

    Blocking Scheme        =         OCTREE
    BS radius alpha        =              1
    Pruning alpha          =              1
    Radial Points          =             75
    Spherical Points       =            302
    Total Points           =          43846
    Total Blocks           =            422
    Max Points             =            252
    Max Functions          =             32
    Weights Tolerance      =       1.00E-15

  -Total Gradient:
     Atom            X                  Y                   Z
    ------   -----------------  -----------------  -----------------
       1        0.000000000000     0.000000000000     0.000007568754
       2       -0.000000000000     0.000000000000     0.000017644918

*** tstop() called on Joses-MacBook-Pro-2.local at Wed Jul 16 19:33:05 2025
Module time:
	user time   =       0.69 seconds =       0.01 minutes
	system time =       1.84 seconds =       0.03 minutes
	total time  =          0 seconds =       0.00 minutes
Total time:
	user time   =      65.54 seconds =       1.09 minutes
	system time =      70.98 seconds =       1.18 minutes
	total time  =         13 seconds =       0.22 minutes

    			-----------------------------------------

    			 OPTKING 3.0: for geometry optimizations

    			     By R.A. King, Bethel University

    			        with contributions from

    			    A.V. Copan, J. Cayton, A. Heide

    			-----------------------------------------

	                            ===> Fragment 1 <==

	 Z (Atomic Numbers)          Masses                          Geom
	      10.000000            19.992440          0.00000000  0.00000000  2.96774329
	      11.000000            22.989769          0.00000000  0.00000000 -2.58081886

	 - Coordinate -           - BOHR/RAD -       - ANG/DEG -
	 R(1,2)           =         5.548562           2.936173

	        --- Internal Coordinate Step in ANG or DEG, aJ/ANG or AJ/DEG ---
	-------------------------------------------------------------------------------
	           Coordinate      Previous         Force          Change          New
	           ----------      --------        ------          ------        ------
	               R(1,2)       2.93617        0.00004        0.00015       2.93633
	-------------------------------------------------------------------------------

	                                 ==> Convergence Check <==

	Measures of convergence in internal coordinates in au.

	Criteria marked as inactive (o), active & met (*), and active & unmet ( ).

	----------------------------------------------------------------------------------------------
	   Step    Total Energy     Delta E     Max Force     RMS Force      Max Disp      RMS Disp
	----------------------------------------------------------------------------------------------
	  Convergence Criteria     1.00e-06 *    3.00e-04 *             o    1.20e-03 *             o
	----------------------------------------------------------------------------------------------
	    14    -290.55132502   -4.59e-07 *    5.04e-06 *    5.04e-06 o    2.93e-04 *    2.93e-04 o  ~
	----------------------------------------------------------------------------------------------

Next Geometry in Ang
	Fragment 1 (Ang)

	   Ne   0.0000000000   0.0000000000   1.5705395178
	   Na   0.0000000000   0.0000000000  -1.3657879277

    Final optimized geometry and variables:
    Molecular point group: c2v
    Full point group: C_inf_v

    Geometry (in Angstrom), charge = 0, multiplicity = 4:

    NE           0.000000000000     0.000000000000     1.570462118273
    NA           0.000000000000     0.000000000000    -1.365710528167

    Psi4 stopped on: Wednesday, 16 July 2025 07:33PM
    Psi4 wall time for execution: 0:00:13.83

*** Psi4 exiting successfully. Buy a developer a beer!
