                               Psi4 1.9.1 release

  ==> Input File <==

--------------------------------------------------------------------------
molecule {
0 4
Na   0.00000        0.60000        0.00000
Si   0.00000       -0.60000        0.00000
}

set {
basis              cc-pvdz
reference          uks
maxiter            500
geom_maxiter       500
DAMPING_PERCENTAGE 1
guess              SAP
}

optimize('b3lyp')
--------------------------------------------------------------------------

    Molecular point group: c2v
  Charge       = 0
  Multiplicity = 4
  Basis Set: CC-PVDZ
    Blend: CC-PVDZ
  Basis Set: (CC-PVDZ AUX)
    Blend: CC-PVDZ-JKFIT + DEF2-UNIVERSAL-JKFIT
  @DF-UKS Final Energy:  -450.91746493782188
    Total Energy =                       -450.9174649378218760
 Dipole X            :          0.0000000            0.0000000            0.0000000
 Dipole Y            :          0.0000000            0.0000000            0.0000000
 Dipole Z            :          1.1555708           -0.6278248            0.5277461
 Magnitude           :                                                    0.5277461
    Molecular point group: c2v
  Basis Set: CC-PVDZ
    Blend: CC-PVDZ
  Basis Set: (CC-PVDZ AUX)
    Blend: CC-PVDZ-JKFIT + DEF2-UNIVERSAL-JKFIT
  Basis Set: CC-PVDZ
    Blend: CC-PVDZ
  Basis Set: (CC-PVDZ AUX)
    Blend: CC-PVDZ-JKFIT + DEF2-UNIVERSAL-JKFIT
  @DF-UKS Final Energy:  -450.92596703994116
    Total Energy =                       -450.9259670399411561
  Basis Set: CC-PVDZ
    Blend: CC-PVDZ
  Basis Set: (CC-PVDZ AUX)
    Blend: CC-PVDZ-JKFIT + DEF2-UNIVERSAL-JKFIT
  Basis Set: CC-PVDZ
    Blend: CC-PVDZ
  @DF-UKS Final Energy:  -450.94242727940667
    Total Energy =                       -450.9424272794066724
  @DF-UKS Final Energy:  -451.00264227150313
    Total Energy =                       -451.0026422715031345
  @DF-UKS Final Energy:  -451.28640358984137
    Total Energy =                       -451.2864035898413704
  @DF-UKS Final Energy:  -451.46296243784025
    Total Energy =                       -451.4629624378402468
  @DF-UKS Final Energy:  -451.59509587047228
    Total Energy =                       -451.5950958704722780
  @DF-UKS Final Energy:  -451.66869144057512
    Total Energy =                       -451.6686914405751168
  @DF-UKS Final Energy:  -451.70214228670301
    Total Energy =                       -451.7021422867030083
  @DF-UKS Final Energy:  -451.71601392025264
    Total Energy =                       -451.7160139202526352
  @DF-UKS Final Energy:  -451.72122552365340
    Total Energy =                       -451.7212255236534020
  @DF-UKS Final Energy:  -451.72268101547354
    Total Energy =                       -451.7226810154735404
  @DF-UKS Final Energy:  -451.72287884912203
    Total Energy =                       -451.7228788491220257
  @DF-UKS Final Energy:  -451.72291073836254
    Total Energy =                       -451.7229107383625433
  Basis Set: (CC-PVDZ AUX)
    Blend: CC-PVDZ-JKFIT + DEF2-UNIVERSAL-JKFIT
  Basis Set: CC-PVDZ
    Blend: CC-PVDZ
  Basis Set: (CC-PVDZ AUX)
    Blend: CC-PVDZ-JKFIT + DEF2-UNIVERSAL-JKFIT
  @DF-UKS Final Energy:  -451.72291236370660
    Total Energy =                       -451.7229123637065982
  Basis Set: CC-PVDZ
    Blend: CC-PVDZ
  Basis Set: (CC-PVDZ AUX)
    Blend: CC-PVDZ-JKFIT + DEF2-UNIVERSAL-JKFIT
  Charge       = 0
  Multiplicity = 4
  Basis Set: CC-PVDZ
    Blend: CC-PVDZ
  Basis Set: (CC-PVDZ AUX)
    Blend: CC-PVDZ-JKFIT + DEF2-UNIVERSAL-JKFIT

    Orbital Energies [Eh]
    ---------------------

    Alpha Occupied:

       1A1   -66.093923     2A1   -38.514180     3A1    -5.238051
       4A1    -3.598138     1B2    -3.597011     1B1    -3.597011
       5A1    -2.259782     6A1    -1.190784     2B1    -1.190718
       2B2    -1.190718     7A1    -0.410326     8A1    -0.170540
       3B1    -0.146957     3B2    -0.146957

    Alpha Virtual:

       9A1    -0.070497     4B1    -0.008118     4B2    -0.008118
      10A1     0.012657    11A1     0.047332     5B1     0.069043
       5B2     0.069043    12A1     0.118323     1A2     0.151901
      13A1     0.151902     6B1     0.165419     6B2     0.165419
      14A1     0.227870     7B2     0.364211     7B1     0.364211
      15A1     0.384945     2A2     0.403409    16A1     0.403412
      17A1     0.416148     8B2     0.488804     8B1     0.488804
      18A1     0.687994

    Beta Occupied:

       1A1   -66.087069     2A1   -38.513105     3A1    -5.230266
       4A1    -3.588290     1B2    -3.585265     1B1    -3.585265
       5A1    -2.257786     2B1    -1.189257     2B2    -1.189257
       6A1    -1.189192     7A1    -0.329373

    Beta Virtual:

       8A1    -0.092924     3B1    -0.045082     3B2    -0.045082
       9A1    -0.038353     4B2     0.011379     4B1     0.011379
      10A1     0.022234    11A1     0.052677     5B1     0.077977
       5B2     0.077977    12A1     0.135227    13A1     0.166262
       1A2     0.166262     6B1     0.190696     6B2     0.190696
      14A1     0.255968     7B2     0.403601     7B1     0.403601
      15A1     0.429530    16A1     0.445011     2A2     0.474726
      17A1     0.474731     8B2     0.543947     8B1     0.543947
      18A1     0.723924

    Final Occupation by Irrep:
             A1    A2    B1    B2
    DOCC [     7,    0,    2,    2 ]
    SOCC [     1,    0,    1,    1 ]
    NA   [     8,    0,    3,    3 ]
    NB   [     7,    0,    2,    2 ]

  @DF-UKS Final Energy:  -451.72291243948285

   => Energetics <=

    Nuclear Repulsion Energy =             29.8773490600414249
    One-Electron Energy =                -688.8010818983998433
    Two-Electron Energy =                 235.6686583336149567
    DFT Exchange-Correlation Energy =     -28.4678379347393680
    Empirical Dispersion Energy =           0.0000000000000000
    VV10 Nonlocal Energy =                  0.0000000000000000
    Total Energy =                       -451.7229124394827977

  UHF NO Occupations:
  HONO-2 :    3 B2 1.0000000
  HONO-1 :    3 B1 1.0000000
  HONO-0 :    8 A1 1.0000000
  LUNO+0 :    9 A1 0.0001776
  LUNO+1 :   10 A1 0.0000007
  LUNO+2 :    4 B2 0.0000001
  LUNO+3 :    4 B1 0.0000001

Computation Completed

Properties will be evaluated at   0.000000,   0.000000,   0.000000 [a0]

Properties computed using the SCF density matrix

 Multipole Moments:

 ------------------------------------------------------------------------------------
     Multipole            Electronic (a.u.)      Nuclear  (a.u.)        Total (a.u.)
 ------------------------------------------------------------------------------------

 L = 1.  Multiply by 2.5417464519 to convert [e a0] to [Debye]
 Dipole X            :          0.0000000            0.0000000            0.0000000
 Dipole Y            :          0.0000000            0.0000000            0.0000000
 Dipole Z            :          4.0086086           -1.4270428            2.5815659
 Magnitude           :                                                    2.5815659

 ------------------------------------------------------------------------------------

*** tstop() called on Joses-MacBook-Pro-2.local at Wed Jul 16 19:43:19 2025
Module time:
	user time   =       5.73 seconds =       0.10 minutes
	system time =       2.27 seconds =       0.04 minutes
	total time  =          1 seconds =       0.02 minutes
Total time:
	user time   =     182.65 seconds =       3.04 minutes
	system time =      53.92 seconds =       0.90 minutes
	total time  =         23 seconds =       0.38 minutes

*** tstart() called on Joses-MacBook-Pro-2.local
*** at Wed Jul 16 19:43:19 2025

         ------------------------------------------------------------
                                   SCF GRAD
                          Rob Parrish, Justin Turney,
                       Andy Simmonett, and Alex Sokolov
         ------------------------------------------------------------

  ==> Geometry <==

    Molecular point group: c2v
    Full point group: C_inf_v

    Geometry (in Angstrom), charge = 0, multiplicity = 4:

       Center              X                  Y                   Z               Mass
    ------------   -----------------  -----------------  -----------------  -----------------
         NA           0.000000000000     0.000000000000     1.497246532334    22.989769282000
         SI           0.000000000000     0.000000000000    -1.230347883067    27.976926534650

  Nuclear repulsion =   29.877349060041425

  ==> Basis Set <==

  Basis Set: CC-PVDZ
    Blend: CC-PVDZ
    Number of shells: 16
    Number of basis functions: 36
    Number of Cartesian functions: 38
    Spherical Harmonics?: true
    Max angular momentum: 2

  ==> DFJKGrad: Density-Fitted SCF Gradients <==

    Gradient:                    1
    J tasked:                  Yes
    K tasked:                  Yes
    wK tasked:                  No
    OpenMP threads:              1
    Integrals threads:           1
    Memory [MiB]:              375
    Schwarz Cutoff:          1E-12
    Fitting Condition:       1E-10

   => Auxiliary Basis Set <=

  Basis Set: (CC-PVDZ AUX)
    Blend: CC-PVDZ-JKFIT + DEF2-UNIVERSAL-JKFIT
    Number of shells: 70
    Number of basis functions: 224
    Number of Cartesian functions: 267
    Spherical Harmonics?: true
    Max angular momentum: 4

  ==> DFT Potential <==

   => LibXC <=

    Version 6.2.2
    S. Lehtola, C. Steigemann, M. J.T. Oliveira, and M. A.L. Marques.,  SoftwareX 7, 1â€“5 (2018) (10.1016/j.softx.2017.11.002)

   => Composite Functional: B3LYP <=

    B3LYP Hyb-GGA Exchange-Correlation Functional

    P. J. Stephens, F. J. Devlin, C. F. Chabalowski, and M. J. Frisch.,  J. Phys. Chem. 98, 11623 (1994) (10.1021/j100096a001)

    Deriv               =              1
    GGA                 =           TRUE
    Meta                =          FALSE

    Exchange Hybrid     =           TRUE
    MP2 Hybrid          =          FALSE

   => Exchange Functionals <=

    0.0800   Slater exchange
    0.7200         Becke 88

   => Exact (HF) Exchange <=

    0.2000               HF

   => Correlation Functionals <=

    0.1900   Vosko, Wilk & Nusair (VWN5_RPA)
    0.8100   Lee, Yang & Parr

   => LibXC Density Thresholds  <==

    XC_HYB_GGA_XC_B3LYP:  1.00E-15

   => Molecular Quadrature <=

    Radial Scheme          =       TREUTLER
    Pruning Scheme         =           NONE
    Nuclear Scheme         =       TREUTLER

    Blocking Scheme        =         OCTREE
    BS radius alpha        =              1
    Pruning alpha          =              1
    Radial Points          =             75
    Spherical Points       =            302
    Total Points           =          43849
    Total Blocks           =            451
    Max Points             =            256
    Max Functions          =             36
    Weights Tolerance      =       1.00E-15

  -Total Gradient:
     Atom            X                  Y                   Z
    ------   -----------------  -----------------  -----------------
       1        0.000000000000    -0.000000000000     0.000010946158
       2       -0.000000000000     0.000000000000     0.000045854442

*** tstop() called on Joses-MacBook-Pro-2.local at Wed Jul 16 19:43:19 2025
Module time:
	user time   =       2.66 seconds =       0.04 minutes
	system time =       1.44 seconds =       0.02 minutes
	total time  =          0 seconds =       0.00 minutes
Total time:
	user time   =     185.31 seconds =       3.09 minutes
	system time =      55.37 seconds =       0.92 minutes
	total time  =         23 seconds =       0.38 minutes

    			-----------------------------------------

    			 OPTKING 3.0: for geometry optimizations

    			     By R.A. King, Bethel University

    			        with contributions from

    			    A.V. Copan, J. Cayton, A. Heide

    			-----------------------------------------

	                            ===> Fragment 1 <==

	 Z (Atomic Numbers)          Masses                          Geom
	      11.000000            22.989769          0.00000000  0.00000000  2.82938589
	      14.000000            27.976927          0.00000000  0.00000000 -2.32502054

	 - Coordinate -           - BOHR/RAD -       - ANG/DEG -
	 R(1,2)           =         5.154406           2.727594

	        --- Internal Coordinate Step in ANG or DEG, aJ/ANG or AJ/DEG ---
	-------------------------------------------------------------------------------
	           Coordinate      Previous         Force          Change          New
	           ----------      --------        ------          ------        ------
	               R(1,2)       2.72759        0.00014        0.00030       2.72789
	-------------------------------------------------------------------------------

	                                 ==> Convergence Check <==

	Measures of convergence in internal coordinates in au.

	Criteria marked as inactive (o), active & met (*), and active & unmet ( ).

	----------------------------------------------------------------------------------------------
	   Step    Total Energy     Delta E     Max Force     RMS Force      Max Disp      RMS Disp
	----------------------------------------------------------------------------------------------
	  Convergence Criteria     1.00e-06 *    3.00e-04 *             o    1.20e-03 *             o
	----------------------------------------------------------------------------------------------
	    16    -451.72291244   -7.58e-08 *    1.75e-05 *    1.75e-05 o    5.66e-04 *    5.66e-04 o  ~
	----------------------------------------------------------------------------------------------

Next Geometry in Ang
	Fragment 1 (Ang)

	   Na   0.0000000000   0.0000000000   1.4973962921
	   Si   0.0000000000   0.0000000000  -1.2304976429

    Final optimized geometry and variables:
    Molecular point group: c2v
    Full point group: C_inf_v

    Geometry (in Angstrom), charge = 0, multiplicity = 4:

    NA           0.000000000000     0.000000000000     1.497246532334
    SI           0.000000000000     0.000000000000    -1.230347883067

    Psi4 stopped on: Wednesday, 16 July 2025 07:43PM
    Psi4 wall time for execution: 0:00:23.26

*** Psi4 exiting successfully. Buy a developer a beer!
