                               Psi4 1.9.1 release

  ==> Input File <==

--------------------------------------------------------------------------
molecule {
0 4
Ne   0.00000        0.60000        0.00000
P   0.00000       -0.60000        0.00000
}

set {
basis              cc-pvdz
reference          uks
maxiter            500
geom_maxiter       500
DAMPING_PERCENTAGE 1
guess              SAP
}

optimize('b3lyp')
--------------------------------------------------------------------------

    Molecular point group: c2v
  Charge       = 0
  Multiplicity = 4
  Basis Set: CC-PVDZ
    Blend: CC-PVDZ
  Basis Set: (CC-PVDZ AUX)
    Blend: CC-PVDZ-JKFIT
  @DF-UKS Final Energy:  -469.52120028180741
    Total Energy =                       -469.5212002818074097
 Dipole X            :          0.0000000            0.0000000            0.0000000
 Dipole Y            :          0.0000000            0.0000000            0.0000000
 Dipole Z            :          0.8621194            0.4383075            1.3004270
 Magnitude           :                                                    1.3004270
    Molecular point group: c2v
  Basis Set: CC-PVDZ
    Blend: CC-PVDZ
  Basis Set: (CC-PVDZ AUX)
    Blend: CC-PVDZ-JKFIT
  Basis Set: CC-PVDZ
    Blend: CC-PVDZ
  Basis Set: (CC-PVDZ AUX)
    Blend: CC-PVDZ-JKFIT
  @DF-UKS Final Energy:  -469.76624695410533
    Total Energy =                       -469.7662469541053269
  Basis Set: CC-PVDZ
    Blend: CC-PVDZ
  Basis Set: (CC-PVDZ AUX)
    Blend: CC-PVDZ-JKFIT
  Basis Set: CC-PVDZ
    Blend: CC-PVDZ
  @DF-UKS Final Energy:  -469.92640506146694
    Total Energy =                       -469.9264050614669372
  @DF-UKS Final Energy:  -470.03666229567534
    Total Energy =                       -470.0366622956753417
  @DF-UKS Final Energy:  -470.11076933762428
    Total Energy =                       -470.1107693376242764
  @DF-UKS Final Energy:  -470.14857798637172
    Total Energy =                       -470.1485779863717198
  @DF-UKS Final Energy:  -470.16820313042456
    Total Energy =                       -470.1682031304246152
  @DF-UKS Final Energy:  -470.17815969355939
    Total Energy =                       -470.1781596935593939
  @DF-UKS Final Energy:  -470.18301543348105
    Total Energy =                       -470.1830154334811027
  @DF-UKS Final Energy:  -470.18523312549064
    Total Energy =                       -470.1852331254906403
  @DF-UKS Final Energy:  -470.18616600081049
    Total Energy =                       -470.1861660008104877
  @DF-UKS Final Energy:  -470.18651521173814
    Total Energy =                       -470.1865152117381399
  @DF-UKS Final Energy:  -470.18662155421077
    Total Energy =                       -470.1866215542107739
  @DF-UKS Final Energy:  -470.18664269883129
    Total Energy =                       -470.1866426988313492
  @DF-UKS Final Energy:  -470.18664790537082
    Total Energy =                       -470.1866479053708190
  Basis Set: (CC-PVDZ AUX)
    Blend: CC-PVDZ-JKFIT
  Basis Set: CC-PVDZ
    Blend: CC-PVDZ
  Basis Set: (CC-PVDZ AUX)
    Blend: CC-PVDZ-JKFIT
  @DF-UKS Final Energy:  -470.18664978788428
    Total Energy =                       -470.1866497878843347
  Basis Set: CC-PVDZ
    Blend: CC-PVDZ
  Basis Set: (CC-PVDZ AUX)
    Blend: CC-PVDZ-JKFIT
  Charge       = 0
  Multiplicity = 4
  Basis Set: CC-PVDZ
    Blend: CC-PVDZ
  Basis Set: (CC-PVDZ AUX)
    Blend: CC-PVDZ-JKFIT

    Orbital Energies [Eh]
    ---------------------

    Alpha Occupied:

       1A1   -77.114691     2A1   -30.962751     3A1    -6.582973
       1B2    -4.746388     1B1    -4.746388     4A1    -4.746374
       5A1    -1.427707     6A1    -0.594661     7A1    -0.536797
       2B1    -0.535889     2B2    -0.535889     3B1    -0.254982
       3B2    -0.254982     8A1    -0.253834

    Alpha Virtual:

       9A1     0.332630     4B1     0.402007     4B2     0.402007
      10A1     0.405304    11A1     0.433504     5B1     0.434111
       5B2     0.434111    12A1     0.434133     1A2     0.434134
       6B1     1.364637     6B2     1.364637    13A1     1.397476
      14A1     1.842077     7B2     4.729292     7B1     4.729292
       2A2     4.729564    15A1     4.729767    16A1     4.729911

    Beta Occupied:

       1A1   -77.102450     2A1   -30.962537     3A1    -6.570029
       1B1    -4.727278     1B2    -4.727278     4A1    -4.727174
       5A1    -1.427318     6A1    -0.536908     2B1    -0.535722
       2B2    -0.535722     7A1    -0.476840

    Beta Virtual:

       3B1    -0.108022     3B2    -0.108022     8A1    -0.106712
       9A1     0.376306     4B1     0.451860     4B2     0.451860
      10A1     0.453727    11A1     0.530487    12A1     0.531100
       1A2     0.531101     5B1     0.531189     5B2     0.531189
       6B1     1.364571     6B2     1.364571    13A1     1.398522
      14A1     1.842808     7B1     4.729693     7B2     4.729693
       2A2     4.729698    15A1     4.729901    16A1     4.730401

    Final Occupation by Irrep:
             A1    A2    B1    B2
    DOCC [     7,    0,    2,    2 ]
    SOCC [     1,    0,    1,    1 ]
    NA   [     8,    0,    3,    3 ]
    NB   [     7,    0,    2,    2 ]

  @DF-UKS Final Energy:  -470.18665015520452

   => Energetics <=

    Nuclear Repulsion Energy =             24.0462658039008232
    One-Electron Energy =                -702.3053796966692062
    Two-Electron Energy =                 236.8668002233075924
    DFT Exchange-Correlation Energy =     -28.7943364857436919
    Empirical Dispersion Energy =           0.0000000000000000
    VV10 Nonlocal Energy =                  0.0000000000000000
    Total Energy =                       -470.1866501552045179

  UHF NO Occupations:
  HONO-2 :    3 B1 1.0000000
  HONO-1 :    8 A1 1.0000000
  HONO-0 :    3 B2 1.0000000
  LUNO+0 :    9 A1 0.0000900
  LUNO+1 :   10 A1 0.0000010
  LUNO+2 :    4 B2 0.0000000
  LUNO+3 :    4 B1 0.0000000

Computation Completed

Properties will be evaluated at   0.000000,   0.000000,   0.000000 [a0]

Properties computed using the SCF density matrix

 Multipole Moments:

 ------------------------------------------------------------------------------------
     Multipole            Electronic (a.u.)      Nuclear  (a.u.)        Total (a.u.)
 ------------------------------------------------------------------------------------

 L = 1.  Multiply by 2.5417464519 to convert [e a0] to [Debye]
 Dipole X            :          0.0000000            0.0000000            0.0000000
 Dipole Y            :          0.0000000            0.0000000            0.0000000
 Dipole Z            :         -1.1710109            1.2057088            0.0346979
 Magnitude           :                                                    0.0346979

 ------------------------------------------------------------------------------------

*** tstop() called on Joses-MacBook-Pro-2.local at Wed Jul 16 19:36:14 2025
Module time:
	user time   =       2.44 seconds =       0.04 minutes
	system time =       3.03 seconds =       0.05 minutes
	total time  =          0 seconds =       0.00 minutes
Total time:
	user time   =      80.44 seconds =       1.34 minutes
	system time =      84.39 seconds =       1.41 minutes
	total time  =         16 seconds =       0.27 minutes

*** tstart() called on Joses-MacBook-Pro-2.local
*** at Wed Jul 16 19:36:14 2025

         ------------------------------------------------------------
                                   SCF GRAD
                          Rob Parrish, Justin Turney,
                       Andy Simmonett, and Alex Sokolov
         ------------------------------------------------------------

  ==> Geometry <==

    Molecular point group: c2v
    Full point group: C_inf_v

    Geometry (in Angstrom), charge = 0, multiplicity = 4:

       Center              X                  Y                   Z               Mass
    ------------   -----------------  -----------------  -----------------  -----------------
         NE           0.000000000000     0.000000000000     2.006117805911    19.992440176200
         P            0.000000000000     0.000000000000    -1.294876296368    30.973761998420

  Nuclear repulsion =   24.046265803900823

  ==> Basis Set <==

  Basis Set: CC-PVDZ
    Blend: CC-PVDZ
    Number of shells: 14
    Number of basis functions: 32
    Number of Cartesian functions: 34
    Spherical Harmonics?: true
    Max angular momentum: 2

  ==> DFJKGrad: Density-Fitted SCF Gradients <==

    Gradient:                    1
    J tasked:                  Yes
    K tasked:                  Yes
    wK tasked:                  No
    OpenMP threads:              1
    Integrals threads:           1
    Memory [MiB]:              375
    Schwarz Cutoff:          1E-12
    Fitting Condition:       1E-10

   => Auxiliary Basis Set <=

  Basis Set: (CC-PVDZ AUX)
    Blend: CC-PVDZ-JKFIT
    Number of shells: 60
    Number of basis functions: 182
    Number of Cartesian functions: 211
    Spherical Harmonics?: true
    Max angular momentum: 3

  ==> DFT Potential <==

   => LibXC <=

    Version 6.2.2
    S. Lehtola, C. Steigemann, M. J.T. Oliveira, and M. A.L. Marques.,  SoftwareX 7, 1â€“5 (2018) (10.1016/j.softx.2017.11.002)

   => Composite Functional: B3LYP <=

    B3LYP Hyb-GGA Exchange-Correlation Functional

    P. J. Stephens, F. J. Devlin, C. F. Chabalowski, and M. J. Frisch.,  J. Phys. Chem. 98, 11623 (1994) (10.1021/j100096a001)

    Deriv               =              1
    GGA                 =           TRUE
    Meta                =          FALSE

    Exchange Hybrid     =           TRUE
    MP2 Hybrid          =          FALSE

   => Exchange Functionals <=

    0.0800   Slater exchange
    0.7200         Becke 88

   => Exact (HF) Exchange <=

    0.2000               HF

   => Correlation Functionals <=

    0.1900   Vosko, Wilk & Nusair (VWN5_RPA)
    0.8100   Lee, Yang & Parr

   => LibXC Density Thresholds  <==

    XC_HYB_GGA_XC_B3LYP:  1.00E-15

   => Molecular Quadrature <=

    Radial Scheme          =       TREUTLER
    Pruning Scheme         =           NONE
    Nuclear Scheme         =       TREUTLER

    Blocking Scheme        =         OCTREE
    BS radius alpha        =              1
    Pruning alpha          =              1
    Radial Points          =             75
    Spherical Points       =            302
    Total Points           =          42815
    Total Blocks           =            386
    Max Points             =            254
    Max Functions          =             32
    Weights Tolerance      =       1.00E-15

  -Total Gradient:
     Atom            X                  Y                   Z
    ------   -----------------  -----------------  -----------------
       1        0.000000000000    -0.000000000000    -0.000003096991
       2        0.000000000000    -0.000000000000     0.000008860814

*** tstop() called on Joses-MacBook-Pro-2.local at Wed Jul 16 19:36:14 2025
Module time:
	user time   =       0.63 seconds =       0.01 minutes
	system time =       1.67 seconds =       0.03 minutes
	total time  =          0 seconds =       0.00 minutes
Total time:
	user time   =      81.07 seconds =       1.35 minutes
	system time =      86.06 seconds =       1.43 minutes
	total time  =         16 seconds =       0.27 minutes

    			-----------------------------------------

    			 OPTKING 3.0: for geometry optimizations

    			     By R.A. King, Bethel University

    			        with contributions from

    			    A.V. Copan, J. Cayton, A. Heide

    			-----------------------------------------

	                            ===> Fragment 1 <==

	 Z (Atomic Numbers)          Masses                          Geom
	      10.000000            19.992440          0.00000000  0.00000000  3.79101323
	      15.000000            30.973762          0.00000000  0.00000000 -2.44696157

	 - Coordinate -           - BOHR/RAD -       - ANG/DEG -
	 R(1,2)           =         6.237975           3.300994

	        --- Internal Coordinate Step in ANG or DEG, aJ/ANG or AJ/DEG ---
	-------------------------------------------------------------------------------
	           Coordinate      Previous         Force          Change          New
	           ----------      --------        ------          ------        ------
	               R(1,2)       3.30099        0.00005        0.00105       3.30205
	-------------------------------------------------------------------------------

	                                 ==> Convergence Check <==

	Measures of convergence in internal coordinates in au.

	Criteria marked as inactive (o), active & met (*), and active & unmet ( ).

	----------------------------------------------------------------------------------------------
	   Step    Total Energy     Delta E     Max Force     RMS Force      Max Disp      RMS Disp
	----------------------------------------------------------------------------------------------
	  Convergence Criteria     1.00e-06 *    3.00e-04 *             o    1.20e-03 *             o
	----------------------------------------------------------------------------------------------
	    17    -470.18665016   -3.67e-07 *    5.98e-06 *    5.98e-06 o    1.99e-03      1.99e-03 o  ~
	----------------------------------------------------------------------------------------------

Next Geometry in Ang
	Fragment 1 (Ang)

	   Ne   0.0000000000   0.0000000000   2.0066433442
	    P   0.0000000000   0.0000000000  -1.2954018346

    Final optimized geometry and variables:
    Molecular point group: c2v
    Full point group: C_inf_v

    Geometry (in Angstrom), charge = 0, multiplicity = 4:

    NE           0.000000000000     0.000000000000     2.006117805911
    P            0.000000000000     0.000000000000    -1.294876296368

    Psi4 stopped on: Wednesday, 16 July 2025 07:36PM
    Psi4 wall time for execution: 0:00:16.58

*** Psi4 exiting successfully. Buy a developer a beer!
