                               Psi4 1.9.1 release

  ==> Input File <==

--------------------------------------------------------------------------
molecule {
0 4
Be   0.00000        0.60000        0.00000
Na   0.00000       -0.60000        0.00000
}

set {
basis              cc-pvdz
reference          uks
maxiter            500
geom_maxiter       500
DAMPING_PERCENTAGE 1
guess              SAP
}

optimize('b3lyp')
--------------------------------------------------------------------------

    Molecular point group: c2v
  Charge       = 0
  Multiplicity = 4
  Basis Set: CC-PVDZ
    Blend: CC-PVDZ
  Basis Set: (CC-PVDZ AUX)
    Blend: DEF2-UNIVERSAL-JKFIT
  @DF-UKS Final Energy:  -176.57503765818916
    Total Energy =                       -176.5750376581891601
 Dipole X            :          0.0000000            0.0000000            0.0000000
 Dipole Y            :          0.0000000            0.0000000            0.0000000
 Dipole Z            :         -1.0032348           -0.5084189           -1.5116537
 Magnitude           :                                                    1.5116537
    Molecular point group: c2v
  Basis Set: CC-PVDZ
    Blend: CC-PVDZ
  Basis Set: (CC-PVDZ AUX)
    Blend: DEF2-UNIVERSAL-JKFIT
  Basis Set: CC-PVDZ
    Blend: CC-PVDZ
  Basis Set: (CC-PVDZ AUX)
    Blend: DEF2-UNIVERSAL-JKFIT
  @DF-UKS Final Energy:  -176.62580582138111
    Total Energy =                       -176.6258058213811353
  Basis Set: CC-PVDZ
    Blend: CC-PVDZ
  Basis Set: (CC-PVDZ AUX)
    Blend: DEF2-UNIVERSAL-JKFIT
  Basis Set: CC-PVDZ
    Blend: CC-PVDZ
  @DF-UKS Final Energy:  -176.68524352591359
    Total Energy =                       -176.6852435259135916
  @DF-UKS Final Energy:  -176.75890738682560
    Total Energy =                       -176.7589073868255980
  @DF-UKS Final Energy:  -176.80774380703312
    Total Energy =                       -176.8077438070331198
  @DF-UKS Final Energy:  -176.83507474459898
    Total Energy =                       -176.8350747445989839
  @DF-UKS Final Energy:  -176.84695347030527
    Total Energy =                       -176.8469534703052659
  @DF-UKS Final Energy:  -176.85084509787791
    Total Energy =                       -176.8508450978779081
  @DF-UKS Final Energy:  -176.85167760623489
    Total Energy =                       -176.8516776062348868
  @DF-UKS Final Energy:  -176.85175297702972
    Total Energy =                       -176.8517529770296903
  Basis Set: (CC-PVDZ AUX)
    Blend: DEF2-UNIVERSAL-JKFIT
  Basis Set: CC-PVDZ
    Blend: CC-PVDZ
  Basis Set: (CC-PVDZ AUX)
    Blend: DEF2-UNIVERSAL-JKFIT
  @DF-UKS Final Energy:  -176.85176046011719
    Total Energy =                       -176.8517604601171911
  Basis Set: CC-PVDZ
    Blend: CC-PVDZ
  Basis Set: (CC-PVDZ AUX)
    Blend: DEF2-UNIVERSAL-JKFIT
  Charge       = 0
  Multiplicity = 4
  Basis Set: CC-PVDZ
    Blend: CC-PVDZ
  Basis Set: (CC-PVDZ AUX)
    Blend: DEF2-UNIVERSAL-JKFIT

    Orbital Energies [Eh]
    ---------------------

    Alpha Occupied:

       1A1   -38.536684     2A1    -4.057511     3A1    -2.280052
       4A1    -1.212675     1B1    -1.210604     1B2    -1.210604
       5A1    -0.259882     2B2    -0.111564     2B1    -0.111564

    Alpha Virtual:

       6A1    -0.088900     7A1    -0.034363     3B2    -0.002887
       3B1    -0.002887     8A1     0.019527     9A1     0.046271
       4B2     0.070053     4B1     0.070053    10A1     0.145903
      11A1     0.147809     1A2     0.147810     5B2     0.191188
       5B1     0.191188    12A1     0.215252     6B2     0.220886
       6B1     0.220886    13A1     0.330224    14A1     0.447575
      15A1     0.491858     2A2     0.491858     7B2     0.595564
       7B1     0.595564    16A1     0.718059

    Beta Occupied:

       1A1   -38.535619     2A1    -4.039202     3A1    -2.278243
       4A1    -1.211098     1B1    -1.209021     1B2    -1.209021

    Beta Virtual:

       5A1    -0.113898     6A1    -0.060793     2B2    -0.011352
       2B1    -0.011352     7A1     0.005494     8A1     0.042780
       9A1     0.054855     3B2     0.059511     3B1     0.059511
       4B2     0.080873     4B1     0.080873    10A1     0.163579
       1A2     0.169548    11A1     0.169549     5B2     0.218832
       5B1     0.218832    12A1     0.242669     6B2     0.282919
       6B1     0.282919    13A1     0.387808    14A1     0.480769
      15A1     0.616462     2A2     0.616491     7B2     0.681978
       7B1     0.681978    16A1     0.768011

    Final Occupation by Irrep:
             A1    A2    B1    B2
    DOCC [     4,    0,    1,    1 ]
    SOCC [     1,    0,    1,    1 ]
    NA   [     5,    0,    2,    2 ]
    NB   [     4,    0,    1,    1 ]

  @DF-UKS Final Energy:  -176.85176063563435

   => Energetics <=

    Nuclear Repulsion Energy =              9.5384075368633017
    One-Electron Energy =                -265.3376839323912009
    Two-Electron Energy =                  92.8731101716089711
    DFT Exchange-Correlation Energy =     -13.9255944117154176
    Empirical Dispersion Energy =           0.0000000000000000
    VV10 Nonlocal Energy =                  0.0000000000000000
    Total Energy =                       -176.8517606356343492

  UHF NO Occupations:
  HONO-2 :    5 A1 1.0000000
  HONO-1 :    2 B1 1.0000000
  HONO-0 :    2 B2 1.0000000
  LUNO+0 :    6 A1 0.0000015
  LUNO+1 :    3 B2 0.0000004
  LUNO+2 :    3 B1 0.0000004
  LUNO+3 :    7 A1 0.0000003

Computation Completed

Properties will be evaluated at   0.000000,   0.000000,   0.000000 [a0]

Properties computed using the SCF density matrix

 Multipole Moments:

 ------------------------------------------------------------------------------------
     Multipole            Electronic (a.u.)      Nuclear  (a.u.)        Total (a.u.)
 ------------------------------------------------------------------------------------

 L = 1.  Multiply by 2.5417464519 to convert [e a0] to [Debye]
 Dipole X            :          0.0000000            0.0000000            0.0000000
 Dipole Y            :          0.0000000            0.0000000            0.0000000
 Dipole Z            :         -1.0819093           -1.0342330           -2.1161423
 Magnitude           :                                                    2.1161423

 ------------------------------------------------------------------------------------

*** tstop() called on Joses-MacBook-Pro-2.local at Wed Jul 16 18:42:43 2025
Module time:
	user time   =       2.51 seconds =       0.04 minutes
	system time =       2.44 seconds =       0.04 minutes
	total time  =          1 seconds =       0.02 minutes
Total time:
	user time   =      55.15 seconds =       0.92 minutes
	system time =      61.59 seconds =       1.03 minutes
	total time  =         12 seconds =       0.20 minutes

*** tstart() called on Joses-MacBook-Pro-2.local
*** at Wed Jul 16 18:42:43 2025

         ------------------------------------------------------------
                                   SCF GRAD
                          Rob Parrish, Justin Turney,
                       Andy Simmonett, and Alex Sokolov
         ------------------------------------------------------------

  ==> Geometry <==

    Molecular point group: c2v
    Full point group: C_inf_v

    Geometry (in Angstrom), charge = 0, multiplicity = 4:

       Center              X                  Y                   Z               Mass
    ------------   -----------------  -----------------  -----------------  -----------------
         BE           0.000000000000     0.000000000000     1.753622357547     9.012183065000
         NA           0.000000000000     0.000000000000    -0.687434724518    22.989769282000

  Nuclear repulsion =    9.538407536863302

  ==> Basis Set <==

  Basis Set: CC-PVDZ
    Blend: CC-PVDZ
    Number of shells: 14
    Number of basis functions: 32
    Number of Cartesian functions: 34
    Spherical Harmonics?: true
    Max angular momentum: 2

  ==> DFJKGrad: Density-Fitted SCF Gradients <==

    Gradient:                    1
    J tasked:                  Yes
    K tasked:                  Yes
    wK tasked:                  No
    OpenMP threads:              1
    Integrals threads:           1
    Memory [MiB]:              375
    Schwarz Cutoff:          1E-12
    Fitting Condition:       1E-10

   => Auxiliary Basis Set <=

  Basis Set: (CC-PVDZ AUX)
    Blend: DEF2-UNIVERSAL-JKFIT
    Number of shells: 51
    Number of basis functions: 163
    Number of Cartesian functions: 197
    Spherical Harmonics?: true
    Max angular momentum: 4

  ==> DFT Potential <==

   => LibXC <=

    Version 6.2.2
    S. Lehtola, C. Steigemann, M. J.T. Oliveira, and M. A.L. Marques.,  SoftwareX 7, 1â€“5 (2018) (10.1016/j.softx.2017.11.002)

   => Composite Functional: B3LYP <=

    B3LYP Hyb-GGA Exchange-Correlation Functional

    P. J. Stephens, F. J. Devlin, C. F. Chabalowski, and M. J. Frisch.,  J. Phys. Chem. 98, 11623 (1994) (10.1021/j100096a001)

    Deriv               =              1
    GGA                 =           TRUE
    Meta                =          FALSE

    Exchange Hybrid     =           TRUE
    MP2 Hybrid          =          FALSE

   => Exchange Functionals <=

    0.0800   Slater exchange
    0.7200         Becke 88

   => Exact (HF) Exchange <=

    0.2000               HF

   => Correlation Functionals <=

    0.1900   Vosko, Wilk & Nusair (VWN5_RPA)
    0.8100   Lee, Yang & Parr

   => LibXC Density Thresholds  <==

    XC_HYB_GGA_XC_B3LYP:  1.00E-15

   => Molecular Quadrature <=

    Radial Scheme          =       TREUTLER
    Pruning Scheme         =           NONE
    Nuclear Scheme         =       TREUTLER

    Blocking Scheme        =         OCTREE
    BS radius alpha        =              1
    Pruning alpha          =              1
    Radial Points          =             75
    Spherical Points       =            302
    Total Points           =          43832
    Total Blocks           =            443
    Max Points             =            254
    Max Functions          =             32
    Weights Tolerance      =       1.00E-15

  -Total Gradient:
     Atom            X                  Y                   Z
    ------   -----------------  -----------------  -----------------
       1        0.000000000000    -0.000000000000    -0.000023005763
       2        0.000000000000     0.000000000000     0.000009696349

*** tstop() called on Joses-MacBook-Pro-2.local at Wed Jul 16 18:42:43 2025
Module time:
	user time   =       0.76 seconds =       0.01 minutes
	system time =       1.96 seconds =       0.03 minutes
	total time  =          0 seconds =       0.00 minutes
Total time:
	user time   =      55.91 seconds =       0.93 minutes
	system time =      63.57 seconds =       1.06 minutes
	total time  =         12 seconds =       0.20 minutes

    			-----------------------------------------

    			 OPTKING 3.0: for geometry optimizations

    			     By R.A. King, Bethel University

    			        with contributions from

    			    A.V. Copan, J. Cayton, A. Heide

    			-----------------------------------------

	                            ===> Fragment 1 <==

	 Z (Atomic Numbers)          Masses                          Geom
	       4.000000             9.012183          0.00000000  0.00000000  3.31386598
	      11.000000            22.989769          0.00000000  0.00000000 -1.29906336

	 - Coordinate -           - BOHR/RAD -       - ANG/DEG -
	 R(1,2)           =         4.612929           2.441057

	        --- Internal Coordinate Step in ANG or DEG, aJ/ANG or AJ/DEG ---
	-------------------------------------------------------------------------------
	           Coordinate      Previous         Force          Change          New
	           ----------      --------        ------          ------        ------
	               R(1,2)       2.44106        0.00013        0.00027       2.44133
	-------------------------------------------------------------------------------

	                                 ==> Convergence Check <==

	Measures of convergence in internal coordinates in au.

	Criteria marked as inactive (o), active & met (*), and active & unmet ( ).

	----------------------------------------------------------------------------------------------
	   Step    Total Energy     Delta E     Max Force     RMS Force      Max Disp      RMS Disp
	----------------------------------------------------------------------------------------------
	  Convergence Criteria     1.00e-06 *    3.00e-04 *             o    1.20e-03 *             o
	----------------------------------------------------------------------------------------------
	    12    -176.85176064   -1.76e-07 *    1.64e-05 *    1.64e-05 o    5.08e-04 *    5.08e-04 o  ~
	----------------------------------------------------------------------------------------------

Next Geometry in Ang
	Fragment 1 (Ang)

	   Be   0.0000000000   0.0000000000   1.7537568056
	   Na   0.0000000000   0.0000000000  -0.6875691726

    Final optimized geometry and variables:
    Molecular point group: c2v
    Full point group: C_inf_v

    Geometry (in Angstrom), charge = 0, multiplicity = 4:

    BE           0.000000000000     0.000000000000     1.753622357547
    NA           0.000000000000     0.000000000000    -0.687434724518

    Psi4 stopped on: Wednesday, 16 July 2025 06:42PM
    Psi4 wall time for execution: 0:00:12.47

*** Psi4 exiting successfully. Buy a developer a beer!
