                               Psi4 1.9.1 release

  ==> Input File <==

--------------------------------------------------------------------------
molecule {
0 4
F   0.00000        0.60000        0.00000
Si   0.00000       -0.60000        0.00000
}

set {
basis              cc-pvdz
reference          uks
maxiter            500
geom_maxiter       500
DAMPING_PERCENTAGE 1
guess              SAP
}

optimize('b3lyp')
--------------------------------------------------------------------------

    Molecular point group: c2v
  Charge       = 0
  Multiplicity = 4
  Basis Set: CC-PVDZ
    Blend: CC-PVDZ
  Basis Set: (CC-PVDZ AUX)
    Blend: CC-PVDZ-JKFIT
  @DF-UKS Final Energy:  -388.88302186885147
    Total Energy =                       -388.8830218688514719
 Dipole X            :          0.0000000            0.0000000            0.0000000
 Dipole Y            :          0.0000000            0.0000000            0.0000000
 Dipole Z            :          0.6632489           -0.6847767           -0.0215278
 Magnitude           :                                                    0.0215278
    Molecular point group: c2v
  Basis Set: CC-PVDZ
    Blend: CC-PVDZ
  Basis Set: (CC-PVDZ AUX)
    Blend: CC-PVDZ-JKFIT
  Basis Set: CC-PVDZ
    Blend: CC-PVDZ
  Basis Set: (CC-PVDZ AUX)
    Blend: CC-PVDZ-JKFIT
  @DF-UKS Final Energy:  -389.05882353937534
    Total Energy =                       -389.0588235393753962
  Basis Set: CC-PVDZ
    Blend: CC-PVDZ
  Basis Set: (CC-PVDZ AUX)
    Blend: CC-PVDZ-JKFIT
  Basis Set: CC-PVDZ
    Blend: CC-PVDZ
  @DF-UKS Final Energy:  -389.13965447976307
    Total Energy =                       -389.1396544797630668
  @DF-UKS Final Energy:  -389.16522563370091
    Total Energy =                       -389.1652256337009135
  @DF-UKS Final Energy:  -389.17800135101521
    Total Energy =                       -389.1780013510152685
  @DF-UKS Final Energy:  -389.18176974092097
    Total Energy =                       -389.1817697409209700
  @DF-UKS Final Energy:  -389.18339632128493
    Total Energy =                       -389.1833963212849312
  @DF-UKS Final Energy:  -389.18374968831836
    Total Energy =                       -389.1837496883183576
  @DF-UKS Final Energy:  -389.18384524812689
    Total Energy =                       -389.1838452481268860
  Basis Set: (CC-PVDZ AUX)
    Blend: CC-PVDZ-JKFIT
  Basis Set: CC-PVDZ
    Blend: CC-PVDZ
  Basis Set: (CC-PVDZ AUX)
    Blend: CC-PVDZ-JKFIT
  @DF-UKS Final Energy:  -389.18386039683458
    Total Energy =                       -389.1838603968345751
  Basis Set: CC-PVDZ
    Blend: CC-PVDZ
  Basis Set: (CC-PVDZ AUX)
    Blend: CC-PVDZ-JKFIT
  Charge       = 0
  Multiplicity = 4
  Basis Set: CC-PVDZ
    Blend: CC-PVDZ
  Basis Set: (CC-PVDZ AUX)
    Blend: CC-PVDZ-JKFIT

    Orbital Energies [Eh]
    ---------------------

    Alpha Occupied:

       1A1   -66.221459     2A1   -24.714918     3A1    -5.362493
       4A1    -3.723153     1B2    -3.721493     1B1    -3.721493
       5A1    -1.196126     6A1    -0.554815     2B1    -0.445229
       2B2    -0.445229     7A1    -0.416048     3B1    -0.200226
       3B2    -0.200226

    Alpha Virtual:

       8A1    -0.020857     9A1     0.222369     4B2     0.276316
       4B1     0.276316    10A1     0.304715     1A2     0.304715
      11A1     0.320982     5B1     0.361842     5B2     0.361842
      12A1     0.547266     6B1     1.226588     6B2     1.226588
      13A1     1.235904    14A1     2.126337     2A2     3.549969
      15A1     3.550064     7B1     3.574166     7B2     3.574166
      16A1     3.734636

    Beta Occupied:

       1A1   -66.210498     2A1   -24.704392     3A1    -5.348337
       4A1    -3.712582     1B2    -3.703322     1B1    -3.703322
       5A1    -1.171218     6A1    -0.499659     2B1    -0.423063
       2B2    -0.423063

    Beta Virtual:

       7A1    -0.247797     3B1    -0.051293     3B2    -0.051293
       8A1     0.028829     9A1     0.267945     4B2     0.327309
       4B1     0.327309    10A1     0.354723    11A1     0.411253
       1A2     0.411253     5B1     0.435756     5B2     0.435756
      12A1     0.598219     6B1     1.240797     6B2     1.240797
      13A1     1.257140    14A1     2.143842     2A2     3.564301
      15A1     3.564397     7B1     3.598180     7B2     3.598180
      16A1     3.761310

    Final Occupation by Irrep:
             A1    A2    B1    B2
    DOCC [     6,    0,    2,    2 ]
    SOCC [     1,    0,    1,    1 ]
    NA   [     7,    0,    3,    3 ]
    NB   [     6,    0,    2,    2 ]

  @DF-UKS Final Energy:  -389.18386130646570

   => Energetics <=

    Nuclear Repulsion Energy =             39.6469705245175916
    One-Electron Energy =                -618.7895290876372201
    Two-Electron Energy =                 215.2407621644957487
    DFT Exchange-Correlation Energy =     -25.2820649078418107
    Empirical Dispersion Energy =           0.0000000000000000
    VV10 Nonlocal Energy =                  0.0000000000000000
    Total Energy =                       -389.1838613064657011

  UHF NO Occupations:
  HONO-2 :    7 A1 1.0000000
  HONO-1 :    3 B1 1.0000000
  HONO-0 :    3 B2 1.0000000
  LUNO+0 :    8 A1 0.0004860
  LUNO+1 :    4 B2 0.0001316
  LUNO+2 :    4 B1 0.0001316
  LUNO+3 :    9 A1 0.0000156

Computation Completed

Properties will be evaluated at   0.000000,   0.000000,   0.000000 [a0]

Properties computed using the SCF density matrix

 Multipole Moments:

 ------------------------------------------------------------------------------------
     Multipole            Electronic (a.u.)      Nuclear  (a.u.)        Total (a.u.)
 ------------------------------------------------------------------------------------

 L = 1.  Multiply by 2.5417464519 to convert [e a0] to [Debye]
 Dipole X            :          0.0000000            0.0000000            0.0000000
 Dipole Y            :          0.0000000            0.0000000            0.0000000
 Dipole Z            :          0.2954565           -0.9596865           -0.6642300
 Magnitude           :                                                    0.6642300

 ------------------------------------------------------------------------------------

*** tstop() called on Joses-MacBook-Pro-2.local at Wed Jul 16 19:28:31 2025
Module time:
	user time   =       3.66 seconds =       0.06 minutes
	system time =       3.67 seconds =       0.06 minutes
	total time  =          0 seconds =       0.00 minutes
Total time:
	user time   =      62.57 seconds =       1.04 minutes
	system time =      51.12 seconds =       0.85 minutes
	total time  =         11 seconds =       0.18 minutes

*** tstart() called on Joses-MacBook-Pro-2.local
*** at Wed Jul 16 19:28:31 2025

         ------------------------------------------------------------
                                   SCF GRAD
                          Rob Parrish, Justin Turney,
                       Andy Simmonett, and Alex Sokolov
         ------------------------------------------------------------

  ==> Geometry <==

    Molecular point group: c2v
    Full point group: C_inf_v

    Geometry (in Angstrom), charge = 0, multiplicity = 4:

       Center              X                  Y                   Z               Mass
    ------------   -----------------  -----------------  -----------------  -----------------
         F            0.000000000000     0.000000000000     1.001594279610    18.998403162730
         SI           0.000000000000     0.000000000000    -0.680156624994    27.976926534650

  Nuclear repulsion =   39.646970524517592

  ==> Basis Set <==

  Basis Set: CC-PVDZ
    Blend: CC-PVDZ
    Number of shells: 14
    Number of basis functions: 32
    Number of Cartesian functions: 34
    Spherical Harmonics?: true
    Max angular momentum: 2

  ==> DFJKGrad: Density-Fitted SCF Gradients <==

    Gradient:                    1
    J tasked:                  Yes
    K tasked:                  Yes
    wK tasked:                  No
    OpenMP threads:              1
    Integrals threads:           1
    Memory [MiB]:              375
    Schwarz Cutoff:          1E-12
    Fitting Condition:       1E-10

   => Auxiliary Basis Set <=

  Basis Set: (CC-PVDZ AUX)
    Blend: CC-PVDZ-JKFIT
    Number of shells: 60
    Number of basis functions: 182
    Number of Cartesian functions: 211
    Spherical Harmonics?: true
    Max angular momentum: 3

  ==> DFT Potential <==

   => LibXC <=

    Version 6.2.2
    S. Lehtola, C. Steigemann, M. J.T. Oliveira, and M. A.L. Marques.,  SoftwareX 7, 1â€“5 (2018) (10.1016/j.softx.2017.11.002)

   => Composite Functional: B3LYP <=

    B3LYP Hyb-GGA Exchange-Correlation Functional

    P. J. Stephens, F. J. Devlin, C. F. Chabalowski, and M. J. Frisch.,  J. Phys. Chem. 98, 11623 (1994) (10.1021/j100096a001)

    Deriv               =              1
    GGA                 =           TRUE
    Meta                =          FALSE

    Exchange Hybrid     =           TRUE
    MP2 Hybrid          =          FALSE

   => Exchange Functionals <=

    0.0800   Slater exchange
    0.7200         Becke 88

   => Exact (HF) Exchange <=

    0.2000               HF

   => Correlation Functionals <=

    0.1900   Vosko, Wilk & Nusair (VWN5_RPA)
    0.8100   Lee, Yang & Parr

   => LibXC Density Thresholds  <==

    XC_HYB_GGA_XC_B3LYP:  1.00E-15

   => Molecular Quadrature <=

    Radial Scheme          =       TREUTLER
    Pruning Scheme         =           NONE
    Nuclear Scheme         =       TREUTLER

    Blocking Scheme        =         OCTREE
    BS radius alpha        =              1
    Pruning alpha          =              1
    Radial Points          =             75
    Spherical Points       =            302
    Total Points           =          42909
    Total Blocks           =            392
    Max Points             =            256
    Max Functions          =             32
    Weights Tolerance      =       1.00E-15

  -Total Gradient:
     Atom            X                  Y                   Z
    ------   -----------------  -----------------  -----------------
       1        0.000000000000    -0.000000000000    -0.000176966100
       2        0.000000000000     0.000000000000     0.000086308909

*** tstop() called on Joses-MacBook-Pro-2.local at Wed Jul 16 19:28:32 2025
Module time:
	user time   =       1.02 seconds =       0.02 minutes
	system time =       1.39 seconds =       0.02 minutes
	total time  =          1 seconds =       0.02 minutes
Total time:
	user time   =      63.59 seconds =       1.06 minutes
	system time =      52.51 seconds =       0.88 minutes
	total time  =         12 seconds =       0.20 minutes

    			-----------------------------------------

    			 OPTKING 3.0: for geometry optimizations

    			     By R.A. King, Bethel University

    			        with contributions from

    			    A.V. Copan, J. Cayton, A. Heide

    			-----------------------------------------

	                            ===> Fragment 1 <==

	 Z (Atomic Numbers)          Masses                          Geom
	       9.000000            18.998403          0.00000000  0.00000000  1.89273888
	      14.000000            27.976927          0.00000000  0.00000000 -1.28530974

	 - Coordinate -           - BOHR/RAD -       - ANG/DEG -
	 R(1,2)           =         3.178049           1.681751

	        --- Internal Coordinate Step in ANG or DEG, aJ/ANG or AJ/DEG ---
	-------------------------------------------------------------------------------
	           Coordinate      Previous         Force          Change          New
	           ----------      --------        ------          ------        ------
	               R(1,2)       1.68175        0.00108        0.00024       1.68200
	-------------------------------------------------------------------------------

	                                 ==> Convergence Check <==

	Measures of convergence in internal coordinates in au.

	Criteria marked as inactive (o), active & met (*), and active & unmet ( ).

	----------------------------------------------------------------------------------------------
	   Step    Total Energy     Delta E     Max Force     RMS Force      Max Disp      RMS Disp
	----------------------------------------------------------------------------------------------
	  Convergence Criteria     1.00e-06 *    3.00e-04 *             o    1.20e-03 *             o
	----------------------------------------------------------------------------------------------
	    11    -389.18386131   -9.10e-07 *    1.32e-04 *    1.32e-04 o    4.61e-04 *    4.61e-04 o  ~
	----------------------------------------------------------------------------------------------

Next Geometry in Ang
	Fragment 1 (Ang)

	    F   0.0000000000   0.0000000000   1.0017163785
	   Si   0.0000000000   0.0000000000  -0.6802787239

    Final optimized geometry and variables:
    Molecular point group: c2v
    Full point group: C_inf_v

    Geometry (in Angstrom), charge = 0, multiplicity = 4:

    F            0.000000000000     0.000000000000     1.001594279610
    SI           0.000000000000     0.000000000000    -0.680156624994

    Psi4 stopped on: Wednesday, 16 July 2025 07:28PM
    Psi4 wall time for execution: 0:00:11.93

*** Psi4 exiting successfully. Buy a developer a beer!
