                               Psi4 1.9.1 release

  ==> Input File <==

--------------------------------------------------------------------------
molecule {
0 4
Ne   0.00000        0.60000        0.00000
Cl   0.00000       -0.60000        0.00000
}

set {
basis              cc-pvdz
reference          uks
maxiter            500
geom_maxiter       500
DAMPING_PERCENTAGE 1
guess              SAP
}

optimize('b3lyp')
--------------------------------------------------------------------------

    Molecular point group: c2v
  Charge       = 0
  Multiplicity = 4
  Basis Set: CC-PVDZ
    Blend: CC-PVDZ
  Basis Set: (CC-PVDZ AUX)
    Blend: CC-PVDZ-JKFIT
  @DF-UKS Final Energy:  -587.62109933404156
    Total Energy =                       -587.6210993340415598
 Dipole X            :          0.0000000            0.0000000            0.0000000
 Dipole Y            :          0.0000000            0.0000000            0.0000000
 Dipole Z            :          1.1719714            0.4050456            1.5770170
 Magnitude           :                                                    1.5770170
    Molecular point group: c2v
  Basis Set: CC-PVDZ
    Blend: CC-PVDZ
  Basis Set: (CC-PVDZ AUX)
    Blend: CC-PVDZ-JKFIT
  Basis Set: CC-PVDZ
    Blend: CC-PVDZ
  Basis Set: (CC-PVDZ AUX)
    Blend: CC-PVDZ-JKFIT
  @DF-UKS Final Energy:  -587.90445432178979
    Total Energy =                       -587.9044543217897854
  Basis Set: CC-PVDZ
    Blend: CC-PVDZ
  Basis Set: (CC-PVDZ AUX)
    Blend: CC-PVDZ-JKFIT
  Basis Set: CC-PVDZ
    Blend: CC-PVDZ
  @DF-UKS Final Energy:  -588.15365502912061
    Total Energy =                       -588.1536550291206140
  @DF-UKS Final Energy:  -588.25824131798447
    Total Energy =                       -588.2582413179844707
  @DF-UKS Final Energy:  -588.28281270753178
    Total Energy =                       -588.2828127075318889
  @DF-UKS Final Energy:  -588.29295721192409
    Total Energy =                       -588.2929572119240902
  @DF-UKS Final Energy:  -588.29518118358533
    Total Energy =                       -588.2951811835853277
  @DF-UKS Final Energy:  -588.29583616020716
    Total Energy =                       -588.2958361602071591
  @DF-UKS Final Energy:  -588.29612615407495
    Total Energy =                       -588.2961261540750684
  @DF-UKS Final Energy:  -588.29620237994243
    Total Energy =                       -588.2962023799423150
  @DF-UKS Final Energy:  -588.29623069499985
    Total Energy =                       -588.2962306949998492
  Basis Set: (CC-PVDZ AUX)
    Blend: CC-PVDZ-JKFIT
  Basis Set: CC-PVDZ
    Blend: CC-PVDZ
  Basis Set: (CC-PVDZ AUX)
    Blend: CC-PVDZ-JKFIT
  @DF-UKS Final Energy:  -588.29623591138557
    Total Energy =                       -588.2962359113855655
  Basis Set: CC-PVDZ
    Blend: CC-PVDZ
  Basis Set: (CC-PVDZ AUX)
    Blend: CC-PVDZ-JKFIT
  Charge       = 0
  Multiplicity = 4
  Basis Set: CC-PVDZ
    Blend: CC-PVDZ
  Basis Set: (CC-PVDZ AUX)
    Blend: CC-PVDZ-JKFIT

    Orbital Energies [Eh]
    ---------------------

    Alpha Occupied:

       1A1  -101.611129     2A1   -31.034786     3A1    -9.534336
       1B1    -7.302650     4A1    -7.300106     1B2    -7.279985
       5A1    -1.505367     6A1    -0.906993     7A1    -0.634298
       2B1    -0.608505     2B2    -0.606202     3B1    -0.439547
       8A1    -0.395331     3B2    -0.384727     9A1     0.408062

    Alpha Virtual:

       4B1     0.471642     4B2     0.503462    10A1     0.544240
       5B1     0.604677    11A1     0.620446     1A2     0.633664
       5B2     0.643086    12A1     0.665625     6B1     1.340695
       6B2     1.344183    13A1     1.446853    14A1     2.097091
       7B1     4.654014     7B2     4.655306    15A1     4.660437
       2A2     4.660736    16A1     4.667310

    Beta Occupied:

       1A1  -101.591824     2A1   -31.030203     3A1    -9.515205
       1B1    -7.272870     1B2    -7.268534     4A1    -7.256907
       5A1    -1.496120     6A1    -0.789333     2B2    -0.602095
       2B1    -0.601873     7A1    -0.600796     3B2    -0.345832

    Beta Virtual:

       3B1    -0.250279     8A1    -0.192335     4B2     0.528840
       4B1     0.536426     9A1     0.579169    10A1     0.619229
       1A2     0.705737    11A1     0.710504     5B2     0.716198
       5B1     0.731699    12A1     0.741581     6B1     1.346612
       6B2     1.347950    13A1     1.461131    14A1     2.111896
       7B1     4.663217    15A1     4.663559     7B2     4.663786
       2A2     4.663801    16A1     4.678044

    Final Occupation by Irrep:
             A1    A2    B1    B2
    DOCC [     7,    0,    2,    3 ]
    SOCC [     2,    0,    1,    0 ]
    NA   [     9,    0,    3,    3 ]
    NB   [     7,    0,    2,    3 ]

  @DF-UKS Final Energy:  -588.29623645242066

   => Energetics <=

    Nuclear Repulsion Energy =             43.8581333106200475
    One-Electron Energy =                -903.4051332564603172
    Two-Electron Energy =                 304.1034940701338769
    DFT Exchange-Correlation Energy =     -32.8527305767142863
    Empirical Dispersion Energy =           0.0000000000000000
    VV10 Nonlocal Energy =                  0.0000000000000000
    Total Energy =                       -588.2962364524207715

  UHF NO Occupations:
  HONO-2 :    3 B1 1.0000000
  HONO-1 :    8 A1 1.0000000
  HONO-0 :    9 A1 1.0000000
  LUNO+0 :   10 A1 0.0011715
  LUNO+1 :    4 B2 0.0001416
  LUNO+2 :   11 A1 0.0000538
  LUNO+3 :    4 B1 0.0000073

Computation Completed

Properties will be evaluated at   0.000000,   0.000000,   0.000000 [a0]

Properties computed using the SCF density matrix

 Multipole Moments:

 ------------------------------------------------------------------------------------
     Multipole            Electronic (a.u.)      Nuclear  (a.u.)        Total (a.u.)
 ------------------------------------------------------------------------------------

 L = 1.  Multiply by 2.5417464519 to convert [e a0] to [Debye]
 Dipole X            :          0.0000000            0.0000000            0.0000000
 Dipole Y            :          0.0000000            0.0000000            0.0000000
 Dipole Z            :          0.2654938            0.6923450            0.9578388
 Magnitude           :                                                    0.9578388

 ------------------------------------------------------------------------------------

*** tstop() called on Joses-MacBook-Pro-2.local at Wed Jul 16 19:37:49 2025
Module time:
	user time   =       3.37 seconds =       0.06 minutes
	system time =       3.23 seconds =       0.05 minutes
	total time  =          0 seconds =       0.00 minutes
Total time:
	user time   =      64.12 seconds =       1.07 minutes
	system time =      70.55 seconds =       1.18 minutes
	total time  =         12 seconds =       0.20 minutes

*** tstart() called on Joses-MacBook-Pro-2.local
*** at Wed Jul 16 19:37:49 2025

         ------------------------------------------------------------
                                   SCF GRAD
                          Rob Parrish, Justin Turney,
                       Andy Simmonett, and Alex Sokolov
         ------------------------------------------------------------

  ==> Geometry <==

    Molecular point group: c2v
    Full point group: C_inf_v

    Geometry (in Angstrom), charge = 0, multiplicity = 4:

       Center              X                  Y                   Z               Mass
    ------------   -----------------  -----------------  -----------------  -----------------
         NE           0.000000000000     0.000000000000     1.305041595718    19.992440176200
         CL           0.000000000000     0.000000000000    -0.746120162051    34.968852682000

  Nuclear repulsion =   43.858133310620047

  ==> Basis Set <==

  Basis Set: CC-PVDZ
    Blend: CC-PVDZ
    Number of shells: 14
    Number of basis functions: 32
    Number of Cartesian functions: 34
    Spherical Harmonics?: true
    Max angular momentum: 2

  ==> DFJKGrad: Density-Fitted SCF Gradients <==

    Gradient:                    1
    J tasked:                  Yes
    K tasked:                  Yes
    wK tasked:                  No
    OpenMP threads:              1
    Integrals threads:           1
    Memory [MiB]:              375
    Schwarz Cutoff:          1E-12
    Fitting Condition:       1E-10

   => Auxiliary Basis Set <=

  Basis Set: (CC-PVDZ AUX)
    Blend: CC-PVDZ-JKFIT
    Number of shells: 60
    Number of basis functions: 182
    Number of Cartesian functions: 211
    Spherical Harmonics?: true
    Max angular momentum: 3

  ==> DFT Potential <==

   => LibXC <=

    Version 6.2.2
    S. Lehtola, C. Steigemann, M. J.T. Oliveira, and M. A.L. Marques.,  SoftwareX 7, 1â€“5 (2018) (10.1016/j.softx.2017.11.002)

   => Composite Functional: B3LYP <=

    B3LYP Hyb-GGA Exchange-Correlation Functional

    P. J. Stephens, F. J. Devlin, C. F. Chabalowski, and M. J. Frisch.,  J. Phys. Chem. 98, 11623 (1994) (10.1021/j100096a001)

    Deriv               =              1
    GGA                 =           TRUE
    Meta                =          FALSE

    Exchange Hybrid     =           TRUE
    MP2 Hybrid          =          FALSE

   => Exchange Functionals <=

    0.0800   Slater exchange
    0.7200         Becke 88

   => Exact (HF) Exchange <=

    0.2000               HF

   => Correlation Functionals <=

    0.1900   Vosko, Wilk & Nusair (VWN5_RPA)
    0.8100   Lee, Yang & Parr

   => LibXC Density Thresholds  <==

    XC_HYB_GGA_XC_B3LYP:  1.00E-15

   => Molecular Quadrature <=

    Radial Scheme          =       TREUTLER
    Pruning Scheme         =           NONE
    Nuclear Scheme         =       TREUTLER

    Blocking Scheme        =         OCTREE
    BS radius alpha        =              1
    Pruning alpha          =              1
    Radial Points          =             75
    Spherical Points       =            302
    Total Points           =          41913
    Total Blocks           =            376
    Max Points             =            256
    Max Functions          =             32
    Weights Tolerance      =       1.00E-15

  -Total Gradient:
     Atom            X                  Y                   Z
    ------   -----------------  -----------------  -----------------
       1       -0.000000000000     0.000000000000    -0.000017039120
       2        0.000000000000    -0.000000000000     0.000095524897

*** tstop() called on Joses-MacBook-Pro-2.local at Wed Jul 16 19:37:50 2025
Module time:
	user time   =       1.08 seconds =       0.02 minutes
	system time =       1.33 seconds =       0.02 minutes
	total time  =          1 seconds =       0.02 minutes
Total time:
	user time   =      65.20 seconds =       1.09 minutes
	system time =      71.88 seconds =       1.20 minutes
	total time  =         13 seconds =       0.22 minutes

    			-----------------------------------------

    			 OPTKING 3.0: for geometry optimizations

    			     By R.A. King, Bethel University

    			        with contributions from

    			    A.V. Copan, J. Cayton, A. Heide

    			-----------------------------------------

	                            ===> Fragment 1 <==

	 Z (Atomic Numbers)          Masses                          Geom
	      10.000000            19.992440          0.00000000  0.00000000  2.46617120
	      17.000000            34.968853          0.00000000  0.00000000 -1.40996276

	 - Coordinate -           - BOHR/RAD -       - ANG/DEG -
	 R(1,2)           =         3.876134           2.051162

	        --- Internal Coordinate Step in ANG or DEG, aJ/ANG or AJ/DEG ---
	-------------------------------------------------------------------------------
	           Coordinate      Previous         Force          Change          New
	           ----------      --------        ------          ------        ------
	               R(1,2)       2.05116        0.00046        0.00034       2.05150
	-------------------------------------------------------------------------------

	                                 ==> Convergence Check <==

	Measures of convergence in internal coordinates in au.

	Criteria marked as inactive (o), active & met (*), and active & unmet ( ).

	----------------------------------------------------------------------------------------------
	   Step    Total Energy     Delta E     Max Force     RMS Force      Max Disp      RMS Disp
	----------------------------------------------------------------------------------------------
	  Convergence Criteria     1.00e-06 *    3.00e-04 *             o    1.20e-03 *             o
	----------------------------------------------------------------------------------------------
	    13    -588.29623645   -5.41e-07 *    5.63e-05 *    5.63e-05 o    6.47e-04 *    6.47e-04 o  ~
	----------------------------------------------------------------------------------------------

Next Geometry in Ang
	Fragment 1 (Ang)

	   Ne   0.0000000000   0.0000000000   1.3052128274
	   Cl   0.0000000000   0.0000000000  -0.7462913937

    Final optimized geometry and variables:
    Molecular point group: c2v
    Full point group: C_inf_v

    Geometry (in Angstrom), charge = 0, multiplicity = 4:

    NE           0.000000000000     0.000000000000     1.305041595718
    CL           0.000000000000     0.000000000000    -0.746120162051

    Psi4 stopped on: Wednesday, 16 July 2025 07:37PM
    Psi4 wall time for execution: 0:00:13.65

*** Psi4 exiting successfully. Buy a developer a beer!
