                               Psi4 1.9.1 release

  ==> Input File <==

--------------------------------------------------------------------------
molecule {
0 4
H   0.00000        0.60000        0.00000
Mg   0.00000       -0.60000        0.00000
}

set {
basis              cc-pvdz
reference          uks
maxiter            500
geom_maxiter       500
DAMPING_PERCENTAGE 1
guess              SAP
}

optimize('b3lyp')
--------------------------------------------------------------------------

    Molecular point group: c2v
  Charge       = 0
  Multiplicity = 4
  Basis Set: CC-PVDZ
    Blend: CC-PVDZ
  Basis Set: (CC-PVDZ AUX)
    Blend: CC-PVDZ-JKFIT + DEF2-UNIVERSAL-JKFIT
  @DF-UKS Final Energy:  -200.33038947816598
    Total Energy =                       -200.3303894781659835
 Dipole X            :          0.0000000            0.0000000            0.0000000
 Dipole Y            :          0.0000000            0.0000000            0.0000000
 Dipole Z            :         -0.0547542            1.0789159            1.0241617
 Magnitude           :                                                    1.0241617
    Molecular point group: c2v
  Basis Set: CC-PVDZ
    Blend: CC-PVDZ
  Basis Set: (CC-PVDZ AUX)
    Blend: CC-PVDZ-JKFIT + DEF2-UNIVERSAL-JKFIT
  Basis Set: CC-PVDZ
    Blend: CC-PVDZ
  Basis Set: (CC-PVDZ AUX)
    Blend: CC-PVDZ-JKFIT + DEF2-UNIVERSAL-JKFIT
  @DF-UKS Final Energy:  -200.41450623510082
    Total Energy =                       -200.4145062351008164
  Basis Set: CC-PVDZ
    Blend: CC-PVDZ
  Basis Set: (CC-PVDZ AUX)
    Blend: CC-PVDZ-JKFIT + DEF2-UNIVERSAL-JKFIT
  Basis Set: CC-PVDZ
    Blend: CC-PVDZ
  @DF-UKS Final Energy:  -200.44285153590636
    Total Energy =                       -200.4428515359063852
  @DF-UKS Final Energy:  -200.46244462638887
    Total Energy =                       -200.4624446263889013
  @DF-UKS Final Energy:  -200.47333535033383
    Total Energy =                       -200.4733353503338265
  @DF-UKS Final Energy:  -200.47980104834730
    Total Energy =                       -200.4798010483472979
  @DF-UKS Final Energy:  -200.48370870838920
    Total Energy =                       -200.4837087083891731
  @DF-UKS Final Energy:  -200.48611333328290
    Total Energy =                       -200.4861133332829013
  @DF-UKS Final Energy:  -200.48757385825348
    Total Energy =                       -200.4875738582534268
  @DF-UKS Final Energy:  -200.48843953531809
    Total Energy =                       -200.4884395353181219
  @DF-UKS Final Energy:  -200.48846432233060
    Total Energy =                       -200.4884643223306000
  @DF-UKS Final Energy:  -200.48901321465638
    Total Energy =                       -200.4890132146563815
  @DF-UKS Final Energy:  -200.48902082039444
    Total Energy =                       -200.4890208203944439
  @DF-UKS Final Energy:  -200.48902825271497
    Total Energy =                       -200.4890282527149736
  @DF-UKS Final Energy:  -200.48931162580703
    Total Energy =                       -200.4893116258070336
  @DF-UKS Final Energy:  -200.48931396863117
    Total Energy =                       -200.4893139686311656
  @DF-UKS Final Energy:  -200.48931627182949
    Total Energy =                       -200.4893162718294946
  @DF-UKS Final Energy:  -200.48931854646435
    Total Energy =                       -200.4893185464643466
  Basis Set: (CC-PVDZ AUX)
    Blend: CC-PVDZ-JKFIT + DEF2-UNIVERSAL-JKFIT
  Basis Set: CC-PVDZ
    Blend: CC-PVDZ
  Basis Set: (CC-PVDZ AUX)
    Blend: CC-PVDZ-JKFIT + DEF2-UNIVERSAL-JKFIT
  @DF-UKS Final Energy:  -200.48947064625710
    Total Energy =                       -200.4894706462571321
  Basis Set: CC-PVDZ
    Blend: CC-PVDZ
  Basis Set: (CC-PVDZ AUX)
    Blend: CC-PVDZ-JKFIT + DEF2-UNIVERSAL-JKFIT
  Charge       = 0
  Multiplicity = 4
  Basis Set: CC-PVDZ
    Blend: CC-PVDZ
  Basis Set: (CC-PVDZ AUX)
    Blend: CC-PVDZ-JKFIT + DEF2-UNIVERSAL-JKFIT

    Orbital Energies [Eh]
    ---------------------

    Alpha Occupied:

       1A1   -46.883121     2A1    -3.162005     3A1    -1.906274
       1B1    -1.906265     1B2    -1.903249     4A1    -0.328265
       5A1    -0.244069     2B2    -0.106551

    Alpha Virtual:

       2B1    -0.057178     6A1    -0.054733     7A1     0.083149
       3B2     0.130548     3B1     0.140210     8A1     0.147938
       1A2     0.270829     4B2     0.270866     9A1     0.273100
      10A1     0.279937     4B1     0.282341    11A1     0.448831
       5B1     1.202046     5B2     1.202261    12A1     1.210765

    Beta Occupied:

       1A1   -46.878882     2A1    -3.154886     3A1    -1.902011
       1B1    -1.902002     1B2    -1.894445

    Beta Virtual:

       4A1    -0.138695     5A1    -0.045884     2B1    -0.015611
       6A1     0.000971     2B2     0.003813     7A1     0.116141
       3B1     0.163261     8A1     0.175846     3B2     0.179766
       9A1     0.317003     4B1     0.317469     4B2     0.338327
       1A2     0.338413    10A1     0.344959    11A1     0.657606
       5B2     1.450035     5B1     1.450057    12A1     1.454032

    Final Occupation by Irrep:
             A1    A2    B1    B2
    DOCC [     3,    0,    1,    1 ]
    SOCC [     2,    0,    0,    1 ]
    NA   [     5,    0,    1,    2 ]
    NB   [     3,    0,    1,    1 ]

  @DF-UKS Final Energy:  -200.48947139829602

   => Energetics <=

    Nuclear Repulsion Energy =              1.4896425156946267
    One-Electron Energy =                -282.1381504363531576
    Two-Electron Energy =                  93.6655236506347251
    DFT Exchange-Correlation Energy =     -13.5064871282722230
    Empirical Dispersion Energy =           0.0000000000000000
    VV10 Nonlocal Energy =                  0.0000000000000000
    Total Energy =                       -200.4894713982960184

  UHF NO Occupations:
  HONO-2 :    4 A1 1.0000000
  HONO-1 :    2 B2 1.0000000
  HONO-0 :    5 A1 1.0000000
  LUNO+0 :    2 B1 0.0000008
  LUNO+1 :    6 A1 0.0000008
  LUNO+2 :    3 B2 0.0000004
  LUNO+3 :    7 A1 0.0000001

Computation Completed

Properties will be evaluated at   0.000000,   0.000000,   0.000000 [a0]

Properties computed using the SCF density matrix

 Multipole Moments:

 ------------------------------------------------------------------------------------
     Multipole            Electronic (a.u.)      Nuclear  (a.u.)        Total (a.u.)
 ------------------------------------------------------------------------------------

 L = 1.  Multiply by 2.5417464519 to convert [e a0] to [Debye]
 Dipole X            :          0.0000000            0.0000000            0.0000000
 Dipole Y            :          0.0000000            0.0000000            0.0000000
 Dipole Z            :         -3.7957619            3.8327161            0.0369542
 Magnitude           :                                                    0.0369542

 ------------------------------------------------------------------------------------

*** tstop() called on Joses-MacBook-Pro-2.local at Wed Jul 16 18:15:25 2025
Module time:
	user time   =       1.07 seconds =       0.02 minutes
	system time =       2.34 seconds =       0.04 minutes
	total time  =          0 seconds =       0.00 minutes
Total time:
	user time   =      59.29 seconds =       0.99 minutes
	system time =      82.23 seconds =       1.37 minutes
	total time  =         13 seconds =       0.22 minutes

*** tstart() called on Joses-MacBook-Pro-2.local
*** at Wed Jul 16 18:15:25 2025

         ------------------------------------------------------------
                                   SCF GRAD
                          Rob Parrish, Justin Turney,
                       Andy Simmonett, and Alex Sokolov
         ------------------------------------------------------------

  ==> Geometry <==

    Molecular point group: c2v
    Full point group: C_inf_v

    Geometry (in Angstrom), charge = 0, multiplicity = 4:

       Center              X                  Y                   Z               Mass
    ------------   -----------------  -----------------  -----------------  -----------------
         H            0.000000000000     0.000000000000     4.090955206687     1.007825032230
         MG           0.000000000000     0.000000000000    -0.171897431537    23.985041697000

  Nuclear repulsion =    1.489642515694626

  ==> Basis Set <==

  Basis Set: CC-PVDZ
    Blend: CC-PVDZ
    Number of shells: 11
    Number of basis functions: 23
    Number of Cartesian functions: 24
    Spherical Harmonics?: true
    Max angular momentum: 2

  ==> DFJKGrad: Density-Fitted SCF Gradients <==

    Gradient:                    1
    J tasked:                  Yes
    K tasked:                  Yes
    wK tasked:                  No
    OpenMP threads:              1
    Integrals threads:           1
    Memory [MiB]:              375
    Schwarz Cutoff:          1E-12
    Fitting Condition:       1E-10

   => Auxiliary Basis Set <=

  Basis Set: (CC-PVDZ AUX)
    Blend: CC-PVDZ-JKFIT + DEF2-UNIVERSAL-JKFIT
    Number of shells: 43
    Number of basis functions: 135
    Number of Cartesian functions: 162
    Spherical Harmonics?: true
    Max angular momentum: 4

  ==> DFT Potential <==

   => LibXC <=

    Version 6.2.2
    S. Lehtola, C. Steigemann, M. J.T. Oliveira, and M. A.L. Marques.,  SoftwareX 7, 1â€“5 (2018) (10.1016/j.softx.2017.11.002)

   => Composite Functional: B3LYP <=

    B3LYP Hyb-GGA Exchange-Correlation Functional

    P. J. Stephens, F. J. Devlin, C. F. Chabalowski, and M. J. Frisch.,  J. Phys. Chem. 98, 11623 (1994) (10.1021/j100096a001)

    Deriv               =              1
    GGA                 =           TRUE
    Meta                =          FALSE

    Exchange Hybrid     =           TRUE
    MP2 Hybrid          =          FALSE

   => Exchange Functionals <=

    0.0800   Slater exchange
    0.7200         Becke 88

   => Exact (HF) Exchange <=

    0.2000               HF

   => Correlation Functionals <=

    0.1900   Vosko, Wilk & Nusair (VWN5_RPA)
    0.8100   Lee, Yang & Parr

   => LibXC Density Thresholds  <==

    XC_HYB_GGA_XC_B3LYP:  1.00E-15

   => Molecular Quadrature <=

    Radial Scheme          =       TREUTLER
    Pruning Scheme         =           NONE
    Nuclear Scheme         =       TREUTLER

    Blocking Scheme        =         OCTREE
    BS radius alpha        =              1
    Pruning alpha          =              1
    Radial Points          =             75
    Spherical Points       =            302
    Total Points           =          43585
    Total Blocks           =            425
    Max Points             =            255
    Max Functions          =             23
    Weights Tolerance      =       1.00E-15

  -Total Gradient:
     Atom            X                  Y                   Z
    ------   -----------------  -----------------  -----------------
       1       -0.000000000000     0.000000000000    -0.000186091849
       2       -0.000000000000    -0.000000000000     0.000181483964

*** tstop() called on Joses-MacBook-Pro-2.local at Wed Jul 16 18:15:25 2025
Module time:
	user time   =       0.79 seconds =       0.01 minutes
	system time =       1.30 seconds =       0.02 minutes
	total time  =          0 seconds =       0.00 minutes
Total time:
	user time   =      60.09 seconds =       1.00 minutes
	system time =      83.53 seconds =       1.39 minutes
	total time  =         13 seconds =       0.22 minutes

    			-----------------------------------------

    			 OPTKING 3.0: for geometry optimizations

    			     By R.A. King, Bethel University

    			        with contributions from

    			    A.V. Copan, J. Cayton, A. Heide

    			-----------------------------------------

	                            ===> Fragment 1 <==

	 Z (Atomic Numbers)          Masses                          Geom
	       1.000000             1.007825          0.00000000  0.00000000  7.73078493
	      12.000000            23.985042          0.00000000  0.00000000 -0.32483907

	 - Coordinate -           - BOHR/RAD -       - ANG/DEG -
	 R(1,2)           =         8.055624           4.262853

	        --- Internal Coordinate Step in ANG or DEG, aJ/ANG or AJ/DEG ---
	-------------------------------------------------------------------------------
	           Coordinate      Previous         Force          Change          New
	           ----------      --------        ------          ------        ------
	               R(1,2)       4.26285        0.00151        0.00216       4.26501
	-------------------------------------------------------------------------------

	                                 ==> Convergence Check <==

	Measures of convergence in internal coordinates in au.

	Criteria marked as inactive (o), active & met (*), and active & unmet ( ).

	----------------------------------------------------------------------------------------------
	   Step    Total Energy     Delta E     Max Force     RMS Force      Max Disp      RMS Disp
	----------------------------------------------------------------------------------------------
	  Convergence Criteria     1.00e-06 *    3.00e-04 *             o    1.20e-03 *             o
	----------------------------------------------------------------------------------------------
	    20    -200.48947140   -7.52e-07 *    1.84e-04 *    1.84e-04 o    4.08e-03      4.08e-03 o  ~
	----------------------------------------------------------------------------------------------

Next Geometry in Ang
	Fragment 1 (Ang)

	    H   0.0000000000   0.0000000000   4.0920359659
	   Mg   0.0000000000   0.0000000000  -0.1729781907

    Final optimized geometry and variables:
    Molecular point group: c2v
    Full point group: C_inf_v

    Geometry (in Angstrom), charge = 0, multiplicity = 4:

    H            0.000000000000     0.000000000000     4.090955206687
    MG           0.000000000000     0.000000000000    -0.171897431537

    Psi4 stopped on: Wednesday, 16 July 2025 06:15PM
    Psi4 wall time for execution: 0:00:14.25

*** Psi4 exiting successfully. Buy a developer a beer!
