                               Psi4 1.9.1 release

  ==> Input File <==

--------------------------------------------------------------------------
molecule {
0 4
He   0.00000        0.60000        0.00000
Cl   0.00000       -0.60000        0.00000
}

set {
basis              cc-pvdz
reference          uks
maxiter            500
geom_maxiter       500
DAMPING_PERCENTAGE 1
guess              SAP
}

optimize('b3lyp')
--------------------------------------------------------------------------

    Molecular point group: c2v
  Charge       = 0
  Multiplicity = 4
  Basis Set: CC-PVDZ
    Blend: CC-PVDZ
  Basis Set: (CC-PVDZ AUX)
    Blend: CC-PVDZ-JKFIT + DEF2-UNIVERSAL-JKFIT
  @DF-UKS Final Energy:  -462.14901774603823
    Total Energy =                       -462.1490177460382256
 Dipole X            :          0.0000000            0.0000000            0.0000000
 Dipole Y            :          0.0000000            0.0000000            0.0000000
 Dipole Z            :          0.3220212            0.1101761            0.4321973
 Magnitude           :                                                    0.4321973
    Molecular point group: c2v
  Basis Set: CC-PVDZ
    Blend: CC-PVDZ
  Basis Set: (CC-PVDZ AUX)
    Blend: CC-PVDZ-JKFIT + DEF2-UNIVERSAL-JKFIT
  Basis Set: CC-PVDZ
    Blend: CC-PVDZ
  Basis Set: (CC-PVDZ AUX)
    Blend: CC-PVDZ-JKFIT + DEF2-UNIVERSAL-JKFIT
  @DF-UKS Final Energy:  -462.25317667444153
    Total Energy =                       -462.2531766744415336
  Basis Set: CC-PVDZ
    Blend: CC-PVDZ
  Basis Set: (CC-PVDZ AUX)
    Blend: CC-PVDZ-JKFIT + DEF2-UNIVERSAL-JKFIT
  Basis Set: CC-PVDZ
    Blend: CC-PVDZ
  @DF-UKS Final Energy:  -462.27109995626671
    Total Energy =                       -462.2710999562667098
  @DF-UKS Final Energy:  -462.28162790842958
    Total Energy =                       -462.2816279084295275
  @DF-UKS Final Energy:  -462.28385396422038
    Total Energy =                       -462.2838539642203841
  @DF-UKS Final Energy:  -462.28467577253338
    Total Energy =                       -462.2846757725333759
  @DF-UKS Final Energy:  -462.28494752661766
    Total Energy =                       -462.2849475266176569
  @DF-UKS Final Energy:  -462.28510975280102
    Total Energy =                       -462.2851097528010769
  @DF-UKS Final Energy:  -462.28516985171672
    Total Energy =                       -462.2851698517166597
  @DF-UKS Final Energy:  -462.28520656172225
    Total Energy =                       -462.2852065617222479
  @DF-UKS Final Energy:  -462.28522819427803
    Total Energy =                       -462.2852281942780337
  @DF-UKS Final Energy:  -462.28524129443167
    Total Energy =                       -462.2852412944316143
  @DF-UKS Final Energy:  -462.28525264766847
    Total Energy =                       -462.2852526476684716
  @DF-UKS Final Energy:  -462.28527067672979
    Total Energy =                       -462.2852706767297946
  @DF-UKS Final Energy:  -462.28560002575068
    Total Energy =                       -462.2856000257506821
  @DF-UKS Final Energy:  -462.30892198315291
    Total Energy =                       -462.3089219831529135
  @DF-UKS Final Energy:  -462.31371018917270
    Total Energy =                       -462.3137101891726388
  @DF-UKS Final Energy:  -462.31999009280173
    Total Energy =                       -462.3199900928017314
  @DF-UKS Final Energy:  -462.32108756906200
    Total Energy =                       -462.3210875690620583
  @DF-UKS Final Energy:  -462.32139434149212
    Total Energy =                       -462.3213943414920664
  @DF-UKS Final Energy:  -462.32144433430619
    Total Energy =                       -462.3214443343062499
  @DF-UKS Final Energy:  -462.32145483335484
    Total Energy =                       -462.3214548333548350
  Basis Set: (CC-PVDZ AUX)
    Blend: CC-PVDZ-JKFIT + DEF2-UNIVERSAL-JKFIT
  Basis Set: CC-PVDZ
    Blend: CC-PVDZ
  Basis Set: (CC-PVDZ AUX)
    Blend: CC-PVDZ-JKFIT + DEF2-UNIVERSAL-JKFIT
  @DF-UKS Final Energy:  -462.32145782933117
    Total Energy =                       -462.3214578293311661
  Basis Set: CC-PVDZ
    Blend: CC-PVDZ
  Basis Set: (CC-PVDZ AUX)
    Blend: CC-PVDZ-JKFIT + DEF2-UNIVERSAL-JKFIT
  Charge       = 0
  Multiplicity = 4
  Basis Set: CC-PVDZ
    Blend: CC-PVDZ
  Basis Set: (CC-PVDZ AUX)
    Blend: CC-PVDZ-JKFIT + DEF2-UNIVERSAL-JKFIT

    Orbital Energies [Eh]
    ---------------------

    Alpha Occupied:

       1A1  -101.630009     2A1    -9.565465     1B2    -7.334067
       3A1    -7.330767     1B1    -7.309625     4A1    -0.935802
       5A1    -0.636128     2B2    -0.472101     6A1    -0.466800
       2B1    -0.416020     7A1     0.376016

    Alpha Virtual:

       3B2     0.447739     3B1     0.480341     8A1     0.502043
       9A1     0.571361     4B2     0.571707     1A2     0.601664
       4B1     0.615561    10A1     0.624260    11A1     1.147082
       5B2     2.203600     5B1     2.203704    12A1     2.206153

    Beta Occupied:

       1A1  -101.609173     2A1    -9.545186     1B2    -7.303435
       1B1    -7.297581     3A1    -7.282418     4A1    -0.813790
       5A1    -0.633904     2B1    -0.378396

    Beta Virtual:

       2B2    -0.285546     6A1    -0.253306     3B1     0.506116
       3B2     0.511525     7A1     0.539586     8A1     0.570836
       1A2     0.668758     9A1     0.674202     4B1     0.692225
       4B2     0.704540    10A1     0.710974    11A1     1.149643
       5B2     2.204323     5B1     2.204426    12A1     2.207273

    Final Occupation by Irrep:
             A1    A2    B1    B2
    DOCC [     5,    0,    2,    1 ]
    SOCC [     2,    0,    0,    1 ]
    NA   [     7,    0,    2,    2 ]
    NB   [     5,    0,    2,    1 ]

  @DF-UKS Final Energy:  -462.32145820853492

   => Energetics <=

    Nuclear Repulsion Energy =              5.5288126615800506
    One-Electron Energy =                -648.3469322935834498
    Two-Electron Energy =                 204.0784314001714677
    DFT Exchange-Correlation Energy =     -23.5817699767029971
    Empirical Dispersion Energy =           0.0000000000000000
    VV10 Nonlocal Energy =                  0.0000000000000000
    Total Energy =                       -462.3214582085349207

  UHF NO Occupations:
  HONO-2 :    2 B2 1.0000000
  HONO-1 :    6 A1 1.0000000
  HONO-0 :    7 A1 1.0000000
  LUNO+0 :    8 A1 0.0012417
  LUNO+1 :    3 B1 0.0001170
  LUNO+2 :    9 A1 0.0000023
  LUNO+3 :   10 A1 0.0000000

Computation Completed

Properties will be evaluated at   0.000000,   0.000000,   0.000000 [a0]

Properties computed using the SCF density matrix

 Multipole Moments:

 ------------------------------------------------------------------------------------
     Multipole            Electronic (a.u.)      Nuclear  (a.u.)        Total (a.u.)
 ------------------------------------------------------------------------------------

 L = 1.  Multiply by 2.5417464519 to convert [e a0] to [Debye]
 Dipole X            :          0.0000000            0.0000000            0.0000000
 Dipole Y            :          0.0000000            0.0000000            0.0000000
 Dipole Z            :         -0.3690538            0.2987819           -0.0702719
 Magnitude           :                                                    0.0702719

 ------------------------------------------------------------------------------------

*** tstop() called on Joses-MacBook-Pro-2.local at Wed Jul 16 18:26:55 2025
Module time:
	user time   =       6.41 seconds =       0.11 minutes
	system time =       2.58 seconds =       0.04 minutes
	total time  =          1 seconds =       0.02 minutes
Total time:
	user time   =     166.67 seconds =       2.78 minutes
	system time =      91.67 seconds =       1.53 minutes
	total time  =         27 seconds =       0.45 minutes

*** tstart() called on Joses-MacBook-Pro-2.local
*** at Wed Jul 16 18:26:55 2025

         ------------------------------------------------------------
                                   SCF GRAD
                          Rob Parrish, Justin Turney,
                       Andy Simmonett, and Alex Sokolov
         ------------------------------------------------------------

  ==> Geometry <==

    Molecular point group: c2v
    Full point group: C_inf_v

    Geometry (in Angstrom), charge = 0, multiplicity = 4:

       Center              X                  Y                   Z               Mass
    ------------   -----------------  -----------------  -----------------  -----------------
         HE           0.000000000000     0.000000000000     2.920000513446     4.002603254130
         CL           0.000000000000     0.000000000000    -0.334228968375    34.968852682000

  Nuclear repulsion =    5.528812661580051

  ==> Basis Set <==

  Basis Set: CC-PVDZ
    Blend: CC-PVDZ
    Number of shells: 11
    Number of basis functions: 23
    Number of Cartesian functions: 24
    Spherical Harmonics?: true
    Max angular momentum: 2

  ==> DFJKGrad: Density-Fitted SCF Gradients <==

    Gradient:                    1
    J tasked:                  Yes
    K tasked:                  Yes
    wK tasked:                  No
    OpenMP threads:              1
    Integrals threads:           1
    Memory [MiB]:              375
    Schwarz Cutoff:          1E-12
    Fitting Condition:       1E-10

   => Auxiliary Basis Set <=

  Basis Set: (CC-PVDZ AUX)
    Blend: CC-PVDZ-JKFIT + DEF2-UNIVERSAL-JKFIT
    Number of shells: 45
    Number of basis functions: 135
    Number of Cartesian functions: 155
    Spherical Harmonics?: true
    Max angular momentum: 3

  ==> DFT Potential <==

   => LibXC <=

    Version 6.2.2
    S. Lehtola, C. Steigemann, M. J.T. Oliveira, and M. A.L. Marques.,  SoftwareX 7, 1â€“5 (2018) (10.1016/j.softx.2017.11.002)

   => Composite Functional: B3LYP <=

    B3LYP Hyb-GGA Exchange-Correlation Functional

    P. J. Stephens, F. J. Devlin, C. F. Chabalowski, and M. J. Frisch.,  J. Phys. Chem. 98, 11623 (1994) (10.1021/j100096a001)

    Deriv               =              1
    GGA                 =           TRUE
    Meta                =          FALSE

    Exchange Hybrid     =           TRUE
    MP2 Hybrid          =          FALSE

   => Exchange Functionals <=

    0.0800   Slater exchange
    0.7200         Becke 88

   => Exact (HF) Exchange <=

    0.2000               HF

   => Correlation Functionals <=

    0.1900   Vosko, Wilk & Nusair (VWN5_RPA)
    0.8100   Lee, Yang & Parr

   => LibXC Density Thresholds  <==

    XC_HYB_GGA_XC_B3LYP:  1.00E-15

   => Molecular Quadrature <=

    Radial Scheme          =       TREUTLER
    Pruning Scheme         =           NONE
    Nuclear Scheme         =       TREUTLER

    Blocking Scheme        =         OCTREE
    BS radius alpha        =              1
    Pruning alpha          =              1
    Radial Points          =             75
    Spherical Points       =            302
    Total Points           =          42249
    Total Blocks           =            380
    Max Points             =            255
    Max Functions          =             23
    Weights Tolerance      =       1.00E-15

  -Total Gradient:
     Atom            X                  Y                   Z
    ------   -----------------  -----------------  -----------------
       1        0.000000000000     0.000000000000    -0.000029453497
       2        0.000000000000     0.000000000000     0.000016914586

*** tstop() called on Joses-MacBook-Pro-2.local at Wed Jul 16 18:26:55 2025
Module time:
	user time   =       1.55 seconds =       0.03 minutes
	system time =       1.27 seconds =       0.02 minutes
	total time  =          0 seconds =       0.00 minutes
Total time:
	user time   =     168.22 seconds =       2.80 minutes
	system time =      92.94 seconds =       1.55 minutes
	total time  =         27 seconds =       0.45 minutes

    			-----------------------------------------

    			 OPTKING 3.0: for geometry optimizations

    			     By R.A. King, Bethel University

    			        with contributions from

    			    A.V. Copan, J. Cayton, A. Heide

    			-----------------------------------------

	                            ===> Fragment 1 <==

	 Z (Atomic Numbers)          Masses                          Geom
	       2.000000             4.002603          0.00000000  0.00000000  5.51800126
	      17.000000            34.968853          0.00000000  0.00000000 -0.63160121

	 - Coordinate -           - BOHR/RAD -       - ANG/DEG -
	 R(1,2)           =         6.149602           3.254229

	        --- Internal Coordinate Step in ANG or DEG, aJ/ANG or AJ/DEG ---
	-------------------------------------------------------------------------------
	           Coordinate      Previous         Force          Change          New
	           ----------      --------        ------          ------        ------
	               R(1,2)       3.25423        0.00019        0.00161       3.25584
	-------------------------------------------------------------------------------

	                                 ==> Convergence Check <==

	Measures of convergence in internal coordinates in au.

	Criteria marked as inactive (o), active & met (*), and active & unmet ( ).

	----------------------------------------------------------------------------------------------
	   Step    Total Energy     Delta E     Max Force     RMS Force      Max Disp      RMS Disp
	----------------------------------------------------------------------------------------------
	  Convergence Criteria     1.00e-06 *    3.00e-04 *             o    1.20e-03 *             o
	----------------------------------------------------------------------------------------------
	    24    -462.32145821   -3.79e-07 *    2.32e-05 *    2.32e-05 o    3.05e-03      3.05e-03 o  ~
	----------------------------------------------------------------------------------------------

Next Geometry in Ang
	Fragment 1 (Ang)

	   He   0.0000000000   0.0000000000   2.9208062093
	   Cl   0.0000000000   0.0000000000  -0.3350346642

    Final optimized geometry and variables:
    Molecular point group: c2v
    Full point group: C_inf_v

    Geometry (in Angstrom), charge = 0, multiplicity = 4:

    HE           0.000000000000     0.000000000000     2.920000513446
    CL           0.000000000000     0.000000000000    -0.334228968375

    Psi4 stopped on: Wednesday, 16 July 2025 06:26PM
    Psi4 wall time for execution: 0:00:27.67

*** Psi4 exiting successfully. Buy a developer a beer!
