                               Psi4 1.9.1 release

  ==> Input File <==

--------------------------------------------------------------------------
molecule {
0 4
P   0.00000        0.60000        0.00000
Ar   0.00000       -0.60000        0.00000
}

set {
basis              cc-pvdz
reference          uks
maxiter            500
geom_maxiter       500
DAMPING_PERCENTAGE 1
guess              SAP
}

optimize('b3lyp')
--------------------------------------------------------------------------

    Molecular point group: c2v
  Charge       = 0
  Multiplicity = 4
  Basis Set: CC-PVDZ
    Blend: CC-PVDZ
  Basis Set: (CC-PVDZ AUX)
    Blend: CC-PVDZ-JKFIT
  @DF-UKS Final Energy:  -867.22046187241517
    Total Energy =                       -867.2204618724150578
 Dipole X            :          0.0000000            0.0000000            0.0000000
 Dipole Y            :          0.0000000            0.0000000            0.0000000
 Dipole Z            :         -3.2698081            1.3397069           -1.9301012
 Magnitude           :                                                    1.9301012
    Molecular point group: c2v
  Basis Set: CC-PVDZ
    Blend: CC-PVDZ
  Basis Set: (CC-PVDZ AUX)
    Blend: CC-PVDZ-JKFIT
  Basis Set: CC-PVDZ
    Blend: CC-PVDZ
  Basis Set: (CC-PVDZ AUX)
    Blend: CC-PVDZ-JKFIT
  @DF-UKS Final Energy:  -867.26376610862440
    Total Energy =                       -867.2637661086243952
  Basis Set: CC-PVDZ
    Blend: CC-PVDZ
  Basis Set: (CC-PVDZ AUX)
    Blend: CC-PVDZ-JKFIT
  Basis Set: CC-PVDZ
    Blend: CC-PVDZ
  @DF-UKS Final Energy:  -867.34356731569437
    Total Energy =                       -867.3435673156943722
  @DF-UKS Final Energy:  -867.59931582028526
    Total Energy =                       -867.5993158202852555
  @DF-UKS Final Energy:  -868.11293981848075
    Total Energy =                       -868.1129398184806405
  @DF-UKS Final Energy:  -868.32827843747998
    Total Energy =                       -868.3282784374799803
  @DF-UKS Final Energy:  -868.50427242805176
    Total Energy =                       -868.5042724280517632
  @DF-UKS Final Energy:  -868.63497055303128
    Total Energy =                       -868.6349705530312804
  @DF-UKS Final Energy:  -868.72236987373321
    Total Energy =                       -868.7223698737333279
  @DF-UKS Final Energy:  -868.76814900469969
    Total Energy =                       -868.7681490046996942
  @DF-UKS Final Energy:  -868.79264205622906
    Total Energy =                       -868.7926420562290559
  @DF-UKS Final Energy:  -868.80550556287460
    Total Energy =                       -868.8055055628746004
  @DF-UKS Final Energy:  -868.81213830273566
    Total Energy =                       -868.8121383027356615
  @DF-UKS Final Energy:  -868.81548795953768
    Total Energy =                       -868.8154879595376769
  @DF-UKS Final Energy:  -868.81716048582643
    Total Energy =                       -868.8171604858264345
  @DF-UKS Final Energy:  -868.81798685424565
    Total Energy =                       -868.8179868542456461
  @DF-UKS Final Energy:  -868.81838761053950
    Total Energy =                       -868.8183876105395029
  @DF-UKS Final Energy:  -868.81857599287673
    Total Energy =                       -868.8185759928769585
  @DF-UKS Final Energy:  -868.81865997009572
    Total Energy =                       -868.8186599700956094
  @DF-UKS Final Energy:  -868.81869493974148
    Total Energy =                       -868.8186949397414764
  @DF-UKS Final Energy:  -868.81870826424415
    Total Energy =                       -868.8187082642441510
  @DF-UKS Final Energy:  -868.81871181717349
    Total Energy =                       -868.8187118171736074
  Basis Set: (CC-PVDZ AUX)
    Blend: CC-PVDZ-JKFIT
  Basis Set: CC-PVDZ
    Blend: CC-PVDZ
  Basis Set: (CC-PVDZ AUX)
    Blend: CC-PVDZ-JKFIT
  @DF-UKS Final Energy:  -868.81871330240006
    Total Energy =                       -868.8187133024001696
  Basis Set: CC-PVDZ
    Blend: CC-PVDZ
  Basis Set: (CC-PVDZ AUX)
    Blend: CC-PVDZ-JKFIT
  Charge       = 0
  Multiplicity = 4
  Basis Set: CC-PVDZ
    Blend: CC-PVDZ
  Basis Set: (CC-PVDZ AUX)
    Blend: CC-PVDZ-JKFIT

    Orbital Energies [Eh]
    ---------------------

    Alpha Occupied:

       1A1  -115.098097     2A1   -77.116363     3A1   -11.134171
       4A1    -8.684066     1B1    -8.684034     1B2    -8.684034
       5A1    -6.584529     2B2    -4.747944     2B1    -4.747944
       6A1    -4.747944     7A1    -0.962424     8A1    -0.595319
       9A1    -0.420241     3B1    -0.420112     3B2    -0.420112
       4B2    -0.255962     4B1    -0.255962    10A1    -0.255828

    Alpha Virtual:

      11A1     0.329392    12A1     0.392384     5B2     0.401114
       5B1     0.401114    13A1     0.432789    14A1     0.433110
       1A2     0.433116     6B2     0.433121     6B1     0.433121
       7B2     0.584016     7B1     0.584016    15A1     0.603150
      16A1     0.732115     8B2     0.837754     8B1     0.837754
       2A2     0.837786    17A1     0.837796    18A1     0.838041

    Beta Occupied:

       1A1  -115.098077     2A1   -77.104140     3A1   -11.134152
       1B1    -8.684019     1B2    -8.684019     4A1    -8.684015
       5A1    -6.571604     2B2    -4.728832     2B1    -4.728832
       6A1    -4.728829     7A1    -0.962351     8A1    -0.478565
       9A1    -0.420150     3B1    -0.420099     3B2    -0.420099

    Beta Virtual:

       4B2    -0.108928     4B1    -0.108928    10A1    -0.108787
      11A1     0.372831    12A1     0.439138     5B1     0.450933
       5B2     0.450933    13A1     0.529280     6B2     0.530097
       6B1     0.530097    14A1     0.530108     1A2     0.530116
       7B2     0.584003     7B1     0.584003    15A1     0.606873
      16A1     0.732578     2A2     0.837808    17A1     0.837819
       8B1     0.837827     8B2     0.837827    18A1     0.838160

    Final Occupation by Irrep:
             A1    A2    B1    B2
    DOCC [     9,    0,    3,    3 ]
    SOCC [     1,    0,    1,    1 ]
    NA   [    10,    0,    4,    4 ]
    NB   [     9,    0,    3,    3 ]

  @DF-UKS Final Energy:  -868.81871369655551

   => Energetics <=

    Nuclear Repulsion Energy =             32.0267351359922969
    One-Electron Energy =               -1264.0603896424395316
    Two-Electron Energy =                 406.7830518769520722
    DFT Exchange-Correlation Energy =     -43.5681110670603573
    Empirical Dispersion Energy =           0.0000000000000000
    VV10 Nonlocal Energy =                  0.0000000000000000
    Total Energy =                       -868.8187136965555055

  UHF NO Occupations:
  HONO-2 :    4 B2 1.0000000
  HONO-1 :    4 B1 1.0000000
  HONO-0 :   10 A1 1.0000000
  LUNO+0 :   11 A1 0.0000882
  LUNO+1 :   12 A1 0.0000003
  LUNO+2 :    5 B1 0.0000000
  LUNO+3 :    5 B2 0.0000000

Computation Completed

Properties will be evaluated at   0.000000,   0.000000,   0.000000 [a0]

Properties computed using the SCF density matrix

 Multipole Moments:

 ------------------------------------------------------------------------------------
     Multipole            Electronic (a.u.)      Nuclear  (a.u.)        Total (a.u.)
 ------------------------------------------------------------------------------------

 L = 1.  Multiply by 2.5417464519 to convert [e a0] to [Debye]
 Dipole X            :          0.0000000            0.0000000            0.0000000
 Dipole Y            :          0.0000000            0.0000000            0.0000000
 Dipole Z            :         -4.9850174            4.9805897           -0.0044277
 Magnitude           :                                                    0.0044277

 ------------------------------------------------------------------------------------

*** tstop() called on Joses-MacBook-Pro-2.local at Wed Jul 16 20:26:04 2025
Module time:
	user time   =       7.00 seconds =       0.12 minutes
	system time =       3.32 seconds =       0.06 minutes
	total time  =          1 seconds =       0.02 minutes
Total time:
	user time   =     252.22 seconds =       4.20 minutes
	system time =      92.68 seconds =       1.54 minutes
	total time  =         33 seconds =       0.55 minutes

*** tstart() called on Joses-MacBook-Pro-2.local
*** at Wed Jul 16 20:26:04 2025

         ------------------------------------------------------------
                                   SCF GRAD
                          Rob Parrish, Justin Turney,
                       Andy Simmonett, and Alex Sokolov
         ------------------------------------------------------------

  ==> Geometry <==

    Molecular point group: c2v
    Full point group: C_inf_v

    Geometry (in Angstrom), charge = 0, multiplicity = 4:

       Center              X                  Y                   Z               Mass
    ------------   -----------------  -----------------  -----------------  -----------------
         P            0.000000000000     0.000000000000     2.513251925506    30.973761998420
         AR           0.000000000000     0.000000000000    -1.947953572782    39.962383123700

  Nuclear repulsion =   32.026735135992297

  ==> Basis Set <==

  Basis Set: CC-PVDZ
    Blend: CC-PVDZ
    Number of shells: 16
    Number of basis functions: 36
    Number of Cartesian functions: 38
    Spherical Harmonics?: true
    Max angular momentum: 2

  ==> DFJKGrad: Density-Fitted SCF Gradients <==

    Gradient:                    1
    J tasked:                  Yes
    K tasked:                  Yes
    wK tasked:                  No
    OpenMP threads:              1
    Integrals threads:           1
    Memory [MiB]:              375
    Schwarz Cutoff:          1E-12
    Fitting Condition:       1E-10

   => Auxiliary Basis Set <=

  Basis Set: (CC-PVDZ AUX)
    Blend: CC-PVDZ-JKFIT
    Number of shells: 72
    Number of basis functions: 224
    Number of Cartesian functions: 260
    Spherical Harmonics?: true
    Max angular momentum: 3

  ==> DFT Potential <==

   => LibXC <=

    Version 6.2.2
    S. Lehtola, C. Steigemann, M. J.T. Oliveira, and M. A.L. Marques.,  SoftwareX 7, 1â€“5 (2018) (10.1016/j.softx.2017.11.002)

   => Composite Functional: B3LYP <=

    B3LYP Hyb-GGA Exchange-Correlation Functional

    P. J. Stephens, F. J. Devlin, C. F. Chabalowski, and M. J. Frisch.,  J. Phys. Chem. 98, 11623 (1994) (10.1021/j100096a001)

    Deriv               =              1
    GGA                 =           TRUE
    Meta                =          FALSE

    Exchange Hybrid     =           TRUE
    MP2 Hybrid          =          FALSE

   => Exchange Functionals <=

    0.0800   Slater exchange
    0.7200         Becke 88

   => Exact (HF) Exchange <=

    0.2000               HF

   => Correlation Functionals <=

    0.1900   Vosko, Wilk & Nusair (VWN5_RPA)
    0.8100   Lee, Yang & Parr

   => LibXC Density Thresholds  <==

    XC_HYB_GGA_XC_B3LYP:  1.00E-15

   => Molecular Quadrature <=

    Radial Scheme          =       TREUTLER
    Pruning Scheme         =           NONE
    Nuclear Scheme         =       TREUTLER

    Blocking Scheme        =         OCTREE
    BS radius alpha        =              1
    Pruning alpha          =              1
    Radial Points          =             75
    Spherical Points       =            302
    Total Points           =          41026
    Total Blocks           =            438
    Max Points             =            246
    Max Functions          =             36
    Weights Tolerance      =       1.00E-15

  -Total Gradient:
     Atom            X                  Y                   Z
    ------   -----------------  -----------------  -----------------
       1       -0.000000000000     0.000000000000    -0.000008123719
       2        0.000000000000    -0.000000000000     0.000004881643

*** tstop() called on Joses-MacBook-Pro-2.local at Wed Jul 16 20:26:04 2025
Module time:
	user time   =       2.34 seconds =       0.04 minutes
	system time =       1.56 seconds =       0.03 minutes
	total time  =          0 seconds =       0.00 minutes
Total time:
	user time   =     254.57 seconds =       4.24 minutes
	system time =      94.25 seconds =       1.57 minutes
	total time  =         33 seconds =       0.55 minutes

    			-----------------------------------------

    			 OPTKING 3.0: for geometry optimizations

    			     By R.A. King, Bethel University

    			        with contributions from

    			    A.V. Copan, J. Cayton, A. Heide

    			-----------------------------------------

	                            ===> Fragment 1 <==

	 Z (Atomic Numbers)          Masses                          Geom
	      15.000000            30.973762          0.00000000  0.00000000  4.74935782
	      18.000000            39.962383          0.00000000  0.00000000 -3.68109876

	 - Coordinate -           - BOHR/RAD -       - ANG/DEG -
	 R(1,2)           =         8.430457           4.461205

	        --- Internal Coordinate Step in ANG or DEG, aJ/ANG or AJ/DEG ---
	-------------------------------------------------------------------------------
	           Coordinate      Previous         Force          Change          New
	           ----------      --------        ------          ------        ------
	               R(1,2)       4.46121        0.00005        0.01802       4.47923
	-------------------------------------------------------------------------------

	                                 ==> Convergence Check <==

	Measures of convergence in internal coordinates in au.

	Criteria marked as inactive (o), active & met (*), and active & unmet ( ).

	----------------------------------------------------------------------------------------------
	   Step    Total Energy     Delta E     Max Force     RMS Force      Max Disp      RMS Disp
	----------------------------------------------------------------------------------------------
	  Convergence Criteria     1.00e-06 *    3.00e-04 *             o    1.20e-03 *             o
	----------------------------------------------------------------------------------------------
	    24    -868.81871370   -3.94e-07 *    6.50e-06 *    6.50e-06 o    3.41e-02      3.41e-02 o  ~
	----------------------------------------------------------------------------------------------

Next Geometry in Ang
	Fragment 1 (Ang)

	    P   0.0000000000   0.0000000000   2.5222627636
	   Ar   0.0000000000   0.0000000000  -1.9569644108

    Final optimized geometry and variables:
    Molecular point group: c2v
    Full point group: C_inf_v

    Geometry (in Angstrom), charge = 0, multiplicity = 4:

    P            0.000000000000     0.000000000000     2.513251925506
    AR           0.000000000000     0.000000000000    -1.947953572782

    Psi4 stopped on: Wednesday, 16 July 2025 08:26PM
    Psi4 wall time for execution: 0:00:34.22

*** Psi4 exiting successfully. Buy a developer a beer!
