                               Psi4 1.9.1 release

  ==> Input File <==

--------------------------------------------------------------------------
molecule {
0 4
N   0.00000        0.60000        0.00000
Ar   0.00000       -0.60000        0.00000
}

set {
basis              cc-pvdz
reference          uks
maxiter            500
geom_maxiter       500
DAMPING_PERCENTAGE 1
guess              SAP
}

optimize('b3lyp')
--------------------------------------------------------------------------

    Molecular point group: c2v
  Charge       = 0
  Multiplicity = 4
  Basis Set: CC-PVDZ
    Blend: CC-PVDZ
  Basis Set: (CC-PVDZ AUX)
    Blend: CC-PVDZ-JKFIT
  @DF-UKS Final Energy:  -581.45134674658880
    Total Energy =                       -581.4513467465887970
 Dipole X            :          0.0000000            0.0000000            0.0000000
 Dipole Y            :          0.0000000            0.0000000            0.0000000
 Dipole Z            :         -1.3724620            1.1631923           -0.2092697
 Magnitude           :                                                    0.2092697
    Molecular point group: c2v
  Basis Set: CC-PVDZ
    Blend: CC-PVDZ
  Basis Set: (CC-PVDZ AUX)
    Blend: CC-PVDZ-JKFIT
  Basis Set: CC-PVDZ
    Blend: CC-PVDZ
  Basis Set: (CC-PVDZ AUX)
    Blend: CC-PVDZ-JKFIT
  @DF-UKS Final Energy:  -581.66410511247216
    Total Energy =                       -581.6641051124722708
  Basis Set: CC-PVDZ
    Blend: CC-PVDZ
  Basis Set: (CC-PVDZ AUX)
    Blend: CC-PVDZ-JKFIT
  Basis Set: CC-PVDZ
    Blend: CC-PVDZ
  @DF-UKS Final Energy:  -581.82711611964908
    Total Energy =                       -581.8271161196491903
  @DF-UKS Final Energy:  -581.96036801890614
    Total Energy =                       -581.9603680189061379
  @DF-UKS Final Energy:  -582.05261524940499
    Total Energy =                       -582.0526152494048802
  @DF-UKS Final Energy:  -582.09221881380790
    Total Energy =                       -582.0922188138079036
  @DF-UKS Final Energy:  -582.11224287200821
    Total Energy =                       -582.1122428720082098
  @DF-UKS Final Energy:  -582.12214704951077
    Total Energy =                       -582.1221470495107724
  @DF-UKS Final Energy:  -582.12701273064590
    Total Energy =                       -582.1270127306459017
  @DF-UKS Final Energy:  -582.12939098318179
    Total Energy =                       -582.1293909831817928
  @DF-UKS Final Energy:  -582.13054861724891
    Total Energy =                       -582.1305486172489054
  @DF-UKS Final Energy:  -582.13109919579392
    Total Energy =                       -582.1310991957939223
  @DF-UKS Final Energy:  -582.13134689423703
    Total Energy =                       -582.1313468942369127
  @DF-UKS Final Energy:  -582.13144835542892
    Total Energy =                       -582.1314483554289154
  @DF-UKS Final Energy:  -582.13147664712142
    Total Energy =                       -582.1314766471214170
  @DF-UKS Final Energy:  -582.13148928797739
    Total Energy =                       -582.1314892879773879
  @DF-UKS Final Energy:  -582.13149259684633
    Total Energy =                       -582.1314925968463285
  Basis Set: (CC-PVDZ AUX)
    Blend: CC-PVDZ-JKFIT
  Basis Set: CC-PVDZ
    Blend: CC-PVDZ
  Basis Set: (CC-PVDZ AUX)
    Blend: CC-PVDZ-JKFIT
  @DF-UKS Final Energy:  -582.13149382100198
    Total Energy =                       -582.1314938210019818
  Basis Set: CC-PVDZ
    Blend: CC-PVDZ
  Basis Set: (CC-PVDZ AUX)
    Blend: CC-PVDZ-JKFIT
  Charge       = 0
  Multiplicity = 4
  Basis Set: CC-PVDZ
    Blend: CC-PVDZ
  Basis Set: (CC-PVDZ AUX)
    Blend: CC-PVDZ-JKFIT

    Orbital Energies [Eh]
    ---------------------

    Alpha Occupied:

       1A1  -115.098098     2A1   -14.434527     3A1   -11.134182
       4A1    -8.684088     1B1    -8.684042     1B2    -8.684042
       5A1    -0.962470     6A1    -0.801606     7A1    -0.420659
       2B1    -0.420143     2B2    -0.420143     3B2    -0.344156
       3B1    -0.344156     8A1    -0.343610

    Alpha Virtual:

       9A1     0.541003     4B1     0.582140     4B2     0.582140
       5B1     0.659858     5B2     0.659858    10A1     0.684344
      11A1     0.738091    12A1     0.800435     6B1     0.837729
       6B2     0.837729    13A1     0.837759     1A2     0.837765
      14A1     0.840090    15A1     1.679285     2A2     1.679331
       7B2     1.679365     7B1     1.679365    16A1     1.679916

    Beta Occupied:

       1A1  -115.098064     2A1   -14.378289     3A1   -11.134150
       1B1    -8.684017     1B2    -8.684017     4A1    -8.683999
       5A1    -0.962342     6A1    -0.604671     7A1    -0.420148
       2B1    -0.420106     2B2    -0.420106

    Beta Virtual:

       8A1    -0.090260     3B2    -0.089986     3B1    -0.089986
       9A1     0.562434     4B1     0.583051     4B2     0.583051
      10A1     0.715378     5B1     0.766862     5B2     0.766862
      11A1     0.803434    12A1     0.837797     1A2     0.837802
       6B1     0.837885     6B2     0.837885    13A1     0.839827
      14A1     0.890702    15A1     1.826909     7B2     1.826912
       7B1     1.826912     2A2     1.826949    16A1     1.827349

    Final Occupation by Irrep:
             A1    A2    B1    B2
    DOCC [     7,    0,    2,    2 ]
    SOCC [     1,    0,    1,    1 ]
    NA   [     8,    0,    3,    3 ]
    NB   [     7,    0,    2,    2 ]

  @DF-UKS Final Energy:  -582.13149402150725

   => Energetics <=

    Nuclear Repulsion Energy =             18.2538814655944321
    One-Electron Energy =                -838.8877405716600606
    Two-Electron Energy =                 268.8783360078859914
    DFT Exchange-Correlation Energy =     -30.3759709233275963
    Empirical Dispersion Energy =           0.0000000000000000
    VV10 Nonlocal Energy =                  0.0000000000000000
    Total Energy =                       -582.1314940215072511

  UHF NO Occupations:
  HONO-2 :    3 B2 1.0000000
  HONO-1 :    8 A1 1.0000000
  HONO-0 :    3 B1 1.0000000
  LUNO+0 :    9 A1 0.0009793
  LUNO+1 :   10 A1 0.0000009
  LUNO+2 :    4 B1 0.0000000
  LUNO+3 :    4 B2 0.0000000

Computation Completed

Properties will be evaluated at   0.000000,   0.000000,   0.000000 [a0]

Properties computed using the SCF density matrix

 Multipole Moments:

 ------------------------------------------------------------------------------------
     Multipole            Electronic (a.u.)      Nuclear  (a.u.)        Total (a.u.)
 ------------------------------------------------------------------------------------

 L = 1.  Multiply by 2.5417464519 to convert [e a0] to [Debye]
 Dipole X            :          0.0000000            0.0000000            0.0000000
 Dipole Y            :          0.0000000            0.0000000            0.0000000
 Dipole Z            :         -3.5451708            3.5406804           -0.0044904
 Magnitude           :                                                    0.0044904

 ------------------------------------------------------------------------------------

*** tstop() called on Joses-MacBook-Pro-2.local at Wed Jul 16 19:16:28 2025
Module time:
	user time   =       4.49 seconds =       0.07 minutes
	system time =       2.74 seconds =       0.05 minutes
	total time  =          1 seconds =       0.02 minutes
Total time:
	user time   =     125.99 seconds =       2.10 minutes
	system time =     101.35 seconds =       1.69 minutes
	total time  =         24 seconds =       0.40 minutes

*** tstart() called on Joses-MacBook-Pro-2.local
*** at Wed Jul 16 19:16:28 2025

         ------------------------------------------------------------
                                   SCF GRAD
                          Rob Parrish, Justin Turney,
                       Andy Simmonett, and Alex Sokolov
         ------------------------------------------------------------

  ==> Geometry <==

    Molecular point group: c2v
    Full point group: C_inf_v

    Geometry (in Angstrom), charge = 0, multiplicity = 4:

       Center              X                  Y                   Z               Mass
    ------------   -----------------  -----------------  -----------------  -----------------
         N            0.000000000000     0.000000000000     2.704904713862    14.003074004430
         AR           0.000000000000     0.000000000000    -0.947815868886    39.962383123700

  Nuclear repulsion =   18.253881465594432

  ==> Basis Set <==

  Basis Set: CC-PVDZ
    Blend: CC-PVDZ
    Number of shells: 14
    Number of basis functions: 32
    Number of Cartesian functions: 34
    Spherical Harmonics?: true
    Max angular momentum: 2

  ==> DFJKGrad: Density-Fitted SCF Gradients <==

    Gradient:                    1
    J tasked:                  Yes
    K tasked:                  Yes
    wK tasked:                  No
    OpenMP threads:              1
    Integrals threads:           1
    Memory [MiB]:              375
    Schwarz Cutoff:          1E-12
    Fitting Condition:       1E-10

   => Auxiliary Basis Set <=

  Basis Set: (CC-PVDZ AUX)
    Blend: CC-PVDZ-JKFIT
    Number of shells: 60
    Number of basis functions: 182
    Number of Cartesian functions: 211
    Spherical Harmonics?: true
    Max angular momentum: 3

  ==> DFT Potential <==

   => LibXC <=

    Version 6.2.2
    S. Lehtola, C. Steigemann, M. J.T. Oliveira, and M. A.L. Marques.,  SoftwareX 7, 1â€“5 (2018) (10.1016/j.softx.2017.11.002)

   => Composite Functional: B3LYP <=

    B3LYP Hyb-GGA Exchange-Correlation Functional

    P. J. Stephens, F. J. Devlin, C. F. Chabalowski, and M. J. Frisch.,  J. Phys. Chem. 98, 11623 (1994) (10.1021/j100096a001)

    Deriv               =              1
    GGA                 =           TRUE
    Meta                =          FALSE

    Exchange Hybrid     =           TRUE
    MP2 Hybrid          =          FALSE

   => Exchange Functionals <=

    0.0800   Slater exchange
    0.7200         Becke 88

   => Exact (HF) Exchange <=

    0.2000               HF

   => Correlation Functionals <=

    0.1900   Vosko, Wilk & Nusair (VWN5_RPA)
    0.8100   Lee, Yang & Parr

   => LibXC Density Thresholds  <==

    XC_HYB_GGA_XC_B3LYP:  1.00E-15

   => Molecular Quadrature <=

    Radial Scheme          =       TREUTLER
    Pruning Scheme         =           NONE
    Nuclear Scheme         =       TREUTLER

    Blocking Scheme        =         OCTREE
    BS radius alpha        =              1
    Pruning alpha          =              1
    Radial Points          =             75
    Spherical Points       =            302
    Total Points           =          40987
    Total Blocks           =            380
    Max Points             =            256
    Max Functions          =             32
    Weights Tolerance      =       1.00E-15

  -Total Gradient:
     Atom            X                  Y                   Z
    ------   -----------------  -----------------  -----------------
       1       -0.000000000000     0.000000000000    -0.000007631627
       2        0.000000000000    -0.000000000000     0.000006332371

*** tstop() called on Joses-MacBook-Pro-2.local at Wed Jul 16 19:16:28 2025
Module time:
	user time   =       0.93 seconds =       0.02 minutes
	system time =       1.45 seconds =       0.02 minutes
	total time  =          0 seconds =       0.00 minutes
Total time:
	user time   =     126.92 seconds =       2.12 minutes
	system time =     102.80 seconds =       1.71 minutes
	total time  =         24 seconds =       0.40 minutes

    			-----------------------------------------

    			 OPTKING 3.0: for geometry optimizations

    			     By R.A. King, Bethel University

    			        with contributions from

    			    A.V. Copan, J. Cayton, A. Heide

    			-----------------------------------------

	                            ===> Fragment 1 <==

	 Z (Atomic Numbers)          Masses                          Geom
	       7.000000            14.003074          0.00000000  0.00000000  5.11152910
	      18.000000            39.962383          0.00000000  0.00000000 -1.79111241

	 - Coordinate -           - BOHR/RAD -       - ANG/DEG -
	 R(1,2)           =         6.902642           3.652721

	        --- Internal Coordinate Step in ANG or DEG, aJ/ANG or AJ/DEG ---
	-------------------------------------------------------------------------------
	           Coordinate      Previous         Force          Change          New
	           ----------      --------        ------          ------        ------
	               R(1,2)       3.65272        0.00006        0.00633       3.65905
	-------------------------------------------------------------------------------

	                                 ==> Convergence Check <==

	Measures of convergence in internal coordinates in au.

	Criteria marked as inactive (o), active & met (*), and active & unmet ( ).

	----------------------------------------------------------------------------------------------
	   Step    Total Energy     Delta E     Max Force     RMS Force      Max Disp      RMS Disp
	----------------------------------------------------------------------------------------------
	  Convergence Criteria     1.00e-06 *    3.00e-04 *             o    1.20e-03 *             o
	----------------------------------------------------------------------------------------------
	    19    -582.13149402   -2.01e-07 *    6.98e-06 *    6.98e-06 o    1.20e-02      1.20e-02 o  ~
	----------------------------------------------------------------------------------------------

Next Geometry in Ang
	Fragment 1 (Ang)

	    N   0.0000000000   0.0000000000   2.7080680323
	   Ar   0.0000000000   0.0000000000  -0.9509791873

    Final optimized geometry and variables:
    Molecular point group: c2v
    Full point group: C_inf_v

    Geometry (in Angstrom), charge = 0, multiplicity = 4:

    N            0.000000000000     0.000000000000     2.704904713862
    AR           0.000000000000     0.000000000000    -0.947815868886

    Psi4 stopped on: Wednesday, 16 July 2025 07:16PM
    Psi4 wall time for execution: 0:00:24.13

*** Psi4 exiting successfully. Buy a developer a beer!
