                               Psi4 1.9.1 release

  ==> Input File <==

--------------------------------------------------------------------------
molecule {
0 4
O   0.00000        0.60000        0.00000
F   0.00000       -0.60000        0.00000
}

set {
basis              cc-pvdz
reference          uks
maxiter            500
geom_maxiter       500
DAMPING_PERCENTAGE 1
guess              SAP
}

optimize('b3lyp')
--------------------------------------------------------------------------

    Molecular point group: c2v
  Charge       = 0
  Multiplicity = 4
  Basis Set: CC-PVDZ
    Blend: CC-PVDZ
  Basis Set: (CC-PVDZ AUX)
    Blend: CC-PVDZ-JKFIT
  @DF-UKS Final Energy:  -174.59400368838874
    Total Energy =                       -174.5940036883887387
 Dipole X            :          0.0000000            0.0000000            0.0000000
 Dipole Y            :          0.0000000            0.0000000            0.0000000
 Dipole Z            :         -0.5700452            0.5205619           -0.0494833
 Magnitude           :                                                    0.0494833
    Molecular point group: c2v
  Basis Set: CC-PVDZ
    Blend: CC-PVDZ
  Basis Set: (CC-PVDZ AUX)
    Blend: CC-PVDZ-JKFIT
  Basis Set: CC-PVDZ
    Blend: CC-PVDZ
  Basis Set: (CC-PVDZ AUX)
    Blend: CC-PVDZ-JKFIT
  @DF-UKS Final Energy:  -174.79197475013987
    Total Energy =                       -174.7919747501398717
  Basis Set: CC-PVDZ
    Blend: CC-PVDZ
  Basis Set: (CC-PVDZ AUX)
    Blend: CC-PVDZ-JKFIT
  Basis Set: CC-PVDZ
    Blend: CC-PVDZ
  @DF-UKS Final Energy:  -174.81087859962338
    Total Energy =                       -174.8108785996233792
  @DF-UKS Final Energy:  -174.82241879444445
    Total Energy =                       -174.8224187944444452
  @DF-UKS Final Energy:  -174.82465738420564
    Total Energy =                       -174.8246573842056364
  @DF-UKS Final Energy:  -174.82521773798354
    Total Energy =                       -174.8252177379835359
  @DF-UKS Final Energy:  -174.82538110151884
    Total Energy =                       -174.8253811015188433
  @DF-UKS Final Energy:  -174.82544208466632
    Total Energy =                       -174.8254420846663209
  Basis Set: (CC-PVDZ AUX)
    Blend: CC-PVDZ-JKFIT
  Basis Set: CC-PVDZ
    Blend: CC-PVDZ
  Basis Set: (CC-PVDZ AUX)
    Blend: CC-PVDZ-JKFIT
  @DF-UKS Final Energy:  -174.82545795146675
    Total Energy =                       -174.8254579514667455
  Basis Set: CC-PVDZ
    Blend: CC-PVDZ
  Basis Set: (CC-PVDZ AUX)
    Blend: CC-PVDZ-JKFIT
  Charge       = 0
  Multiplicity = 4
  Basis Set: CC-PVDZ
    Blend: CC-PVDZ
  Basis Set: (CC-PVDZ AUX)
    Blend: CC-PVDZ-JKFIT

    Orbital Energies [Eh]
    ---------------------

    Alpha Occupied:

       1A1   -24.713411     2A1   -19.358370     3A1    -1.179571
       4A1    -1.057316     5A1    -0.535280     1B1    -0.505392
       1B2    -0.505392     2B1    -0.401477     2B2    -0.401477
       6A1    -0.340634

    Alpha Virtual:

       3B1     0.775657     3B2     0.775657     7A1     0.850248
       8A1     1.086799     4B1     1.158351     4B2     1.158351
       9A1     1.219952    10A1     1.734203    11A1     2.396028
       1A2     2.396031     5B1     2.437593     5B2     2.437593
      12A1     2.635340     6B2     3.548898     6B1     3.548898
       2A2     3.563328    13A1     3.563353    14A1     3.744387

    Beta Occupied:

       1A1   -24.683891     2A1   -19.297699     3A1    -1.096266
       4A1    -0.889581     5A1    -0.406447     1B2    -0.365260
       1B1    -0.365260

    Beta Virtual:

       2B1    -0.211712     2B2    -0.211712     6A1    -0.118015
       3B1     0.876122     3B2     0.876122     7A1     0.919849
       8A1     1.174476     4B1     1.193490     4B2     1.193490
       9A1     1.279082    10A1     1.795613    11A1     2.552691
       1A2     2.552697     5B1     2.558902     5B2     2.558902
      12A1     2.735309     2A2     3.602708    13A1     3.602735
       6B2     3.618317     6B1     3.618317    14A1     3.824508

    Final Occupation by Irrep:
             A1    A2    B1    B2
    DOCC [     5,    0,    1,    1 ]
    SOCC [     1,    0,    1,    1 ]
    NA   [     6,    0,    2,    2 ]
    NB   [     5,    0,    1,    1 ]

  @DF-UKS Final Energy:  -174.82545937119099

   => Energetics <=

    Nuclear Repulsion Energy =             21.8787438248425055
    One-Electron Energy =                -286.3650178245213738
    Two-Electron Energy =                 104.9035653124184932
    DFT Exchange-Correlation Energy =     -15.2427506839306215
    Empirical Dispersion Energy =           0.0000000000000000
    VV10 Nonlocal Energy =                  0.0000000000000000
    Total Energy =                       -174.8254593711909877

  UHF NO Occupations:
  HONO-2 :    2 B2 1.0000000
  HONO-1 :    6 A1 1.0000000
  HONO-0 :    2 B1 1.0000000
  LUNO+0 :    7 A1 0.0014897
  LUNO+1 :    3 B1 0.0007953
  LUNO+2 :    3 B2 0.0007953
  LUNO+3 :    8 A1 0.0005112

Computation Completed

Properties will be evaluated at   0.000000,   0.000000,   0.000000 [a0]

Properties computed using the SCF density matrix

 Multipole Moments:

 ------------------------------------------------------------------------------------
     Multipole            Electronic (a.u.)      Nuclear  (a.u.)        Total (a.u.)
 ------------------------------------------------------------------------------------

 L = 1.  Multiply by 2.5417464519 to convert [e a0] to [Debye]
 Dipole X            :          0.0000000            0.0000000            0.0000000
 Dipole Y            :          0.0000000            0.0000000            0.0000000
 Dipole Z            :         -0.2102723            0.7554443            0.5451720
 Magnitude           :                                                    0.5451720

 ------------------------------------------------------------------------------------

*** tstop() called on Joses-MacBook-Pro-2.local at Wed Jul 16 19:17:28 2025
Module time:
	user time   =       4.46 seconds =       0.07 minutes
	system time =       3.40 seconds =       0.06 minutes
	total time  =          1 seconds =       0.02 minutes
Total time:
	user time   =      63.29 seconds =       1.05 minutes
	system time =      47.83 seconds =       0.80 minutes
	total time  =         11 seconds =       0.18 minutes

*** tstart() called on Joses-MacBook-Pro-2.local
*** at Wed Jul 16 19:17:28 2025

         ------------------------------------------------------------
                                   SCF GRAD
                          Rob Parrish, Justin Turney,
                       Andy Simmonett, and Alex Sokolov
         ------------------------------------------------------------

  ==> Geometry <==

    Molecular point group: c2v
    Full point group: C_inf_v

    Geometry (in Angstrom), charge = 0, multiplicity = 4:

       Center              X                  Y                   Z               Mass
    ------------   -----------------  -----------------  -----------------  -----------------
         O            0.000000000000     0.000000000000     0.945460141800    15.994914619570
         F            0.000000000000     0.000000000000    -0.795990805899    18.998403162730

  Nuclear repulsion =   21.878743824842505

  ==> Basis Set <==

  Basis Set: CC-PVDZ
    Blend: CC-PVDZ
    Number of shells: 12
    Number of basis functions: 28
    Number of Cartesian functions: 30
    Spherical Harmonics?: true
    Max angular momentum: 2

  ==> DFJKGrad: Density-Fitted SCF Gradients <==

    Gradient:                    1
    J tasked:                  Yes
    K tasked:                  Yes
    wK tasked:                  No
    OpenMP threads:              1
    Integrals threads:           1
    Memory [MiB]:              375
    Schwarz Cutoff:          1E-12
    Fitting Condition:       1E-10

   => Auxiliary Basis Set <=

  Basis Set: (CC-PVDZ AUX)
    Blend: CC-PVDZ-JKFIT
    Number of shells: 48
    Number of basis functions: 140
    Number of Cartesian functions: 162
    Spherical Harmonics?: true
    Max angular momentum: 3

  ==> DFT Potential <==

   => LibXC <=

    Version 6.2.2
    S. Lehtola, C. Steigemann, M. J.T. Oliveira, and M. A.L. Marques.,  SoftwareX 7, 1â€“5 (2018) (10.1016/j.softx.2017.11.002)

   => Composite Functional: B3LYP <=

    B3LYP Hyb-GGA Exchange-Correlation Functional

    P. J. Stephens, F. J. Devlin, C. F. Chabalowski, and M. J. Frisch.,  J. Phys. Chem. 98, 11623 (1994) (10.1021/j100096a001)

    Deriv               =              1
    GGA                 =           TRUE
    Meta                =          FALSE

    Exchange Hybrid     =           TRUE
    MP2 Hybrid          =          FALSE

   => Exchange Functionals <=

    0.0800   Slater exchange
    0.7200         Becke 88

   => Exact (HF) Exchange <=

    0.2000               HF

   => Correlation Functionals <=

    0.1900   Vosko, Wilk & Nusair (VWN5_RPA)
    0.8100   Lee, Yang & Parr

   => LibXC Density Thresholds  <==

    XC_HYB_GGA_XC_B3LYP:  1.00E-15

   => Molecular Quadrature <=

    Radial Scheme          =       TREUTLER
    Pruning Scheme         =           NONE
    Nuclear Scheme         =       TREUTLER

    Blocking Scheme        =         OCTREE
    BS radius alpha        =              1
    Pruning alpha          =              1
    Radial Points          =             75
    Spherical Points       =            302
    Total Points           =          42087
    Total Blocks           =            366
    Max Points             =            254
    Max Functions          =             28
    Weights Tolerance      =       1.00E-15

  -Total Gradient:
     Atom            X                  Y                   Z
    ------   -----------------  -----------------  -----------------
       1        0.000000000000     0.000000000000    -0.000105878938
       2       -0.000000000000     0.000000000000     0.000121670224

*** tstop() called on Joses-MacBook-Pro-2.local at Wed Jul 16 19:17:28 2025
Module time:
	user time   =       0.90 seconds =       0.01 minutes
	system time =       1.11 seconds =       0.02 minutes
	total time  =          0 seconds =       0.00 minutes
Total time:
	user time   =      64.20 seconds =       1.07 minutes
	system time =      48.94 seconds =       0.82 minutes
	total time  =         11 seconds =       0.18 minutes

    			-----------------------------------------

    			 OPTKING 3.0: for geometry optimizations

    			     By R.A. King, Bethel University

    			        with contributions from

    			    A.V. Copan, J. Cayton, A. Heide

    			-----------------------------------------

	                            ===> Fragment 1 <==

	 Z (Atomic Numbers)          Masses                          Geom
	       8.000000            15.994915          0.00000000  0.00000000  1.78666073
	       9.000000            18.998403          0.00000000  0.00000000 -1.50420462

	 - Coordinate -           - BOHR/RAD -       - ANG/DEG -
	 R(1,2)           =         3.290865           1.741451

	        --- Internal Coordinate Step in ANG or DEG, aJ/ANG or AJ/DEG ---
	-------------------------------------------------------------------------------
	           Coordinate      Previous         Force          Change          New
	           ----------      --------        ------          ------        ------
	               R(1,2)       1.74145        0.00094        0.00042       1.74187
	-------------------------------------------------------------------------------

	                                 ==> Convergence Check <==

	Measures of convergence in internal coordinates in au.

	Criteria marked as inactive (o), active & met (*), and active & unmet ( ).

	----------------------------------------------------------------------------------------------
	   Step    Total Energy     Delta E     Max Force     RMS Force      Max Disp      RMS Disp
	----------------------------------------------------------------------------------------------
	  Convergence Criteria     1.00e-06 *    3.00e-04 *             o    1.20e-03 *             o
	----------------------------------------------------------------------------------------------
	    10    -174.82545937   -1.42e-06      1.14e-04 *    1.14e-04 o    7.90e-04 *    7.90e-04 o  ~
	----------------------------------------------------------------------------------------------

Next Geometry in Ang
	Fragment 1 (Ang)

	    O   0.0000000000   0.0000000000   0.9456691108
	    F   0.0000000000   0.0000000000  -0.7961997749

    Final optimized geometry and variables:
    Molecular point group: c2v
    Full point group: C_inf_v

    Geometry (in Angstrom), charge = 0, multiplicity = 4:

    O            0.000000000000     0.000000000000     0.945460141800
    F            0.000000000000     0.000000000000    -0.795990805899

    Psi4 stopped on: Wednesday, 16 July 2025 07:17PM
    Psi4 wall time for execution: 0:00:12.02

*** Psi4 exiting successfully. Buy a developer a beer!
