                               Psi4 1.9.1 release

  ==> Input File <==

--------------------------------------------------------------------------
molecule {
0 4
Si   0.00000        0.60000        0.00000
P   0.00000       -0.60000        0.00000
}

set {
basis              cc-pvdz
reference          uks
maxiter            500
geom_maxiter       500
DAMPING_PERCENTAGE 1
guess              SAP
}

optimize('b3lyp')
--------------------------------------------------------------------------

    Molecular point group: c2v
  Charge       = 0
  Multiplicity = 4
  Basis Set: CC-PVDZ
    Blend: CC-PVDZ
  Basis Set: (CC-PVDZ AUX)
    Blend: CC-PVDZ-JKFIT
  @DF-UKS Final Energy:  -629.43618291839152
    Total Energy =                       -629.4361829183915233
 Dipole X            :          0.0000000            0.0000000            0.0000000
 Dipole Y            :          0.0000000            0.0000000            0.0000000
 Dipole Z            :         -0.9674904            0.5377250           -0.4297654
 Magnitude           :                                                    0.4297654
    Molecular point group: c2v
  Basis Set: CC-PVDZ
    Blend: CC-PVDZ
  Basis Set: (CC-PVDZ AUX)
    Blend: CC-PVDZ-JKFIT
  Basis Set: CC-PVDZ
    Blend: CC-PVDZ
  Basis Set: (CC-PVDZ AUX)
    Blend: CC-PVDZ-JKFIT
  @DF-UKS Final Energy:  -629.46337621884675
    Total Energy =                       -629.4633762188468609
  Basis Set: CC-PVDZ
    Blend: CC-PVDZ
  Basis Set: (CC-PVDZ AUX)
    Blend: CC-PVDZ-JKFIT
  Basis Set: CC-PVDZ
    Blend: CC-PVDZ
  @DF-UKS Final Energy:  -629.51515804979886
    Total Energy =                       -629.5151580497988562
  @DF-UKS Final Energy:  -629.69545896415514
    Total Energy =                       -629.6954589641551365
  @DF-UKS Final Energy:  -630.26412561491122
    Total Energy =                       -630.2641256149112223
  @DF-UKS Final Energy:  -630.52560405250654
    Total Energy =                       -630.5256040525065373
  @DF-UKS Final Energy:  -630.65319859193096
    Total Energy =                       -630.6531985919308454
  @DF-UKS Final Energy:  -630.69486859816732
    Total Energy =                       -630.6948685981673179
  @DF-UKS Final Energy:  -630.71201135604292
    Total Energy =                       -630.7120113560429218
  @DF-UKS Final Energy:  -630.71616418824306
    Total Energy =                       -630.7161641882430558
  @DF-UKS Final Energy:  -630.71762955218639
    Total Energy =                       -630.7176295521863949
  @DF-UKS Final Energy:  -630.71789989205740
    Total Energy =                       -630.7178998920574031
  @DF-UKS Final Energy:  -630.71795490535067
    Total Energy =                       -630.7179549053506662
  Basis Set: (CC-PVDZ AUX)
    Blend: CC-PVDZ-JKFIT
  Basis Set: CC-PVDZ
    Blend: CC-PVDZ
  Basis Set: (CC-PVDZ AUX)
    Blend: CC-PVDZ-JKFIT
  @DF-UKS Final Energy:  -630.71796861524069
    Total Energy =                       -630.7179686152406930
  Basis Set: CC-PVDZ
    Blend: CC-PVDZ
  Basis Set: (CC-PVDZ AUX)
    Blend: CC-PVDZ-JKFIT
  Charge       = 0
  Multiplicity = 4
  Basis Set: CC-PVDZ
    Blend: CC-PVDZ
  Basis Set: (CC-PVDZ AUX)
    Blend: CC-PVDZ-JKFIT

    Orbital Energies [Eh]
    ---------------------

    Alpha Occupied:

       1A1   -77.113506     2A1   -66.181093     3A1    -6.582021
       4A1    -5.324174     1B2    -4.747122     5A1    -4.746929
       1B1    -4.738151     6A1    -3.684415     2B2    -3.682810
       2B1    -3.681822     7A1    -0.628131     8A1    -0.447788
       9A1    -0.289754     3B2    -0.282737     3B1    -0.248425
       4B2    -0.171335

    Alpha Virtual:

       4B1    -0.099721    10A1     0.011581    11A1     0.194849
      12A1     0.257552     5B2     0.258794     5B1     0.274911
       6B2     0.306376     6B1     0.322410     1A2     0.325341
      13A1     0.326277    14A1     0.340495     7B2     0.416016
       7B1     0.436233    15A1     0.471024     2A2     0.471337
      16A1     0.495832    17A1     0.597601     8B2     0.621067
       8B1     0.642076    18A1     0.922409

    Beta Occupied:

       1A1   -77.106762     2A1   -66.176086     3A1    -6.574843
       4A1    -5.318379     5A1    -4.735790     1B1    -4.733716
       1B2    -4.730921     2B1    -3.678978     6A1    -3.676282
       2B2    -3.669980     7A1    -0.566733     8A1    -0.381428
       3B1    -0.231067

    Beta Virtual:

       9A1    -0.180837     3B2    -0.152502     4B1    -0.080129
       4B2    -0.046198    10A1     0.050194    11A1     0.223619
      12A1     0.289164     5B1     0.290601     5B2     0.312342
       6B1     0.344178     6B2     0.366641    13A1     0.367252
       1A2     0.371388    14A1     0.378188     7B1     0.446427
       7B2     0.461844    15A1     0.520332     2A2     0.522429
      16A1     0.527594    17A1     0.634492     8B1     0.669195
       8B2     0.689212    18A1     0.959505

    Final Occupation by Irrep:
             A1    A2    B1    B2
    DOCC [     8,    0,    3,    2 ]
    SOCC [     1,    0,    0,    2 ]
    NA   [     9,    0,    3,    4 ]
    NB   [     8,    0,    3,    2 ]

  @DF-UKS Final Energy:  -630.71796986905076

   => Energetics <=

    Nuclear Repulsion Energy =             50.0299381382618904
    One-Electron Energy =                -972.0901381953273130
    Two-Electron Energy =                 326.8306070436641448
    DFT Exchange-Correlation Energy =     -35.4883768556494203
    Empirical Dispersion Energy =           0.0000000000000000
    VV10 Nonlocal Energy =                  0.0000000000000000
    Total Energy =                       -630.7179698690507621

  UHF NO Occupations:
  HONO-2 :    3 B2 1.0000000
  HONO-1 :    9 A1 1.0000000
  HONO-0 :    4 B2 1.0000000
  LUNO+0 :   10 A1 0.0019214
  LUNO+1 :   11 A1 0.0008170
  LUNO+2 :    4 B1 0.0006644
  LUNO+3 :    5 B1 0.0000001

Computation Completed

Properties will be evaluated at   0.000000,   0.000000,   0.000000 [a0]

Properties computed using the SCF density matrix

 Multipole Moments:

 ------------------------------------------------------------------------------------
     Multipole            Electronic (a.u.)      Nuclear  (a.u.)        Total (a.u.)
 ------------------------------------------------------------------------------------

 L = 1.  Multiply by 2.5417464519 to convert [e a0] to [Debye]
 Dipole X            :          0.0000000            0.0000000            0.0000000
 Dipole Y            :          0.0000000            0.0000000            0.0000000
 Dipole Z            :         -0.7441648            0.9953353            0.2511705
 Magnitude           :                                                    0.2511705

 ------------------------------------------------------------------------------------

*** tstop() called on Joses-MacBook-Pro-2.local at Wed Jul 16 20:14:55 2025
Module time:
	user time   =       9.05 seconds =       0.15 minutes
	system time =       1.87 seconds =       0.03 minutes
	total time  =          1 seconds =       0.02 minutes
Total time:
	user time   =     217.53 seconds =       3.63 minutes
	system time =      49.05 seconds =       0.82 minutes
	total time  =         26 seconds =       0.43 minutes

*** tstart() called on Joses-MacBook-Pro-2.local
*** at Wed Jul 16 20:14:55 2025

         ------------------------------------------------------------
                                   SCF GRAD
                          Rob Parrish, Justin Turney,
                       Andy Simmonett, and Alex Sokolov
         ------------------------------------------------------------

  ==> Geometry <==

    Molecular point group: c2v
    Full point group: C_inf_v

    Geometry (in Angstrom), charge = 0, multiplicity = 4:

       Center              X                  Y                   Z               Mass
    ------------   -----------------  -----------------  -----------------  -----------------
         SI           0.000000000000     0.000000000000     1.167066321426    27.976926534650
         P            0.000000000000     0.000000000000    -1.054147982969    30.973761998420

  Nuclear repulsion =   50.029938138261890

  ==> Basis Set <==

  Basis Set: CC-PVDZ
    Blend: CC-PVDZ
    Number of shells: 16
    Number of basis functions: 36
    Number of Cartesian functions: 38
    Spherical Harmonics?: true
    Max angular momentum: 2

  ==> DFJKGrad: Density-Fitted SCF Gradients <==

    Gradient:                    1
    J tasked:                  Yes
    K tasked:                  Yes
    wK tasked:                  No
    OpenMP threads:              1
    Integrals threads:           1
    Memory [MiB]:              375
    Schwarz Cutoff:          1E-12
    Fitting Condition:       1E-10

   => Auxiliary Basis Set <=

  Basis Set: (CC-PVDZ AUX)
    Blend: CC-PVDZ-JKFIT
    Number of shells: 72
    Number of basis functions: 224
    Number of Cartesian functions: 260
    Spherical Harmonics?: true
    Max angular momentum: 3

  ==> DFT Potential <==

   => LibXC <=

    Version 6.2.2
    S. Lehtola, C. Steigemann, M. J.T. Oliveira, and M. A.L. Marques.,  SoftwareX 7, 1â€“5 (2018) (10.1016/j.softx.2017.11.002)

   => Composite Functional: B3LYP <=

    B3LYP Hyb-GGA Exchange-Correlation Functional

    P. J. Stephens, F. J. Devlin, C. F. Chabalowski, and M. J. Frisch.,  J. Phys. Chem. 98, 11623 (1994) (10.1021/j100096a001)

    Deriv               =              1
    GGA                 =           TRUE
    Meta                =          FALSE

    Exchange Hybrid     =           TRUE
    MP2 Hybrid          =          FALSE

   => Exchange Functionals <=

    0.0800   Slater exchange
    0.7200         Becke 88

   => Exact (HF) Exchange <=

    0.2000               HF

   => Correlation Functionals <=

    0.1900   Vosko, Wilk & Nusair (VWN5_RPA)
    0.8100   Lee, Yang & Parr

   => LibXC Density Thresholds  <==

    XC_HYB_GGA_XC_B3LYP:  1.00E-15

   => Molecular Quadrature <=

    Radial Scheme          =       TREUTLER
    Pruning Scheme         =           NONE
    Nuclear Scheme         =       TREUTLER

    Blocking Scheme        =         OCTREE
    BS radius alpha        =              1
    Pruning alpha          =              1
    Radial Points          =             75
    Spherical Points       =            302
    Total Points           =          41610
    Total Blocks           =            385
    Max Points             =            256
    Max Functions          =             36
    Weights Tolerance      =       1.00E-15

  -Total Gradient:
     Atom            X                  Y                   Z
    ------   -----------------  -----------------  -----------------
       1       -0.000000000000     0.000000000000    -0.000097246466
       2        0.000000000000    -0.000000000000     0.000105997756

*** tstop() called on Joses-MacBook-Pro-2.local at Wed Jul 16 20:14:55 2025
Module time:
	user time   =       3.25 seconds =       0.05 minutes
	system time =       1.02 seconds =       0.02 minutes
	total time  =          0 seconds =       0.00 minutes
Total time:
	user time   =     220.78 seconds =       3.68 minutes
	system time =      50.07 seconds =       0.83 minutes
	total time  =         26 seconds =       0.43 minutes

    			-----------------------------------------

    			 OPTKING 3.0: for geometry optimizations

    			     By R.A. King, Bethel University

    			        with contributions from

    			    A.V. Copan, J. Cayton, A. Heide

    			-----------------------------------------

	                            ===> Fragment 1 <==

	 Z (Atomic Numbers)          Masses                          Geom
	      14.000000            27.976927          0.00000000  0.00000000  2.20543572
	      15.000000            30.973762          0.00000000  0.00000000 -1.99205098

	 - Coordinate -           - BOHR/RAD -       - ANG/DEG -
	 R(1,2)           =         4.197487           2.221214

	        --- Internal Coordinate Step in ANG or DEG, aJ/ANG or AJ/DEG ---
	-------------------------------------------------------------------------------
	           Coordinate      Previous         Force          Change          New
	           ----------      --------        ------          ------        ------
	               R(1,2)       2.22121        0.00084        0.00042       2.22163
	-------------------------------------------------------------------------------

	                                 ==> Convergence Check <==

	Measures of convergence in internal coordinates in au.

	Criteria marked as inactive (o), active & met (*), and active & unmet ( ).

	----------------------------------------------------------------------------------------------
	   Step    Total Energy     Delta E     Max Force     RMS Force      Max Disp      RMS Disp
	----------------------------------------------------------------------------------------------
	  Convergence Criteria     1.00e-06 *    3.00e-04 *             o    1.20e-03 *             o
	----------------------------------------------------------------------------------------------
	    15    -630.71796987   -1.25e-06      1.02e-04 *    1.02e-04 o    7.93e-04 *    7.93e-04 o  ~
	----------------------------------------------------------------------------------------------

Next Geometry in Ang
	Fragment 1 (Ang)

	   Si   0.0000000000   0.0000000000   1.1672760216
	    P   0.0000000000   0.0000000000  -1.0543576831

    Final optimized geometry and variables:
    Molecular point group: c2v
    Full point group: C_inf_v

    Geometry (in Angstrom), charge = 0, multiplicity = 4:

    SI           0.000000000000     0.000000000000     1.167066321426
    P            0.000000000000     0.000000000000    -1.054147982969

    Psi4 stopped on: Wednesday, 16 July 2025 08:14PM
    Psi4 wall time for execution: 0:00:26.87

*** Psi4 exiting successfully. Buy a developer a beer!
