                               Psi4 1.9.1 release

  ==> Input File <==

--------------------------------------------------------------------------
molecule {
0 4
H   0.00000        0.60000        0.00000
Ar   0.00000       -0.60000        0.00000
}

set {
basis              cc-pvdz
reference          uks
maxiter            500
geom_maxiter       500
DAMPING_PERCENTAGE 1
guess              SAP
}

optimize('b3lyp')
--------------------------------------------------------------------------

    Molecular point group: c2v
  Charge       = 0
  Multiplicity = 4
  Basis Set: CC-PVDZ
    Blend: CC-PVDZ
  Basis Set: (CC-PVDZ AUX)
    Blend: CC-PVDZ-JKFIT
  @DF-UKS Final Energy:  -527.17060318806341
    Total Energy =                       -527.1706031880634100
 Dipole X            :          0.0000000            0.0000000            0.0000000
 Dipole Y            :          0.0000000            0.0000000            0.0000000
 Dipole Z            :         -3.2455454            1.2078060           -2.0377393
 Magnitude           :                                                    2.0377393
    Molecular point group: c2v
  Basis Set: CC-PVDZ
    Blend: CC-PVDZ
  Basis Set: (CC-PVDZ AUX)
    Blend: CC-PVDZ-JKFIT
  Basis Set: CC-PVDZ
    Blend: CC-PVDZ
  Basis Set: (CC-PVDZ AUX)
    Blend: CC-PVDZ-JKFIT
  @DF-UKS Final Energy:  -527.19932554854472
    Total Energy =                       -527.1993255485447207
  Basis Set: CC-PVDZ
    Blend: CC-PVDZ
  Basis Set: (CC-PVDZ AUX)
    Blend: CC-PVDZ-JKFIT
  Basis Set: CC-PVDZ
    Blend: CC-PVDZ
  @DF-UKS Final Energy:  -527.20018765944815
    Total Energy =                       -527.2001876594480336
  @DF-UKS Final Energy:  -527.20030031653585
    Total Energy =                       -527.2003003165358450
  @DF-UKS Final Energy:  -527.20031568692332
    Total Energy =                       -527.2003156869234317
  Basis Set: (CC-PVDZ AUX)
    Blend: CC-PVDZ-JKFIT
  Basis Set: CC-PVDZ
    Blend: CC-PVDZ
  Basis Set: (CC-PVDZ AUX)
    Blend: CC-PVDZ-JKFIT
  @DF-UKS Final Energy:  -527.20031782785190
    Total Energy =                       -527.2003178278519044
  Basis Set: CC-PVDZ
    Blend: CC-PVDZ
  Basis Set: (CC-PVDZ AUX)
    Blend: CC-PVDZ-JKFIT
  Charge       = 0
  Multiplicity = 4
  Basis Set: CC-PVDZ
    Blend: CC-PVDZ
  Basis Set: (CC-PVDZ AUX)
    Blend: CC-PVDZ-JKFIT

    Orbital Energies [Eh]
    ---------------------

    Alpha Occupied:

       1A1  -115.353785     2A1   -11.364839     1B1    -8.938461
       1B2    -8.909902     3A1    -8.908383     4A1    -1.174065
       2B1    -0.649200     5A1    -0.635286     2B2    -0.584846
       6A1    -0.138079     7A1     0.267641

    Alpha Virtual:

       3B1     0.434804     8A1     0.456859     3B2     0.467579
       4B1     0.597672     9A1     0.624305     1A2     0.625076
       4B2     0.640420    10A1     0.709666    11A1     0.942745
       5B1     1.421657     5B2     1.431571    12A1     1.981011

    Beta Occupied:

       1A1  -115.343419     2A1   -11.354243     1B1    -8.909690
       1B2    -8.903503     3A1    -8.899218     4A1    -1.091828
       5A1    -0.565402     2B2    -0.555003

    Beta Virtual:

       2B1    -0.448268     6A1     0.054071     7A1     0.453731
       3B2     0.483134     3B1     0.487591     8A1     0.491564
       4B2     0.664926     4B1     0.672893     1A2     0.702503
       9A1     0.708733    10A1     0.789180    11A1     1.043902
       5B1     1.529723     5B2     1.532889    12A1     2.094890

    Final Occupation by Irrep:
             A1    A2    B1    B2
    DOCC [     5,    0,    1,    2 ]
    SOCC [     2,    0,    1,    0 ]
    NA   [     7,    0,    2,    2 ]
    NB   [     5,    0,    1,    2 ]

  @DF-UKS Final Energy:  -527.20031817525307

   => Energetics <=

    Nuclear Repulsion Energy =              6.6699093107062382
    One-Electron Energy =                -737.8774099129428805
    Two-Electron Energy =                 229.1441289813096773
    DFT Exchange-Correlation Energy =     -25.1369465543260340
    Empirical Dispersion Energy =           0.0000000000000000
    VV10 Nonlocal Energy =                  0.0000000000000000
    Total Energy =                       -527.2003181752530736

  UHF NO Occupations:
  HONO-2 :    2 B1 1.0000000
  HONO-1 :    6 A1 1.0000000
  HONO-0 :    7 A1 1.0000000
  LUNO+0 :    8 A1 0.0008055
  LUNO+1 :    9 A1 0.0003220
  LUNO+2 :    3 B2 0.0000332
  LUNO+3 :   10 A1 0.0000000

Computation Completed

Properties will be evaluated at   0.000000,   0.000000,   0.000000 [a0]

Properties computed using the SCF density matrix

 Multipole Moments:

 ------------------------------------------------------------------------------------
     Multipole            Electronic (a.u.)      Nuclear  (a.u.)        Total (a.u.)
 ------------------------------------------------------------------------------------

 L = 1.  Multiply by 2.5417464519 to convert [e a0] to [Debye]
 Dipole X            :          0.0000000            0.0000000            0.0000000
 Dipole Y            :          0.0000000            0.0000000            0.0000000
 Dipole Z            :         -3.7689162            1.4373736           -2.3315427
 Magnitude           :                                                    2.3315427

 ------------------------------------------------------------------------------------

*** tstop() called on Joses-MacBook-Pro-2.local at Wed Jul 16 18:18:15 2025
Module time:
	user time   =       2.95 seconds =       0.05 minutes
	system time =       2.71 seconds =       0.05 minutes
	total time  =          1 seconds =       0.02 minutes
Total time:
	user time   =      27.32 seconds =       0.46 minutes
	system time =      28.45 seconds =       0.47 minutes
	total time  =          5 seconds =       0.08 minutes

*** tstart() called on Joses-MacBook-Pro-2.local
*** at Wed Jul 16 18:18:15 2025

         ------------------------------------------------------------
                                   SCF GRAD
                          Rob Parrish, Justin Turney,
                       Andy Simmonett, and Alex Sokolov
         ------------------------------------------------------------

  ==> Geometry <==

    Molecular point group: c2v
    Full point group: C_inf_v

    Geometry (in Angstrom), charge = 0, multiplicity = 4:

       Center              X                  Y                   Z               Mass
    ------------   -----------------  -----------------  -----------------  -----------------
         H            0.000000000000     0.000000000000     1.392954457930     1.007825032230
         AR           0.000000000000     0.000000000000    -0.035129395740    39.962383123700

  Nuclear repulsion =    6.669909310706238

  ==> Basis Set <==

  Basis Set: CC-PVDZ
    Blend: CC-PVDZ
    Number of shells: 11
    Number of basis functions: 23
    Number of Cartesian functions: 24
    Spherical Harmonics?: true
    Max angular momentum: 2

  ==> DFJKGrad: Density-Fitted SCF Gradients <==

    Gradient:                    1
    J tasked:                  Yes
    K tasked:                  Yes
    wK tasked:                  No
    OpenMP threads:              1
    Integrals threads:           1
    Memory [MiB]:              375
    Schwarz Cutoff:          1E-12
    Fitting Condition:       1E-10

   => Auxiliary Basis Set <=

  Basis Set: (CC-PVDZ AUX)
    Blend: CC-PVDZ-JKFIT
    Number of shells: 45
    Number of basis functions: 135
    Number of Cartesian functions: 155
    Spherical Harmonics?: true
    Max angular momentum: 3

  ==> DFT Potential <==

   => LibXC <=

    Version 6.2.2
    S. Lehtola, C. Steigemann, M. J.T. Oliveira, and M. A.L. Marques.,  SoftwareX 7, 1â€“5 (2018) (10.1016/j.softx.2017.11.002)

   => Composite Functional: B3LYP <=

    B3LYP Hyb-GGA Exchange-Correlation Functional

    P. J. Stephens, F. J. Devlin, C. F. Chabalowski, and M. J. Frisch.,  J. Phys. Chem. 98, 11623 (1994) (10.1021/j100096a001)

    Deriv               =              1
    GGA                 =           TRUE
    Meta                =          FALSE

    Exchange Hybrid     =           TRUE
    MP2 Hybrid          =          FALSE

   => Exchange Functionals <=

    0.0800   Slater exchange
    0.7200         Becke 88

   => Exact (HF) Exchange <=

    0.2000               HF

   => Correlation Functionals <=

    0.1900   Vosko, Wilk & Nusair (VWN5_RPA)
    0.8100   Lee, Yang & Parr

   => LibXC Density Thresholds  <==

    XC_HYB_GGA_XC_B3LYP:  1.00E-15

   => Molecular Quadrature <=

    Radial Scheme          =       TREUTLER
    Pruning Scheme         =           NONE
    Nuclear Scheme         =       TREUTLER

    Blocking Scheme        =         OCTREE
    BS radius alpha        =              1
    Pruning alpha          =              1
    Radial Points          =             75
    Spherical Points       =            302
    Total Points           =          42385
    Total Blocks           =            376
    Max Points             =            256
    Max Functions          =             23
    Weights Tolerance      =       1.00E-15

  -Total Gradient:
     Atom            X                  Y                   Z
    ------   -----------------  -----------------  -----------------
       1        0.000000000000    -0.000000000000    -0.000034273020
       2        0.000000000000     0.000000000000     0.000036037789

*** tstop() called on Joses-MacBook-Pro-2.local at Wed Jul 16 18:18:15 2025
Module time:
	user time   =       0.62 seconds =       0.01 minutes
	system time =       1.10 seconds =       0.02 minutes
	total time  =          0 seconds =       0.00 minutes
Total time:
	user time   =      27.94 seconds =       0.47 minutes
	system time =      29.55 seconds =       0.49 minutes
	total time  =          5 seconds =       0.08 minutes

    			-----------------------------------------

    			 OPTKING 3.0: for geometry optimizations

    			     By R.A. King, Bethel University

    			        with contributions from

    			    A.V. Copan, J. Cayton, A. Heide

    			-----------------------------------------

	                            ===> Fragment 1 <==

	 Z (Atomic Numbers)          Masses                          Geom
	       1.000000             1.007825          0.00000000  0.00000000  2.63230243
	      18.000000            39.962383          0.00000000  0.00000000 -0.06638494

	 - Coordinate -           - BOHR/RAD -       - ANG/DEG -
	 R(1,2)           =         2.698687           1.428084

	        --- Internal Coordinate Step in ANG or DEG, aJ/ANG or AJ/DEG ---
	-------------------------------------------------------------------------------
	           Coordinate      Previous         Force          Change          New
	           ----------      --------        ------          ------        ------
	               R(1,2)       1.42808        0.00029        0.00008       1.42816
	-------------------------------------------------------------------------------

	                                 ==> Convergence Check <==

	Measures of convergence in internal coordinates in au.

	Criteria marked as inactive (o), active & met (*), and active & unmet ( ).

	----------------------------------------------------------------------------------------------
	   Step    Total Energy     Delta E     Max Force     RMS Force      Max Disp      RMS Disp
	----------------------------------------------------------------------------------------------
	  Convergence Criteria     1.00e-06 *    3.00e-04 *             o    1.20e-03 *             o
	----------------------------------------------------------------------------------------------
	     7    -527.20031818   -3.47e-07 *    3.52e-05 *    3.52e-05 o    1.45e-04 *    1.45e-04 o  ~
	----------------------------------------------------------------------------------------------

Next Geometry in Ang
	Fragment 1 (Ang)

	    H   0.0000000000   0.0000000000   1.3929928700
	   Ar   0.0000000000   0.0000000000  -0.0351678078

    Final optimized geometry and variables:
    Molecular point group: c2v
    Full point group: C_inf_v

    Geometry (in Angstrom), charge = 0, multiplicity = 4:

    H            0.000000000000     0.000000000000     1.392954457930
    AR           0.000000000000     0.000000000000    -0.035129395740

    Psi4 stopped on: Wednesday, 16 July 2025 06:18PM
    Psi4 wall time for execution: 0:00:06.06

*** Psi4 exiting successfully. Buy a developer a beer!
