                               Psi4 1.9.1 release

  ==> Input File <==

--------------------------------------------------------------------------
molecule {
0 4
Mg   0.00000        0.60000        0.00000
Al   0.00000       -0.60000        0.00000
}

set {
basis              cc-pvdz
reference          uks
maxiter            500
geom_maxiter       500
DAMPING_PERCENTAGE 1
guess              SAP
}

optimize('b3lyp')
--------------------------------------------------------------------------

    Molecular point group: c2v
  Charge       = 0
  Multiplicity = 4
  Basis Set: CC-PVDZ
    Blend: CC-PVDZ
  Basis Set: (CC-PVDZ AUX)
    Blend: CC-PVDZ-JKFIT + DEF2-UNIVERSAL-JKFIT
  @DF-UKS Final Energy:  -441.59439352820232
    Total Energy =                       -441.5943935282023176
 Dipole X            :          0.0000000            0.0000000            0.0000000
 Dipole Y            :          0.0000000            0.0000000            0.0000000
 Dipole Z            :         -0.2577419            0.5327147            0.2749728
 Magnitude           :                                                    0.2749728
    Molecular point group: c2v
  Basis Set: CC-PVDZ
    Blend: CC-PVDZ
  Basis Set: (CC-PVDZ AUX)
    Blend: CC-PVDZ-JKFIT + DEF2-UNIVERSAL-JKFIT
  Basis Set: CC-PVDZ
    Blend: CC-PVDZ
  Basis Set: (CC-PVDZ AUX)
    Blend: CC-PVDZ-JKFIT + DEF2-UNIVERSAL-JKFIT
  @DF-UKS Final Energy:  -441.60327080562615
    Total Energy =                       -441.6032708056261527
  Basis Set: CC-PVDZ
    Blend: CC-PVDZ
  Basis Set: (CC-PVDZ AUX)
    Blend: CC-PVDZ-JKFIT + DEF2-UNIVERSAL-JKFIT
  Basis Set: CC-PVDZ
    Blend: CC-PVDZ
  @DF-UKS Final Energy:  -441.62047199865862
    Total Energy =                       -441.6204719986586156
  @DF-UKS Final Energy:  -441.68355179171408
    Total Energy =                       -441.6835517917140805
  @DF-UKS Final Energy:  -441.98485225968972
    Total Energy =                       -441.9848522596897169
  @DF-UKS Final Energy:  -442.18413419642962
    Total Energy =                       -442.1841341964295680
  @DF-UKS Final Energy:  -442.32251476307925
    Total Energy =                       -442.3225147630792549
  @DF-UKS Final Energy:  -442.38827403417037
    Total Energy =                       -442.3882740341703652
  @DF-UKS Final Energy:  -442.41527619678232
    Total Energy =                       -442.4152761967823153
  @DF-UKS Final Energy:  -442.42480118852336
    Total Energy =                       -442.4248011885233041
  @DF-UKS Final Energy:  -442.42729951885809
    Total Energy =                       -442.4272995188581490
  @DF-UKS Final Energy:  -442.42763293575388
    Total Energy =                       -442.4276329357538771
  @DF-UKS Final Energy:  -442.42768730333069
    Total Energy =                       -442.4276873033306856
  Basis Set: (CC-PVDZ AUX)
    Blend: CC-PVDZ-JKFIT + DEF2-UNIVERSAL-JKFIT
  Basis Set: CC-PVDZ
    Blend: CC-PVDZ
  Basis Set: (CC-PVDZ AUX)
    Blend: CC-PVDZ-JKFIT + DEF2-UNIVERSAL-JKFIT
  @DF-UKS Final Energy:  -442.42769023050562
    Total Energy =                       -442.4276902305056183
  Basis Set: CC-PVDZ
    Blend: CC-PVDZ
  Basis Set: (CC-PVDZ AUX)
    Blend: CC-PVDZ-JKFIT + DEF2-UNIVERSAL-JKFIT
  Charge       = 0
  Multiplicity = 4
  Basis Set: CC-PVDZ
    Blend: CC-PVDZ
  Basis Set: (CC-PVDZ AUX)
    Blend: CC-PVDZ-JKFIT + DEF2-UNIVERSAL-JKFIT

    Orbital Energies [Eh]
    ---------------------

    Alpha Occupied:

       1A1   -56.057000     2A1   -46.876212     3A1    -4.138452
       4A1    -3.156896     5A1    -2.692306     1B1    -2.690519
       1B2    -2.690519     6A1    -1.900676     2B2    -1.899926
       2B1    -1.899926     7A1    -0.352578     8A1    -0.226257
       3B2    -0.143770     3B1    -0.143770

    Alpha Virtual:

       9A1    -0.097068     4B1    -0.034090     4B2    -0.034090
      10A1     0.027311    11A1     0.078358     5B2     0.127431
       5B1     0.127431    12A1     0.135200    13A1     0.200607
       6B2     0.217397     6B1     0.217397    14A1     0.229746
       1A2     0.229747     7B2     0.244605     7B1     0.244605
      15A1     0.296451    16A1     0.315667     2A2     0.315668
      17A1     0.415603     8B1     0.458056     8B2     0.458056
      18A1     0.684742

    Beta Occupied:

       1A1   -56.053238     2A1   -46.873211     3A1    -4.133386
       4A1    -3.151807     5A1    -2.688692     1B1    -2.683449
       1B2    -2.683449     6A1    -1.897699     2B2    -1.895148
       2B1    -1.895148     7A1    -0.303219

    Beta Virtual:

       8A1    -0.143674     3B1    -0.063399     3B2    -0.063399
       9A1    -0.062931     4B1     0.006524     4B2     0.006524
      10A1     0.042648    11A1     0.097233     5B2     0.149382
       5B1     0.149382    12A1     0.153160    13A1     0.229221
       6B2     0.247254     6B1     0.247254     1A2     0.279225
      14A1     0.279226     7B2     0.280019     7B1     0.280019
      15A1     0.315690     2A2     0.361868    16A1     0.361869
      17A1     0.444807     8B1     0.494756     8B2     0.494756
      18A1     0.706287

    Final Occupation by Irrep:
             A1    A2    B1    B2
    DOCC [     7,    0,    2,    2 ]
    SOCC [     1,    0,    1,    1 ]
    NA   [     8,    0,    3,    3 ]
    NB   [     7,    0,    2,    2 ]

  @DF-UKS Final Energy:  -442.42769039530145

   => Energetics <=

    Nuclear Repulsion Energy =             32.7125540731961451
    One-Electron Energy =                -680.9832557387210272
    Two-Electron Energy =                 234.1084636835225297
    DFT Exchange-Correlation Energy =     -28.2654524132991156
    Empirical Dispersion Energy =           0.0000000000000000
    VV10 Nonlocal Energy =                  0.0000000000000000
    Total Energy =                       -442.4276903953015108

  UHF NO Occupations:
  HONO-2 :    3 B1 1.0000000
  HONO-1 :    8 A1 1.0000000
  HONO-0 :    3 B2 1.0000000
  LUNO+0 :    9 A1 0.0031094
  LUNO+1 :    4 B1 0.0000006
  LUNO+2 :    4 B2 0.0000006
  LUNO+3 :   10 A1 0.0000006

Computation Completed

Properties will be evaluated at   0.000000,   0.000000,   0.000000 [a0]

Properties computed using the SCF density matrix

 Multipole Moments:

 ------------------------------------------------------------------------------------
     Multipole            Electronic (a.u.)      Nuclear  (a.u.)        Total (a.u.)
 ------------------------------------------------------------------------------------

 L = 1.  Multiply by 2.5417464519 to convert [e a0] to [Debye]
 Dipole X            :          0.0000000            0.0000000            0.0000000
 Dipole Y            :          0.0000000            0.0000000            0.0000000
 Dipole Z            :         -0.2065583            1.1202753            0.9137169
 Magnitude           :                                                    0.9137169

 ------------------------------------------------------------------------------------

*** tstop() called on Joses-MacBook-Pro-2.local at Wed Jul 16 19:55:32 2025
Module time:
	user time   =       5.82 seconds =       0.10 minutes
	system time =       2.22 seconds =       0.04 minutes
	total time  =          1 seconds =       0.02 minutes
Total time:
	user time   =     210.62 seconds =       3.51 minutes
	system time =      56.80 seconds =       0.95 minutes
	total time  =         26 seconds =       0.43 minutes

*** tstart() called on Joses-MacBook-Pro-2.local
*** at Wed Jul 16 19:55:32 2025

         ------------------------------------------------------------
                                   SCF GRAD
                          Rob Parrish, Justin Turney,
                       Andy Simmonett, and Alex Sokolov
         ------------------------------------------------------------

  ==> Geometry <==

    Molecular point group: c2v
    Full point group: C_inf_v

    Geometry (in Angstrom), charge = 0, multiplicity = 4:

       Center              X                  Y                   Z               Mass
    ------------   -----------------  -----------------  -----------------  -----------------
         MG           0.000000000000     0.000000000000     1.335957042434    23.985041697000
         AL           0.000000000000     0.000000000000    -1.187589259692    26.981538530000

  Nuclear repulsion =   32.712554073196145

  ==> Basis Set <==

  Basis Set: CC-PVDZ
    Blend: CC-PVDZ
    Number of shells: 16
    Number of basis functions: 36
    Number of Cartesian functions: 38
    Spherical Harmonics?: true
    Max angular momentum: 2

  ==> DFJKGrad: Density-Fitted SCF Gradients <==

    Gradient:                    1
    J tasked:                  Yes
    K tasked:                  Yes
    wK tasked:                  No
    OpenMP threads:              1
    Integrals threads:           1
    Memory [MiB]:              375
    Schwarz Cutoff:          1E-12
    Fitting Condition:       1E-10

   => Auxiliary Basis Set <=

  Basis Set: (CC-PVDZ AUX)
    Blend: CC-PVDZ-JKFIT + DEF2-UNIVERSAL-JKFIT
    Number of shells: 70
    Number of basis functions: 224
    Number of Cartesian functions: 267
    Spherical Harmonics?: true
    Max angular momentum: 4

  ==> DFT Potential <==

   => LibXC <=

    Version 6.2.2
    S. Lehtola, C. Steigemann, M. J.T. Oliveira, and M. A.L. Marques.,  SoftwareX 7, 1â€“5 (2018) (10.1016/j.softx.2017.11.002)

   => Composite Functional: B3LYP <=

    B3LYP Hyb-GGA Exchange-Correlation Functional

    P. J. Stephens, F. J. Devlin, C. F. Chabalowski, and M. J. Frisch.,  J. Phys. Chem. 98, 11623 (1994) (10.1021/j100096a001)

    Deriv               =              1
    GGA                 =           TRUE
    Meta                =          FALSE

    Exchange Hybrid     =           TRUE
    MP2 Hybrid          =          FALSE

   => Exchange Functionals <=

    0.0800   Slater exchange
    0.7200         Becke 88

   => Exact (HF) Exchange <=

    0.2000               HF

   => Correlation Functionals <=

    0.1900   Vosko, Wilk & Nusair (VWN5_RPA)
    0.8100   Lee, Yang & Parr

   => LibXC Density Thresholds  <==

    XC_HYB_GGA_XC_B3LYP:  1.00E-15

   => Molecular Quadrature <=

    Radial Scheme          =       TREUTLER
    Pruning Scheme         =           NONE
    Nuclear Scheme         =       TREUTLER

    Blocking Scheme        =         OCTREE
    BS radius alpha        =              1
    Pruning alpha          =              1
    Radial Points          =             75
    Spherical Points       =            302
    Total Points           =          42917
    Total Blocks           =            419
    Max Points             =            256
    Max Functions          =             36
    Weights Tolerance      =       1.00E-15

  -Total Gradient:
     Atom            X                  Y                   Z
    ------   -----------------  -----------------  -----------------
       1        0.000000000000    -0.000000000000    -0.000029997754
       2       -0.000000000000     0.000000000000     0.000033641591

*** tstop() called on Joses-MacBook-Pro-2.local at Wed Jul 16 19:55:32 2025
Module time:
	user time   =       2.40 seconds =       0.04 minutes
	system time =       1.21 seconds =       0.02 minutes
	total time  =          0 seconds =       0.00 minutes
Total time:
	user time   =     213.03 seconds =       3.55 minutes
	system time =      58.01 seconds =       0.97 minutes
	total time  =         26 seconds =       0.43 minutes

    			-----------------------------------------

    			 OPTKING 3.0: for geometry optimizations

    			     By R.A. King, Bethel University

    			        with contributions from

    			    A.V. Copan, J. Cayton, A. Heide

    			-----------------------------------------

	                            ===> Fragment 1 <==

	 Z (Atomic Numbers)          Masses                          Geom
	      12.000000            23.985042          0.00000000  0.00000000  2.52459293
	      13.000000            26.981539          0.00000000  0.00000000 -2.24421845

	 - Coordinate -           - BOHR/RAD -       - ANG/DEG -
	 R(1,2)           =         4.768811           2.523546

	        --- Internal Coordinate Step in ANG or DEG, aJ/ANG or AJ/DEG ---
	-------------------------------------------------------------------------------
	           Coordinate      Previous         Force          Change          New
	           ----------      --------        ------          ------        ------
	               R(1,2)       2.52355        0.00026        0.00028       2.52383
	-------------------------------------------------------------------------------

	                                 ==> Convergence Check <==

	Measures of convergence in internal coordinates in au.

	Criteria marked as inactive (o), active & met (*), and active & unmet ( ).

	----------------------------------------------------------------------------------------------
	   Step    Total Energy     Delta E     Max Force     RMS Force      Max Disp      RMS Disp
	----------------------------------------------------------------------------------------------
	  Convergence Criteria     1.00e-06 *    3.00e-04 *             o    1.20e-03 *             o
	----------------------------------------------------------------------------------------------
	    15    -442.42769040   -1.65e-07 *    3.18e-05 *    3.18e-05 o    5.37e-04 *    5.37e-04 o  ~
	----------------------------------------------------------------------------------------------

Next Geometry in Ang
	Fragment 1 (Ang)

	   Mg   0.0000000000   0.0000000000   1.3360991658
	   Al   0.0000000000   0.0000000000  -1.1877313830

    Final optimized geometry and variables:
    Molecular point group: c2v
    Full point group: C_inf_v

    Geometry (in Angstrom), charge = 0, multiplicity = 4:

    MG           0.000000000000     0.000000000000     1.335957042434
    AL           0.000000000000     0.000000000000    -1.187589259692

    Psi4 stopped on: Wednesday, 16 July 2025 07:55PM
    Psi4 wall time for execution: 0:00:27.02

*** Psi4 exiting successfully. Buy a developer a beer!
