                               Psi4 1.9.1 release

  ==> Input File <==

--------------------------------------------------------------------------
molecule {
0 4
Li   0.00000        0.60000        0.00000
Mg   0.00000       -0.60000        0.00000
}

set {
basis              cc-pvdz
reference          uks
maxiter            500
geom_maxiter       500
DAMPING_PERCENTAGE 1
guess              SAP
}

optimize('b3lyp')
--------------------------------------------------------------------------

    Molecular point group: c2v
  Charge       = 0
  Multiplicity = 4
  Basis Set: CC-PVDZ
    Blend: CC-PVDZ
  Basis Set: (CC-PVDZ AUX)
    Blend: DEF2-UNIVERSAL-JKFIT
  @DF-UKS Final Energy:  -207.18952157470750
    Total Energy =                       -207.1895215747074985
 Dipole X            :          0.0000000            0.0000000            0.0000000
 Dipole Y            :          0.0000000            0.0000000            0.0000000
 Dipole Z            :          0.6124315           -0.8951087           -0.2826772
 Magnitude           :                                                    0.2826772
    Molecular point group: c2v
  Basis Set: CC-PVDZ
    Blend: CC-PVDZ
  Basis Set: (CC-PVDZ AUX)
    Blend: DEF2-UNIVERSAL-JKFIT
  Basis Set: CC-PVDZ
    Blend: CC-PVDZ
  Basis Set: (CC-PVDZ AUX)
    Blend: DEF2-UNIVERSAL-JKFIT
  @DF-UKS Final Energy:  -207.23392257557322
    Total Energy =                       -207.2339225755732457
  Basis Set: CC-PVDZ
    Blend: CC-PVDZ
  Basis Set: (CC-PVDZ AUX)
    Blend: DEF2-UNIVERSAL-JKFIT
  Basis Set: CC-PVDZ
    Blend: CC-PVDZ
  @DF-UKS Final Energy:  -207.28848794245422
    Total Energy =                       -207.2884879424542248
  @DF-UKS Final Energy:  -207.36353805296699
    Total Energy =                       -207.3635380529669874
  @DF-UKS Final Energy:  -207.41311314647825
    Total Energy =                       -207.4131131464782811
  @DF-UKS Final Energy:  -207.44207868432190
    Total Energy =                       -207.4420786843218991
  @DF-UKS Final Energy:  -207.45524172370673
    Total Energy =                       -207.4552417237067345
  @DF-UKS Final Energy:  -207.45987774110159
    Total Energy =                       -207.4598777411015931
  @DF-UKS Final Energy:  -207.46094456669539
    Total Energy =                       -207.4609445666953889
  @DF-UKS Final Energy:  -207.46106117779053
    Total Energy =                       -207.4610611777905547
  Basis Set: (CC-PVDZ AUX)
    Blend: DEF2-UNIVERSAL-JKFIT
  Basis Set: CC-PVDZ
    Blend: CC-PVDZ
  Basis Set: (CC-PVDZ AUX)
    Blend: DEF2-UNIVERSAL-JKFIT
  @DF-UKS Final Energy:  -207.46106469712015
    Total Energy =                       -207.4610646971201504
  Basis Set: CC-PVDZ
    Blend: CC-PVDZ
  Basis Set: (CC-PVDZ AUX)
    Blend: DEF2-UNIVERSAL-JKFIT
  Charge       = 0
  Multiplicity = 4
  Basis Set: CC-PVDZ
    Blend: CC-PVDZ
  Basis Set: (CC-PVDZ AUX)
    Blend: DEF2-UNIVERSAL-JKFIT

    Orbital Energies [Eh]
    ---------------------

    Alpha Occupied:

       1A1   -46.869615     2A1    -3.150144     3A1    -2.067756
       4A1    -1.895676     1B2    -1.892624     1B1    -1.892624
       5A1    -0.261227     2B2    -0.114493     2B1    -0.114493

    Alpha Virtual:

       6A1    -0.097581     7A1    -0.043039     3B1    -0.006469
       3B2    -0.006469     8A1     0.024180     4B1     0.054848
       4B2     0.054848     9A1     0.079922    10A1     0.098014
       5B2     0.156387     5B1     0.156387    11A1     0.167630
      12A1     0.188683     1A2     0.188683    13A1     0.209636
       6B2     0.221073     6B1     0.221073    14A1     0.313285
       2A2     0.313286    15A1     0.378697     7B1     0.444385
       7B2     0.444385    16A1     0.697082

    Beta Occupied:

       1A1   -46.865208     2A1    -3.143012     3A1    -2.064327
       4A1    -1.891394     1B2    -1.885359     1B1    -1.885359

    Beta Virtual:

       5A1    -0.141593     6A1    -0.061020     2B2    -0.017071
       2B1    -0.017071     7A1    -0.014890     3B2     0.032225
       3B1     0.032225     8A1     0.039976     4B1     0.076286
       4B2     0.076286     9A1     0.082292    10A1     0.130214
       5B2     0.193949     5B1     0.193949    11A1     0.198569
      12A1     0.238533     1A2     0.245518    13A1     0.245525
       6B2     0.266106     6B1     0.266106     2A2     0.375057
      14A1     0.375067    15A1     0.408145     7B1     0.483784
       7B2     0.483784    16A1     0.711971

    Final Occupation by Irrep:
             A1    A2    B1    B2
    DOCC [     4,    0,    1,    1 ]
    SOCC [     1,    0,    1,    1 ]
    NA   [     5,    0,    2,    2 ]
    NB   [     4,    0,    1,    1 ]

  @DF-UKS Final Energy:  -207.46106478885383

   => Energetics <=

    Nuclear Repulsion Energy =              7.5614434938395245
    One-Electron Energy =                -303.5002452512670743
    Two-Electron Energy =                 103.2414017800130921
    DFT Exchange-Correlation Energy =     -14.7636648114393871
    Empirical Dispersion Energy =           0.0000000000000000
    VV10 Nonlocal Energy =                  0.0000000000000000
    Total Energy =                       -207.4610647888538324

  UHF NO Occupations:
  HONO-2 :    5 A1 1.0000000
  HONO-1 :    2 B1 1.0000000
  HONO-0 :    2 B2 1.0000000
  LUNO+0 :    6 A1 0.0000009
  LUNO+1 :    7 A1 0.0000003
  LUNO+2 :    3 B2 0.0000003
  LUNO+3 :    3 B1 0.0000003

Computation Completed

Properties will be evaluated at   0.000000,   0.000000,   0.000000 [a0]

Properties computed using the SCF density matrix

 Multipole Moments:

 ------------------------------------------------------------------------------------
     Multipole            Electronic (a.u.)      Nuclear  (a.u.)        Total (a.u.)
 ------------------------------------------------------------------------------------

 L = 1.  Multiply by 2.5417464519 to convert [e a0] to [Debye]
 Dipole X            :          0.0000000            0.0000000            0.0000000
 Dipole Y            :          0.0000000            0.0000000            0.0000000
 Dipole Z            :          2.5097983           -1.8792884            0.6305098
 Magnitude           :                                                    0.6305098

 ------------------------------------------------------------------------------------

*** tstop() called on Joses-MacBook-Pro-2.local at Wed Jul 16 18:33:21 2025
Module time:
	user time   =       2.23 seconds =       0.04 minutes
	system time =       2.35 seconds =       0.04 minutes
	total time  =          0 seconds =       0.00 minutes
Total time:
	user time   =      53.34 seconds =       0.89 minutes
	system time =      59.40 seconds =       0.99 minutes
	total time  =         11 seconds =       0.18 minutes

*** tstart() called on Joses-MacBook-Pro-2.local
*** at Wed Jul 16 18:33:21 2025

         ------------------------------------------------------------
                                   SCF GRAD
                          Rob Parrish, Justin Turney,
                       Andy Simmonett, and Alex Sokolov
         ------------------------------------------------------------

  ==> Geometry <==

    Molecular point group: c2v
    Full point group: C_inf_v

    Geometry (in Angstrom), charge = 0, multiplicity = 4:

       Center              X                  Y                   Z               Mass
    ------------   -----------------  -----------------  -----------------  -----------------
         LI           0.000000000000     0.000000000000     1.949229901482     7.016003436600
         MG           0.000000000000     0.000000000000    -0.570180525858    23.985041697000

  Nuclear repulsion =    7.561443493839525

  ==> Basis Set <==

  Basis Set: CC-PVDZ
    Blend: CC-PVDZ
    Number of shells: 14
    Number of basis functions: 32
    Number of Cartesian functions: 34
    Spherical Harmonics?: true
    Max angular momentum: 2

  ==> DFJKGrad: Density-Fitted SCF Gradients <==

    Gradient:                    1
    J tasked:                  Yes
    K tasked:                  Yes
    wK tasked:                  No
    OpenMP threads:              1
    Integrals threads:           1
    Memory [MiB]:              375
    Schwarz Cutoff:          1E-12
    Fitting Condition:       1E-10

   => Auxiliary Basis Set <=

  Basis Set: (CC-PVDZ AUX)
    Blend: DEF2-UNIVERSAL-JKFIT
    Number of shells: 51
    Number of basis functions: 163
    Number of Cartesian functions: 197
    Spherical Harmonics?: true
    Max angular momentum: 4

  ==> DFT Potential <==

   => LibXC <=

    Version 6.2.2
    S. Lehtola, C. Steigemann, M. J.T. Oliveira, and M. A.L. Marques.,  SoftwareX 7, 1â€“5 (2018) (10.1016/j.softx.2017.11.002)

   => Composite Functional: B3LYP <=

    B3LYP Hyb-GGA Exchange-Correlation Functional

    P. J. Stephens, F. J. Devlin, C. F. Chabalowski, and M. J. Frisch.,  J. Phys. Chem. 98, 11623 (1994) (10.1021/j100096a001)

    Deriv               =              1
    GGA                 =           TRUE
    Meta                =          FALSE

    Exchange Hybrid     =           TRUE
    MP2 Hybrid          =          FALSE

   => Exchange Functionals <=

    0.0800   Slater exchange
    0.7200         Becke 88

   => Exact (HF) Exchange <=

    0.2000               HF

   => Correlation Functionals <=

    0.1900   Vosko, Wilk & Nusair (VWN5_RPA)
    0.8100   Lee, Yang & Parr

   => LibXC Density Thresholds  <==

    XC_HYB_GGA_XC_B3LYP:  1.00E-15

   => Molecular Quadrature <=

    Radial Scheme          =       TREUTLER
    Pruning Scheme         =           NONE
    Nuclear Scheme         =       TREUTLER

    Blocking Scheme        =         OCTREE
    BS radius alpha        =              1
    Pruning alpha          =              1
    Radial Points          =             75
    Spherical Points       =            302
    Total Points           =          43823
    Total Blocks           =            451
    Max Points             =            254
    Max Functions          =             32
    Weights Tolerance      =       1.00E-15

  -Total Gradient:
     Atom            X                  Y                   Z
    ------   -----------------  -----------------  -----------------
       1        0.000000000000    -0.000000000000    -0.000018629418
       2        0.000000000000     0.000000000000     0.000007429741

*** tstop() called on Joses-MacBook-Pro-2.local at Wed Jul 16 18:33:21 2025
Module time:
	user time   =       0.96 seconds =       0.02 minutes
	system time =       1.70 seconds =       0.03 minutes
	total time  =          0 seconds =       0.00 minutes
Total time:
	user time   =      54.30 seconds =       0.90 minutes
	system time =      61.11 seconds =       1.02 minutes
	total time  =         11 seconds =       0.18 minutes

    			-----------------------------------------

    			 OPTKING 3.0: for geometry optimizations

    			     By R.A. King, Bethel University

    			        with contributions from

    			    A.V. Copan, J. Cayton, A. Heide

    			-----------------------------------------

	                            ===> Fragment 1 <==

	 Z (Atomic Numbers)          Masses                          Geom
	       3.000000             7.016003          0.00000000  0.00000000  3.68351067
	      12.000000            23.985042          0.00000000  0.00000000 -1.07748504

	 - Coordinate -           - BOHR/RAD -       - ANG/DEG -
	 R(1,2)           =         4.760996           2.519410

	        --- Internal Coordinate Step in ANG or DEG, aJ/ANG or AJ/DEG ---
	-------------------------------------------------------------------------------
	           Coordinate      Previous         Force          Change          New
	           ----------      --------        ------          ------        ------
	               R(1,2)       2.51941        0.00011        0.00024       2.51965
	-------------------------------------------------------------------------------

	                                 ==> Convergence Check <==

	Measures of convergence in internal coordinates in au.

	Criteria marked as inactive (o), active & met (*), and active & unmet ( ).

	----------------------------------------------------------------------------------------------
	   Step    Total Energy     Delta E     Max Force     RMS Force      Max Disp      RMS Disp
	----------------------------------------------------------------------------------------------
	  Convergence Criteria     1.00e-06 *    3.00e-04 *             o    1.20e-03 *             o
	----------------------------------------------------------------------------------------------
	    12    -207.46106479   -9.17e-08 *    1.30e-05 *    1.30e-05 o    4.48e-04 *    4.48e-04 o  ~
	----------------------------------------------------------------------------------------------

Next Geometry in Ang
	Fragment 1 (Ang)

	   Li   0.0000000000   0.0000000000   1.9493484642
	   Mg   0.0000000000   0.0000000000  -0.5702990886

    Final optimized geometry and variables:
    Molecular point group: c2v
    Full point group: C_inf_v

    Geometry (in Angstrom), charge = 0, multiplicity = 4:

    LI           0.000000000000     0.000000000000     1.949229901482
    MG           0.000000000000     0.000000000000    -0.570180525858

    Psi4 stopped on: Wednesday, 16 July 2025 06:33PM
    Psi4 wall time for execution: 0:00:12.03

*** Psi4 exiting successfully. Buy a developer a beer!
