                               Psi4 1.9.1 release

  ==> Input File <==

--------------------------------------------------------------------------
molecule {
0 4
N   0.00000        0.60000        0.00000
Ne   0.00000       -0.60000        0.00000
}

set {
basis              cc-pvdz
reference          uks
maxiter            500
geom_maxiter       500
DAMPING_PERCENTAGE 1
guess              SAP
}

optimize('b3lyp')
--------------------------------------------------------------------------

    Molecular point group: c2v
  Charge       = 0
  Multiplicity = 4
  Basis Set: CC-PVDZ
    Blend: CC-PVDZ
  Basis Set: (CC-PVDZ AUX)
    Blend: CC-PVDZ-JKFIT
  @DF-UKS Final Energy:  -183.04185842246127
    Total Energy =                       -183.0418584224612744
 Dipole X            :          0.0000000            0.0000000            0.0000000
 Dipole Y            :          0.0000000            0.0000000            0.0000000
 Dipole Z            :         -1.0833288           -0.0055805           -1.0889093
 Magnitude           :                                                    1.0889093
    Molecular point group: c2v
  Basis Set: CC-PVDZ
    Blend: CC-PVDZ
  Basis Set: (CC-PVDZ AUX)
    Blend: CC-PVDZ-JKFIT
  Basis Set: CC-PVDZ
    Blend: CC-PVDZ
  Basis Set: (CC-PVDZ AUX)
    Blend: CC-PVDZ-JKFIT
  @DF-UKS Final Energy:  -183.33097697452621
    Total Energy =                       -183.3309769745262088
  Basis Set: CC-PVDZ
    Blend: CC-PVDZ
  Basis Set: (CC-PVDZ AUX)
    Blend: CC-PVDZ-JKFIT
  Basis Set: CC-PVDZ
    Blend: CC-PVDZ
  @DF-UKS Final Energy:  -183.40843316752498
    Total Energy =                       -183.4084331675249757
  @DF-UKS Final Energy:  -183.45513919791884
    Total Energy =                       -183.4551391979188395
  @DF-UKS Final Energy:  -183.47788728563444
    Total Energy =                       -183.4778872856344094
  @DF-UKS Final Energy:  -183.48943218447664
    Total Energy =                       -183.4894321844766125
  @DF-UKS Final Energy:  -183.49509690577818
    Total Energy =                       -183.4950969057781833
  @DF-UKS Final Energy:  -183.49773635009660
    Total Energy =                       -183.4977363500966021
  @DF-UKS Final Energy:  -183.49885030066235
    Total Energy =                       -183.4988503006623546
  @DF-UKS Final Energy:  -183.49925823024603
    Total Energy =                       -183.4992582302460278
  @DF-UKS Final Energy:  -183.49935629020683
    Total Energy =                       -183.4993562902068334
  @DF-UKS Final Energy:  -183.49939248794234
    Total Energy =                       -183.4993924879423446
  @DF-UKS Final Energy:  -183.49939941043803
    Total Energy =                       -183.4993994104380306
  Basis Set: (CC-PVDZ AUX)
    Blend: CC-PVDZ-JKFIT
  Basis Set: CC-PVDZ
    Blend: CC-PVDZ
  Basis Set: (CC-PVDZ AUX)
    Blend: CC-PVDZ-JKFIT
  @DF-UKS Final Energy:  -183.49940086710131
    Total Energy =                       -183.4994008671013432
  Basis Set: CC-PVDZ
    Blend: CC-PVDZ
  Basis Set: (CC-PVDZ AUX)
    Blend: CC-PVDZ-JKFIT
  Charge       = 0
  Multiplicity = 4
  Basis Set: CC-PVDZ
    Blend: CC-PVDZ
  Basis Set: (CC-PVDZ AUX)
    Blend: CC-PVDZ-JKFIT

    Orbital Energies [Eh]
    ---------------------

    Alpha Occupied:

       1A1   -30.961663     2A1   -14.432793     3A1    -1.426685
       4A1    -0.800521     5A1    -0.536283     1B1    -0.534925
       1B2    -0.534925     2B2    -0.342972     2B1    -0.342972
       6A1    -0.341666

    Alpha Virtual:

       7A1     0.651893     3B2     0.658524     3B1     0.658524
       8A1     0.768556     4B2     1.365701     4B1     1.365701
       9A1     1.412414     1A2     1.680414    10A1     1.680417
       5B1     1.680576     5B2     1.680576    11A1     1.683984
      12A1     1.843746     6B1     4.730369     6B2     4.730369
       2A2     4.730622    13A1     4.730692    14A1     4.731105

    Beta Occupied:

       1A1   -30.961450     2A1   -14.376526     3A1    -1.426310
       4A1    -0.604263     1B1    -0.534757     1B2    -0.534757
       5A1    -0.534398

    Beta Virtual:

       2B2    -0.088933     2B1    -0.088933     6A1    -0.087973
       7A1     0.755274     3B2     0.766432     3B1     0.766432
       8A1     0.866586     4B1     1.365760     4B2     1.365760
       9A1     1.418742    10A1     1.822551     1A2     1.828006
      11A1     1.828009     5B1     1.828106     5B2     1.828106
      12A1     1.852584     2A2     4.730747     6B1     4.730775
       6B2     4.730775    13A1     4.730817    14A1     4.731607

    Final Occupation by Irrep:
             A1    A2    B1    B2
    DOCC [     5,    0,    1,    1 ]
    SOCC [     1,    0,    1,    1 ]
    NA   [     6,    0,    2,    2 ]
    NB   [     5,    0,    1,    1 ]

  @DF-UKS Final Energy:  -183.49940121674751

   => Energetics <=

    Nuclear Repulsion Energy =             13.2217937831733003
    One-Electron Energy =                -283.0280245107043129
    Two-Electron Energy =                 101.9090541783233448
    DFT Exchange-Correlation Energy =     -15.6022246675398364
    Empirical Dispersion Energy =           0.0000000000000000
    VV10 Nonlocal Energy =                  0.0000000000000000
    Total Energy =                       -183.4994012167474864

  UHF NO Occupations:
  HONO-2 :    2 B1 1.0000000
  HONO-1 :    2 B2 1.0000000
  HONO-0 :    6 A1 1.0000000
  LUNO+0 :    7 A1 0.0009805
  LUNO+1 :    8 A1 0.0000015
  LUNO+2 :    3 B2 0.0000000
  LUNO+3 :    3 B1 0.0000000

Computation Completed

Properties will be evaluated at   0.000000,   0.000000,   0.000000 [a0]

Properties computed using the SCF density matrix

 Multipole Moments:

 ------------------------------------------------------------------------------------
     Multipole            Electronic (a.u.)      Nuclear  (a.u.)        Total (a.u.)
 ------------------------------------------------------------------------------------

 L = 1.  Multiply by 2.5417464519 to convert [e a0] to [Debye]
 Dipole X            :          0.0000000            0.0000000            0.0000000
 Dipole Y            :          0.0000000            0.0000000            0.0000000
 Dipole Z            :         -0.0091372           -0.0130286           -0.0221658
 Magnitude           :                                                    0.0221658

 ------------------------------------------------------------------------------------

*** tstop() called on Joses-MacBook-Pro-2.local at Wed Jul 16 19:08:53 2025
Module time:
	user time   =       2.96 seconds =       0.05 minutes
	system time =       2.80 seconds =       0.05 minutes
	total time  =          0 seconds =       0.00 minutes
Total time:
	user time   =      80.20 seconds =       1.34 minutes
	system time =      60.04 seconds =       1.00 minutes
	total time  =         14 seconds =       0.23 minutes

*** tstart() called on Joses-MacBook-Pro-2.local
*** at Wed Jul 16 19:08:53 2025

         ------------------------------------------------------------
                                   SCF GRAD
                          Rob Parrish, Justin Turney,
                       Andy Simmonett, and Alex Sokolov
         ------------------------------------------------------------

  ==> Geometry <==

    Molecular point group: c2v
    Full point group: C_inf_v

    Geometry (in Angstrom), charge = 0, multiplicity = 4:

       Center              X                  Y                   Z               Mass
    ------------   -----------------  -----------------  -----------------  -----------------
         N            0.000000000000     0.000000000000     1.647604556651    14.003074004430
         NE           0.000000000000     0.000000000000    -1.154012633449    19.992440176200

  Nuclear repulsion =   13.221793783173300

  ==> Basis Set <==

  Basis Set: CC-PVDZ
    Blend: CC-PVDZ
    Number of shells: 12
    Number of basis functions: 28
    Number of Cartesian functions: 30
    Spherical Harmonics?: true
    Max angular momentum: 2

  ==> DFJKGrad: Density-Fitted SCF Gradients <==

    Gradient:                    1
    J tasked:                  Yes
    K tasked:                  Yes
    wK tasked:                  No
    OpenMP threads:              1
    Integrals threads:           1
    Memory [MiB]:              375
    Schwarz Cutoff:          1E-12
    Fitting Condition:       1E-10

   => Auxiliary Basis Set <=

  Basis Set: (CC-PVDZ AUX)
    Blend: CC-PVDZ-JKFIT
    Number of shells: 48
    Number of basis functions: 140
    Number of Cartesian functions: 162
    Spherical Harmonics?: true
    Max angular momentum: 3

  ==> DFT Potential <==

   => LibXC <=

    Version 6.2.2
    S. Lehtola, C. Steigemann, M. J.T. Oliveira, and M. A.L. Marques.,  SoftwareX 7, 1â€“5 (2018) (10.1016/j.softx.2017.11.002)

   => Composite Functional: B3LYP <=

    B3LYP Hyb-GGA Exchange-Correlation Functional

    P. J. Stephens, F. J. Devlin, C. F. Chabalowski, and M. J. Frisch.,  J. Phys. Chem. 98, 11623 (1994) (10.1021/j100096a001)

    Deriv               =              1
    GGA                 =           TRUE
    Meta                =          FALSE

    Exchange Hybrid     =           TRUE
    MP2 Hybrid          =          FALSE

   => Exchange Functionals <=

    0.0800   Slater exchange
    0.7200         Becke 88

   => Exact (HF) Exchange <=

    0.2000               HF

   => Correlation Functionals <=

    0.1900   Vosko, Wilk & Nusair (VWN5_RPA)
    0.8100   Lee, Yang & Parr

   => LibXC Density Thresholds  <==

    XC_HYB_GGA_XC_B3LYP:  1.00E-15

   => Molecular Quadrature <=

    Radial Scheme          =       TREUTLER
    Pruning Scheme         =           NONE
    Nuclear Scheme         =       TREUTLER

    Blocking Scheme        =         OCTREE
    BS radius alpha        =              1
    Pruning alpha          =              1
    Radial Points          =             75
    Spherical Points       =            302
    Total Points           =          42884
    Total Blocks           =            382
    Max Points             =            255
    Max Functions          =             28
    Weights Tolerance      =       1.00E-15

  -Total Gradient:
     Atom            X                  Y                   Z
    ------   -----------------  -----------------  -----------------
       1        0.000000000000    -0.000000000000    -0.000018039878
       2        0.000000000000     0.000000000000     0.000019463107

*** tstop() called on Joses-MacBook-Pro-2.local at Wed Jul 16 19:08:54 2025
Module time:
	user time   =       0.86 seconds =       0.01 minutes
	system time =       1.69 seconds =       0.03 minutes
	total time  =          1 seconds =       0.02 minutes
Total time:
	user time   =      81.07 seconds =       1.35 minutes
	system time =      61.73 seconds =       1.03 minutes
	total time  =         15 seconds =       0.25 minutes

    			-----------------------------------------

    			 OPTKING 3.0: for geometry optimizations

    			     By R.A. King, Bethel University

    			        with contributions from

    			    A.V. Copan, J. Cayton, A. Heide

    			-----------------------------------------

	                            ===> Fragment 1 <==

	 Z (Atomic Numbers)          Masses                          Geom
	       7.000000            14.003074          0.00000000  0.00000000  3.11352138
	      10.000000            19.992440          0.00000000  0.00000000 -2.18076782

	 - Coordinate -           - BOHR/RAD -       - ANG/DEG -
	 R(1,2)           =         5.294289           2.801617

	        --- Internal Coordinate Step in ANG or DEG, aJ/ANG or AJ/DEG ---
	-------------------------------------------------------------------------------
	           Coordinate      Previous         Force          Change          New
	           ----------      --------        ------          ------        ------
	               R(1,2)       2.80162        0.00015        0.00244       2.80406
	-------------------------------------------------------------------------------

	                                 ==> Convergence Check <==

	Measures of convergence in internal coordinates in au.

	Criteria marked as inactive (o), active & met (*), and active & unmet ( ).

	----------------------------------------------------------------------------------------------
	   Step    Total Energy     Delta E     Max Force     RMS Force      Max Disp      RMS Disp
	----------------------------------------------------------------------------------------------
	  Convergence Criteria     1.00e-06 *    3.00e-04 *             o    1.20e-03 *             o
	----------------------------------------------------------------------------------------------
	    15    -183.49940122   -3.50e-07 *    1.88e-05 *    1.88e-05 o    4.61e-03      4.61e-03 o  ~
	----------------------------------------------------------------------------------------------

Next Geometry in Ang
	Fragment 1 (Ang)

	    N   0.0000000000   0.0000000000   1.6488248558
	   Ne   0.0000000000   0.0000000000  -1.1552329326

    Final optimized geometry and variables:
    Molecular point group: c2v
    Full point group: C_inf_v

    Geometry (in Angstrom), charge = 0, multiplicity = 4:

    N            0.000000000000     0.000000000000     1.647604556651
    NE           0.000000000000     0.000000000000    -1.154012633449

    Psi4 stopped on: Wednesday, 16 July 2025 07:08PM
    Psi4 wall time for execution: 0:00:15.01

*** Psi4 exiting successfully. Buy a developer a beer!
