                               Psi4 1.9.1 release

  ==> Input File <==

--------------------------------------------------------------------------
molecule {
0 4
Li   0.00000        0.60000        0.00000
S   0.00000       -0.60000        0.00000
}

set {
basis              cc-pvdz
reference          uks
maxiter            500
geom_maxiter       500
DAMPING_PERCENTAGE 1
guess              SAP
}

optimize('b3lyp')
--------------------------------------------------------------------------

    Molecular point group: c2v
  Charge       = 0
  Multiplicity = 4
  Basis Set: CC-PVDZ
    Blend: CC-PVDZ
  Basis Set: (CC-PVDZ AUX)
    Blend: CC-PVDZ-JKFIT + DEF2-UNIVERSAL-JKFIT
  @DF-UKS Final Energy:  -405.11802015041275
    Total Energy =                       -405.1180201504127467
 Dipole X            :          0.0000000            0.0000000            0.0000000
 Dipole Y            :          0.0000000            0.0000000            0.0000000
 Dipole Z            :         -0.5680837           -0.9503775           -1.5184612
 Magnitude           :                                                    1.5184612
    Molecular point group: c2v
  Basis Set: CC-PVDZ
    Blend: CC-PVDZ
  Basis Set: (CC-PVDZ AUX)
    Blend: CC-PVDZ-JKFIT + DEF2-UNIVERSAL-JKFIT
  Basis Set: CC-PVDZ
    Blend: CC-PVDZ
  Basis Set: (CC-PVDZ AUX)
    Blend: CC-PVDZ-JKFIT + DEF2-UNIVERSAL-JKFIT
  @DF-UKS Final Energy:  -405.26183019264698
    Total Energy =                       -405.2618301926470394
  Basis Set: CC-PVDZ
    Blend: CC-PVDZ
  Basis Set: (CC-PVDZ AUX)
    Blend: CC-PVDZ-JKFIT + DEF2-UNIVERSAL-JKFIT
  Basis Set: CC-PVDZ
    Blend: CC-PVDZ
  @DF-UKS Final Energy:  -405.39374056101980
    Total Energy =                       -405.3937405610197970
  @DF-UKS Final Energy:  -405.48751489455304
    Total Energy =                       -405.4875148945530441
  @DF-UKS Final Energy:  -405.54170071614772
    Total Energy =                       -405.5417007161477727
  @DF-UKS Final Energy:  -405.57024397043853
    Total Energy =                       -405.5702439704385256
  @DF-UKS Final Energy:  -405.58639094705677
    Total Energy =                       -405.5863909470567137
  @DF-UKS Final Energy:  -405.59588896931814
    Total Energy =                       -405.5958889693181391
  @DF-UKS Final Energy:  -405.60205012527490
    Total Energy =                       -405.6020501252749000
  @DF-UKS Final Energy:  -405.60658186082793
    Total Energy =                       -405.6065818608278732
  @DF-UKS Final Energy:  -405.61019270746368
    Total Energy =                       -405.6101927074636251
  @DF-UKS Final Energy:  -405.61029979438376
    Total Energy =                       -405.6102997943837636
  @DF-UKS Final Energy:  -405.61310126321740
    Total Energy =                       -405.6131012632174020
  @DF-UKS Final Energy:  -405.61314766715418
    Total Energy =                       -405.6131476671542373
  @DF-UKS Final Energy:  -405.61472562140739
    Total Energy =                       -405.6147256214074446
  @DF-UKS Final Energy:  -405.61474323667522
    Total Energy =                       -405.6147432366752241
  @DF-UKS Final Energy:  -405.61560150661762
    Total Energy =                       -405.6156015066176224
  @DF-UKS Final Energy:  -405.61560764305295
    Total Energy =                       -405.6156076430529538
  @DF-UKS Final Energy:  -405.61561371442519
    Total Energy =                       -405.6156137144251943
  @DF-UKS Final Energy:  -405.61606417481670
    Total Energy =                       -405.6160641748166995
  @DF-UKS Final Energy:  -405.61606619604066
    Total Energy =                       -405.6160661960406060
  @DF-UKS Final Energy:  -405.61606820166463
    Total Energy =                       -405.6160682016646319
  @DF-UKS Final Energy:  -405.61607019317438
    Total Energy =                       -405.6160701931743802
  @DF-UKS Final Energy:  -405.61607217069923
    Total Energy =                       -405.6160721706992263
  Basis Set: (CC-PVDZ AUX)
    Blend: CC-PVDZ-JKFIT + DEF2-UNIVERSAL-JKFIT
  Basis Set: CC-PVDZ
    Blend: CC-PVDZ
  Basis Set: (CC-PVDZ AUX)
    Blend: CC-PVDZ-JKFIT + DEF2-UNIVERSAL-JKFIT
  @DF-UKS Final Energy:  -405.61631083298499
    Total Energy =                       -405.6163108329850502
  Basis Set: CC-PVDZ
    Blend: CC-PVDZ
  Basis Set: (CC-PVDZ AUX)
    Blend: CC-PVDZ-JKFIT + DEF2-UNIVERSAL-JKFIT
  Charge       = 0
  Multiplicity = 4
  Basis Set: CC-PVDZ
    Blend: CC-PVDZ
  Basis Set: (CC-PVDZ AUX)
    Blend: CC-PVDZ-JKFIT + DEF2-UNIVERSAL-JKFIT

    Orbital Energies [Eh]
    ---------------------

    Alpha Occupied:

       1A1   -88.932012     2A1    -7.990259     3A1    -5.959492
       1B2    -5.959479     1B1    -5.939717     4A1    -2.033187
       5A1    -0.721459     6A1    -0.330523     2B2    -0.330198
       2B1    -0.281687     7A1    -0.135005

    Alpha Virtual:

       3B2    -0.032734     3B1    -0.032280     8A1    -0.031362
       4B2     0.070731     4B1     0.071267     9A1     0.071810
      10A1     0.085328    11A1     0.212938     5B2     0.216823
       5B1     0.217213     1A2     0.217390    12A1     0.217392
      13A1     0.452765     6B2     0.456519     6B1     0.487363
      14A1     0.508244     7B2     0.521120    15A1     0.524202
       2A2     0.559487     7B1     0.559714    16A1     0.574190

    Beta Occupied:

       1A1   -88.921209     2A1    -7.979231     3A1    -5.938115
       1B2    -5.938095     1B1    -5.933186     4A1    -2.025893
       5A1    -0.628596     2B1    -0.254895

    Beta Virtual:

       6A1    -0.174390     2B2    -0.172847     7A1    -0.054223
       3B1     0.000018     8A1     0.003205     3B2     0.003502
       4B1     0.088824     4B2     0.090061     9A1     0.090107
      10A1     0.106283    11A1     0.260231    12A1     0.264737
       1A2     0.264818     5B1     0.265212     5B2     0.265565
      13A1     0.494742     6B1     0.500234     6B2     0.506289
      14A1     0.552900     2A2     0.616741     7B1     0.616866
      15A1     0.620125     7B2     0.629014    16A1     0.629879

    Final Occupation by Irrep:
             A1    A2    B1    B2
    DOCC [     5,    0,    2,    1 ]
    SOCC [     2,    0,    0,    1 ]
    NA   [     7,    0,    2,    2 ]
    NB   [     5,    0,    2,    1 ]

  @DF-UKS Final Energy:  -405.61631144798372

   => Energetics <=

    Nuclear Repulsion Energy =              5.0837207189281006
    One-Electron Energy =                -569.4081571733769351
    Two-Electron Energy =                 180.8379784171195013
    DFT Exchange-Correlation Energy =     -22.1298534106543698
    Empirical Dispersion Energy =           0.0000000000000000
    VV10 Nonlocal Energy =                  0.0000000000000000
    Total Energy =                       -405.6163114479836622

  UHF NO Occupations:
  HONO-2 :    6 A1 1.0000000
  HONO-1 :    7 A1 1.0000000
  HONO-0 :    2 B2 1.0000000
  LUNO+0 :    8 A1 0.0010287
  LUNO+1 :    3 B1 0.0001089
  LUNO+2 :    9 A1 0.0000002
  LUNO+3 :   10 A1 0.0000000

Computation Completed

Properties will be evaluated at   0.000000,   0.000000,   0.000000 [a0]

Properties computed using the SCF density matrix

 Multipole Moments:

 ------------------------------------------------------------------------------------
     Multipole            Electronic (a.u.)      Nuclear  (a.u.)        Total (a.u.)
 ------------------------------------------------------------------------------------

 L = 1.  Multiply by 2.5417464519 to convert [e a0] to [Debye]
 Dipole X            :          0.0000000            0.0000000            0.0000000
 Dipole Y            :          0.0000000            0.0000000            0.0000000
 Dipole Z            :          3.9209790           -3.9570870           -0.0361080
 Magnitude           :                                                    0.0361080

 ------------------------------------------------------------------------------------

*** tstop() called on Joses-MacBook-Pro-2.local at Wed Jul 16 18:36:47 2025
Module time:
	user time   =       2.75 seconds =       0.05 minutes
	system time =       2.38 seconds =       0.04 minutes
	total time  =          1 seconds =       0.02 minutes
Total time:
	user time   =     106.64 seconds =       1.78 minutes
	system time =     130.79 seconds =       2.18 minutes
	total time  =         23 seconds =       0.38 minutes

*** tstart() called on Joses-MacBook-Pro-2.local
*** at Wed Jul 16 18:36:47 2025

         ------------------------------------------------------------
                                   SCF GRAD
                          Rob Parrish, Justin Turney,
                       Andy Simmonett, and Alex Sokolov
         ------------------------------------------------------------

  ==> Geometry <==

    Molecular point group: c2v
    Full point group: C_inf_v

    Geometry (in Angstrom), charge = 0, multiplicity = 4:

       Center              X                  Y                   Z               Mass
    ------------   -----------------  -----------------  -----------------  -----------------
         LI           0.000000000000     0.000000000000     4.097317973124     7.016003436600
         S            0.000000000000     0.000000000000    -0.899122137677    31.972071174400

  Nuclear repulsion =    5.083720718928101

  ==> Basis Set <==

  Basis Set: CC-PVDZ
    Blend: CC-PVDZ
    Number of shells: 14
    Number of basis functions: 32
    Number of Cartesian functions: 34
    Spherical Harmonics?: true
    Max angular momentum: 2

  ==> DFJKGrad: Density-Fitted SCF Gradients <==

    Gradient:                    1
    J tasked:                  Yes
    K tasked:                  Yes
    wK tasked:                  No
    OpenMP threads:              1
    Integrals threads:           1
    Memory [MiB]:              375
    Schwarz Cutoff:          1E-12
    Fitting Condition:       1E-10

   => Auxiliary Basis Set <=

  Basis Set: (CC-PVDZ AUX)
    Blend: CC-PVDZ-JKFIT + DEF2-UNIVERSAL-JKFIT
    Number of shells: 53
    Number of basis functions: 163
    Number of Cartesian functions: 190
    Spherical Harmonics?: true
    Max angular momentum: 3

  ==> DFT Potential <==

   => LibXC <=

    Version 6.2.2
    S. Lehtola, C. Steigemann, M. J.T. Oliveira, and M. A.L. Marques.,  SoftwareX 7, 1â€“5 (2018) (10.1016/j.softx.2017.11.002)

   => Composite Functional: B3LYP <=

    B3LYP Hyb-GGA Exchange-Correlation Functional

    P. J. Stephens, F. J. Devlin, C. F. Chabalowski, and M. J. Frisch.,  J. Phys. Chem. 98, 11623 (1994) (10.1021/j100096a001)

    Deriv               =              1
    GGA                 =           TRUE
    Meta                =          FALSE

    Exchange Hybrid     =           TRUE
    MP2 Hybrid          =          FALSE

   => Exchange Functionals <=

    0.0800   Slater exchange
    0.7200         Becke 88

   => Exact (HF) Exchange <=

    0.2000               HF

   => Correlation Functionals <=

    0.1900   Vosko, Wilk & Nusair (VWN5_RPA)
    0.8100   Lee, Yang & Parr

   => LibXC Density Thresholds  <==

    XC_HYB_GGA_XC_B3LYP:  1.00E-15

   => Molecular Quadrature <=

    Radial Scheme          =       TREUTLER
    Pruning Scheme         =           NONE
    Nuclear Scheme         =       TREUTLER

    Blocking Scheme        =         OCTREE
    BS radius alpha        =              1
    Pruning alpha          =              1
    Radial Points          =             75
    Spherical Points       =            302
    Total Points           =          44412
    Total Blocks           =            466
    Max Points             =            255
    Max Functions          =             32
    Weights Tolerance      =       1.00E-15

  -Total Gradient:
     Atom            X                  Y                   Z
    ------   -----------------  -----------------  -----------------
       1       -0.000000000000     0.000000000000    -0.000272186411
       2        0.000000000000    -0.000000000000     0.000275329200

*** tstop() called on Joses-MacBook-Pro-2.local at Wed Jul 16 18:36:47 2025
Module time:
	user time   =       0.70 seconds =       0.01 minutes
	system time =       1.54 seconds =       0.03 minutes
	total time  =          0 seconds =       0.00 minutes
Total time:
	user time   =     107.34 seconds =       1.79 minutes
	system time =     132.33 seconds =       2.21 minutes
	total time  =         23 seconds =       0.38 minutes

    			-----------------------------------------

    			 OPTKING 3.0: for geometry optimizations

    			     By R.A. King, Bethel University

    			        with contributions from

    			    A.V. Copan, J. Cayton, A. Heide

    			-----------------------------------------

	                            ===> Fragment 1 <==

	 Z (Atomic Numbers)          Masses                          Geom
	       3.000000             7.016003          0.00000000  0.00000000  7.74280882
	      16.000000            31.972071          0.00000000  0.00000000 -1.69909459

	 - Coordinate -           - BOHR/RAD -       - ANG/DEG -
	 R(1,2)           =         9.441903           4.996440

	        --- Internal Coordinate Step in ANG or DEG, aJ/ANG or AJ/DEG ---
	-------------------------------------------------------------------------------
	           Coordinate      Previous         Force          Change          New
	           ----------      --------        ------          ------        ------
	               R(1,2)       4.99644        0.00226        0.00121       4.99765
	-------------------------------------------------------------------------------

	                                 ==> Convergence Check <==

	Measures of convergence in internal coordinates in au.

	Criteria marked as inactive (o), active & met (*), and active & unmet ( ).

	----------------------------------------------------------------------------------------------
	   Step    Total Energy     Delta E     Max Force     RMS Force      Max Disp      RMS Disp
	----------------------------------------------------------------------------------------------
	  Convergence Criteria     1.00e-06 *    3.00e-04 *             o    1.20e-03 *             o
	----------------------------------------------------------------------------------------------
	    26    -405.61631145   -6.15e-07 *    2.74e-04 *    2.74e-04 o    2.29e-03      2.29e-03 o  ~
	----------------------------------------------------------------------------------------------

Next Geometry in Ang
	Fragment 1 (Ang)

	   Li   0.0000000000   0.0000000000   4.0979234867
	    S   0.0000000000   0.0000000000  -0.8997276513

    Final optimized geometry and variables:
    Molecular point group: c2v
    Full point group: C_inf_v

    Geometry (in Angstrom), charge = 0, multiplicity = 4:

    LI           0.000000000000     0.000000000000     4.097317973124
    S            0.000000000000     0.000000000000    -0.899122137677

    Psi4 stopped on: Wednesday, 16 July 2025 06:36PM
    Psi4 wall time for execution: 0:00:23.86

*** Psi4 exiting successfully. Buy a developer a beer!
