                               Psi4 1.9.1 release

  ==> Input File <==

--------------------------------------------------------------------------
molecule {
0 4
S   0.00000        0.60000        0.00000
Cl   0.00000       -0.60000        0.00000
}

set {
basis              cc-pvdz
reference          uks
maxiter            500
geom_maxiter       500
DAMPING_PERCENTAGE 1
guess              SAP
}

optimize('b3lyp')
--------------------------------------------------------------------------

    Molecular point group: c2v
  Charge       = 0
  Multiplicity = 4
  Basis Set: CC-PVDZ
    Blend: CC-PVDZ
  Basis Set: (CC-PVDZ AUX)
    Blend: CC-PVDZ-JKFIT
  @DF-UKS Final Energy:  -856.90052983713963
    Total Energy =                       -856.9005298371396293
 Dipole X            :          0.0000000            0.0000000            0.0000000
 Dipole Y            :          0.0000000            0.0000000            0.0000000
 Dipole Z            :         -1.8528739            0.5412130           -1.3116609
 Magnitude           :                                                    1.3116609
    Molecular point group: c2v
  Basis Set: CC-PVDZ
    Blend: CC-PVDZ
  Basis Set: (CC-PVDZ AUX)
    Blend: CC-PVDZ-JKFIT
  Basis Set: CC-PVDZ
    Blend: CC-PVDZ
  Basis Set: (CC-PVDZ AUX)
    Blend: CC-PVDZ-JKFIT
  @DF-UKS Final Energy:  -856.94546933634626
    Total Energy =                       -856.9454693363462638
  Basis Set: CC-PVDZ
    Blend: CC-PVDZ
  Basis Set: (CC-PVDZ AUX)
    Blend: CC-PVDZ-JKFIT
  Basis Set: CC-PVDZ
    Blend: CC-PVDZ
  @DF-UKS Final Energy:  -857.02805524440544
    Total Energy =                       -857.0280552444055502
  @DF-UKS Final Energy:  -857.29096855807916
    Total Energy =                       -857.2909685580791574
  @DF-UKS Final Energy:  -857.80458750880041
    Total Energy =                       -857.8045875088004095
  @DF-UKS Final Energy:  -858.01362355834033
    Total Energy =                       -858.0136235583404414
  @DF-UKS Final Energy:  -858.16088423924646
    Total Energy =                       -858.1608842392464567
  @DF-UKS Final Energy:  -858.25120224422858
    Total Energy =                       -858.2512022442285797
  @DF-UKS Final Energy:  -858.29820092502200
    Total Energy =                       -858.2982009250218880
  @DF-UKS Final Energy:  -858.31783202922793
    Total Energy =                       -858.3178320292279295
  @DF-UKS Final Energy:  -858.32438421760969
    Total Energy =                       -858.3243842176096905
  @DF-UKS Final Energy:  -858.32568156254206
    Total Energy =                       -858.3256815625420586
  @DF-UKS Final Energy:  -858.32602709563002
    Total Energy =                       -858.3260270956300246
  @DF-UKS Final Energy:  -858.32606700825443
    Total Energy =                       -858.3260670082545403
  Basis Set: (CC-PVDZ AUX)
    Blend: CC-PVDZ-JKFIT
  Basis Set: CC-PVDZ
    Blend: CC-PVDZ
  Basis Set: (CC-PVDZ AUX)
    Blend: CC-PVDZ-JKFIT
  @DF-UKS Final Energy:  -858.32607188054612
    Total Energy =                       -858.3260718805462375
  Basis Set: CC-PVDZ
    Blend: CC-PVDZ
  Basis Set: (CC-PVDZ AUX)
    Blend: CC-PVDZ-JKFIT
  Charge       = 0
  Multiplicity = 4
  Basis Set: CC-PVDZ
    Blend: CC-PVDZ
  Basis Set: (CC-PVDZ AUX)
    Blend: CC-PVDZ-JKFIT

    Orbital Energies [Eh]
    ---------------------

    Alpha Occupied:

       1A1  -101.544028     2A1   -88.980874     3A1    -9.459019
       4A1    -8.037922     5A1    -7.220857     1B2    -7.214755
       1B1    -7.214755     2B1    -6.002871     2B2    -6.002871
       6A1    -5.997530     7A1    -0.825339     8A1    -0.752323
       9A1    -0.411611     3B2    -0.371785     3B1    -0.371785
       4B1    -0.315203     4B2    -0.315203    10A1    -0.246530

    Alpha Virtual:

      11A1     0.399593     5B2     0.423044     5B1     0.423044
      12A1     0.441044     6B2     0.467894     6B1     0.467894
      13A1     0.495552     1A2     0.495554    14A1     0.498032
       7B2     0.595283     7B1     0.595283    15A1     0.621288
      16A1     0.666578    17A1     0.729875     2A2     0.729880
       8B2     0.763325     8B1     0.763325    18A1     1.125508

    Beta Occupied:

       1A1  -101.537645     2A1   -88.967410     3A1    -9.452736
       4A1    -8.024215     5A1    -7.208186     1B2    -7.207285
       1B1    -7.207285     2B1    -5.981562     2B2    -5.981562
       6A1    -5.979614     7A1    -0.777617     8A1    -0.655309
       9A1    -0.349314     3B1    -0.306823     3B2    -0.306823

    Beta Virtual:

       4B2    -0.198947     4B1    -0.198947    10A1    -0.125304
      11A1     0.439386     5B2     0.465109     5B1     0.465109
      12A1     0.494410     6B2     0.529300     6B1     0.529300
      13A1     0.533444    14A1     0.591396     1A2     0.591399
       7B2     0.628065     7B1     0.628065    15A1     0.654056
      16A1     0.699423    17A1     0.756370     2A2     0.756376
       8B2     0.804268     8B1     0.804268    18A1     1.162893

    Final Occupation by Irrep:
             A1    A2    B1    B2
    DOCC [     9,    0,    3,    3 ]
    SOCC [     1,    0,    1,    1 ]
    NA   [    10,    0,    4,    4 ]
    NB   [     9,    0,    3,    3 ]

  @DF-UKS Final Energy:  -858.32607251263528

   => Energetics <=

    Nuclear Repulsion Energy =             59.1125576778669597
    One-Electron Energy =               -1302.8095051783757299
    Two-Electron Energy =                 428.7529665153565475
    DFT Exchange-Correlation Energy =     -43.3820915274831407
    Empirical Dispersion Energy =           0.0000000000000000
    VV10 Nonlocal Energy =                  0.0000000000000000
    Total Energy =                       -858.3260725126352781

  UHF NO Occupations:
  HONO-2 :   10 A1 1.0000000
  HONO-1 :    4 B2 1.0000000
  HONO-0 :    4 B1 1.0000000
  LUNO+0 :   11 A1 0.0007085
  LUNO+1 :    5 B2 0.0004602
  LUNO+2 :    5 B1 0.0004602
  LUNO+3 :   12 A1 0.0001081

Computation Completed

Properties will be evaluated at   0.000000,   0.000000,   0.000000 [a0]

Properties computed using the SCF density matrix

 Multipole Moments:

 ------------------------------------------------------------------------------------
     Multipole            Electronic (a.u.)      Nuclear  (a.u.)        Total (a.u.)
 ------------------------------------------------------------------------------------

 L = 1.  Multiply by 2.5417464519 to convert [e a0] to [Debye]
 Dipole X            :          0.0000000            0.0000000            0.0000000
 Dipole Y            :          0.0000000            0.0000000            0.0000000
 Dipole Z            :         -0.2793172            1.0981895            0.8188723
 Magnitude           :                                                    0.8188723

 ------------------------------------------------------------------------------------

*** tstop() called on Joses-MacBook-Pro-2.local at Wed Jul 16 20:29:51 2025
Module time:
	user time   =       7.90 seconds =       0.13 minutes
	system time =       1.96 seconds =       0.03 minutes
	total time  =          1 seconds =       0.02 minutes
Total time:
	user time   =     176.43 seconds =       2.94 minutes
	system time =      52.68 seconds =       0.88 minutes
	total time  =         21 seconds =       0.35 minutes

*** tstart() called on Joses-MacBook-Pro-2.local
*** at Wed Jul 16 20:29:51 2025

         ------------------------------------------------------------
                                   SCF GRAD
                          Rob Parrish, Justin Turney,
                       Andy Simmonett, and Alex Sokolov
         ------------------------------------------------------------

  ==> Geometry <==

    Molecular point group: c2v
    Full point group: C_inf_v

    Geometry (in Angstrom), charge = 0, multiplicity = 4:

       Center              X                  Y                   Z               Mass
    ------------   -----------------  -----------------  -----------------  -----------------
         S            0.000000000000     0.000000000000     1.271979077329    31.972071174400
         CL           0.000000000000     0.000000000000    -1.162972258842    34.968852682000

  Nuclear repulsion =   59.112557677866960

  ==> Basis Set <==

  Basis Set: CC-PVDZ
    Blend: CC-PVDZ
    Number of shells: 16
    Number of basis functions: 36
    Number of Cartesian functions: 38
    Spherical Harmonics?: true
    Max angular momentum: 2

  ==> DFJKGrad: Density-Fitted SCF Gradients <==

    Gradient:                    1
    J tasked:                  Yes
    K tasked:                  Yes
    wK tasked:                  No
    OpenMP threads:              1
    Integrals threads:           1
    Memory [MiB]:              375
    Schwarz Cutoff:          1E-12
    Fitting Condition:       1E-10

   => Auxiliary Basis Set <=

  Basis Set: (CC-PVDZ AUX)
    Blend: CC-PVDZ-JKFIT
    Number of shells: 72
    Number of basis functions: 224
    Number of Cartesian functions: 260
    Spherical Harmonics?: true
    Max angular momentum: 3

  ==> DFT Potential <==

   => LibXC <=

    Version 6.2.2
    S. Lehtola, C. Steigemann, M. J.T. Oliveira, and M. A.L. Marques.,  SoftwareX 7, 1â€“5 (2018) (10.1016/j.softx.2017.11.002)

   => Composite Functional: B3LYP <=

    B3LYP Hyb-GGA Exchange-Correlation Functional

    P. J. Stephens, F. J. Devlin, C. F. Chabalowski, and M. J. Frisch.,  J. Phys. Chem. 98, 11623 (1994) (10.1021/j100096a001)

    Deriv               =              1
    GGA                 =           TRUE
    Meta                =          FALSE

    Exchange Hybrid     =           TRUE
    MP2 Hybrid          =          FALSE

   => Exchange Functionals <=

    0.0800   Slater exchange
    0.7200         Becke 88

   => Exact (HF) Exchange <=

    0.2000               HF

   => Correlation Functionals <=

    0.1900   Vosko, Wilk & Nusair (VWN5_RPA)
    0.8100   Lee, Yang & Parr

   => LibXC Density Thresholds  <==

    XC_HYB_GGA_XC_B3LYP:  1.00E-15

   => Molecular Quadrature <=

    Radial Scheme          =       TREUTLER
    Pruning Scheme         =           NONE
    Nuclear Scheme         =       TREUTLER

    Blocking Scheme        =         OCTREE
    BS radius alpha        =              1
    Pruning alpha          =              1
    Radial Points          =             75
    Spherical Points       =            302
    Total Points           =          40260
    Total Blocks           =            366
    Max Points             =            248
    Max Functions          =             36
    Weights Tolerance      =       1.00E-15

  -Total Gradient:
     Atom            X                  Y                   Z
    ------   -----------------  -----------------  -----------------
       1        0.000000000000     0.000000000000    -0.000061827175
       2        0.000000000000    -0.000000000000     0.000063569467

*** tstop() called on Joses-MacBook-Pro-2.local at Wed Jul 16 20:29:52 2025
Module time:
	user time   =       2.23 seconds =       0.04 minutes
	system time =       1.16 seconds =       0.02 minutes
	total time  =          1 seconds =       0.02 minutes
Total time:
	user time   =     178.67 seconds =       2.98 minutes
	system time =      53.84 seconds =       0.90 minutes
	total time  =         22 seconds =       0.37 minutes

    			-----------------------------------------

    			 OPTKING 3.0: for geometry optimizations

    			     By R.A. King, Bethel University

    			        with contributions from

    			    A.V. Copan, J. Cayton, A. Heide

    			-----------------------------------------

	                            ===> Fragment 1 <==

	 Z (Atomic Numbers)          Masses                          Geom
	      16.000000            31.972071          0.00000000  0.00000000  2.40369209
	      17.000000            34.968853          0.00000000  0.00000000 -2.19769906

	 - Coordinate -           - BOHR/RAD -       - ANG/DEG -
	 R(1,2)           =         4.601391           2.434951

	        --- Internal Coordinate Step in ANG or DEG, aJ/ANG or AJ/DEG ---
	-------------------------------------------------------------------------------
	           Coordinate      Previous         Force          Change          New
	           ----------      --------        ------          ------        ------
	               R(1,2)       2.43495        0.00052        0.00044       2.43540
	-------------------------------------------------------------------------------

	                                 ==> Convergence Check <==

	Measures of convergence in internal coordinates in au.

	Criteria marked as inactive (o), active & met (*), and active & unmet ( ).

	----------------------------------------------------------------------------------------------
	   Step    Total Energy     Delta E     Max Force     RMS Force      Max Disp      RMS Disp
	----------------------------------------------------------------------------------------------
	  Convergence Criteria     1.00e-06 *    3.00e-04 *             o    1.20e-03 *             o
	----------------------------------------------------------------------------------------------
	    16    -858.32607251   -6.32e-07 *    6.27e-05 *    6.27e-05 o    8.41e-04 *    8.41e-04 o  ~
	----------------------------------------------------------------------------------------------

Next Geometry in Ang
	Fragment 1 (Ang)

	    S   0.0000000000   0.0000000000   1.2722015419
	   Cl   0.0000000000   0.0000000000  -1.1631947234

    Final optimized geometry and variables:
    Molecular point group: c2v
    Full point group: C_inf_v

    Geometry (in Angstrom), charge = 0, multiplicity = 4:

    S            0.000000000000     0.000000000000     1.271979077329
    CL           0.000000000000     0.000000000000    -1.162972258842

    Psi4 stopped on: Wednesday, 16 July 2025 08:29PM
    Psi4 wall time for execution: 0:00:22.61

*** Psi4 exiting successfully. Buy a developer a beer!
