                               Psi4 1.9.1 release

  ==> Input File <==

--------------------------------------------------------------------------
molecule {
0 4
Li   0.00000        0.60000        0.00000
O   0.00000       -0.60000        0.00000
}

set {
basis              cc-pvdz
reference          uks
maxiter            500
geom_maxiter       500
DAMPING_PERCENTAGE 1
guess              SAP
}

optimize('b3lyp')
--------------------------------------------------------------------------

    Molecular point group: c2v
  Charge       = 0
  Multiplicity = 4
  Basis Set: CC-PVDZ
    Blend: CC-PVDZ
  Basis Set: (CC-PVDZ AUX)
    Blend: CC-PVDZ-JKFIT + DEF2-UNIVERSAL-JKFIT
  @DF-UKS Final Energy:   -82.36940211717166
    Total Energy =                        -82.3694021171716599
 Dipole X            :          0.0000000            0.0000000            0.0000000
 Dipole Y            :          0.0000000            0.0000000            0.0000000
 Dipole Z            :         -0.4314948           -0.8025013           -1.2339961
 Magnitude           :                                                    1.2339961
    Molecular point group: c2v
  Basis Set: CC-PVDZ
    Blend: CC-PVDZ
  Basis Set: (CC-PVDZ AUX)
    Blend: CC-PVDZ-JKFIT + DEF2-UNIVERSAL-JKFIT
  Basis Set: CC-PVDZ
    Blend: CC-PVDZ
  Basis Set: (CC-PVDZ AUX)
    Blend: CC-PVDZ-JKFIT + DEF2-UNIVERSAL-JKFIT
  @DF-UKS Final Energy:   -82.47458120100501
    Total Energy =                        -82.4745812010049946
  Basis Set: CC-PVDZ
    Blend: CC-PVDZ
  Basis Set: (CC-PVDZ AUX)
    Blend: CC-PVDZ-JKFIT + DEF2-UNIVERSAL-JKFIT
  Basis Set: CC-PVDZ
    Blend: CC-PVDZ
  @DF-UKS Final Energy:   -82.50992670145270
    Total Energy =                        -82.5099267014526845
  @DF-UKS Final Energy:   -82.53085099578702
    Total Energy =                        -82.5308509957870200
  @DF-UKS Final Energy:   -82.54159083782781
    Total Energy =                        -82.5415908378278118
  @DF-UKS Final Energy:   -82.54775942271522
    Total Energy =                        -82.5477594227152167
  @DF-UKS Final Energy:   -82.55156675990222
    Total Energy =                        -82.5515667599022152
  @DF-UKS Final Energy:   -82.55423853052281
    Total Energy =                        -82.5542385305228095
  @DF-UKS Final Energy:   -82.55634939725013
    Total Energy =                        -82.5563493972501306
  @DF-UKS Final Energy:   -82.55802132253923
    Total Energy =                        -82.5580213225392185
  @DF-UKS Final Energy:   -82.55805960616684
    Total Energy =                        -82.5580596061668359
  @DF-UKS Final Energy:   -82.55921758929183
    Total Energy =                        -82.5592175892918334
  @DF-UKS Final Energy:   -82.55923168762406
    Total Energy =                        -82.5592316876240631
  @DF-UKS Final Energy:   -82.55980639600639
    Total Energy =                        -82.5598063960063939
  @DF-UKS Final Energy:   -82.55981076385090
    Total Energy =                        -82.5598107638509049
  @DF-UKS Final Energy:   -82.55981508057108
    Total Energy =                        -82.5598150805710844
  @DF-UKS Final Energy:   -82.56008285096713
    Total Energy =                        -82.5600828509671487
  @DF-UKS Final Energy:   -82.56008394278332
    Total Energy =                        -82.5600839427833222
  @DF-UKS Final Energy:   -82.56008502669539
    Total Energy =                        -82.5600850266953898
  @DF-UKS Final Energy:   -82.56008610028042
    Total Energy =                        -82.5600861002804436
  @DF-UKS Final Energy:   -82.56008716364637
    Total Energy =                        -82.5600871636463722
  @DF-UKS Final Energy:   -82.56008821689917
    Total Energy =                        -82.5600882168991745
  @DF-UKS Final Energy:   -82.56019113782480
    Total Energy =                        -82.5601911378248019
  @DF-UKS Final Energy:   -82.56022193486663
    Total Energy =                        -82.5602219348666324
  @DF-UKS Final Energy:   -82.56023256290166
    Total Energy =                        -82.5602325629016605
  Basis Set: (CC-PVDZ AUX)
    Blend: CC-PVDZ-JKFIT + DEF2-UNIVERSAL-JKFIT
  Basis Set: CC-PVDZ
    Blend: CC-PVDZ
  Basis Set: (CC-PVDZ AUX)
    Blend: CC-PVDZ-JKFIT + DEF2-UNIVERSAL-JKFIT
  @DF-UKS Final Energy:   -82.56023502537215
    Total Energy =                        -82.5602350253721511
  Basis Set: CC-PVDZ
    Blend: CC-PVDZ
  Basis Set: (CC-PVDZ AUX)
    Blend: CC-PVDZ-JKFIT + DEF2-UNIVERSAL-JKFIT
  Charge       = 0
  Multiplicity = 4
  Basis Set: CC-PVDZ
    Blend: CC-PVDZ
  Basis Set: (CC-PVDZ AUX)
    Blend: CC-PVDZ-JKFIT + DEF2-UNIVERSAL-JKFIT

    Orbital Energies [Eh]
    ---------------------

    Alpha Occupied:

       1A1   -19.275739     2A1    -2.032850     3A1    -1.006007
       4A1    -0.444233     1B2    -0.443997     1B1    -0.367307
       5A1    -0.134690

    Alpha Virtual:

       2B2    -0.032427     2B1    -0.032121     6A1    -0.030885
       3B2     0.071003     3B1     0.071329     7A1     0.072263
       8A1     0.085395     9A1     0.217007     4B2     0.217454
       1A2     0.217684    10A1     0.217688     4B1     0.217729
       5B2     0.818352    11A1     0.830242     5B1     0.865975
      12A1     1.114175     6B2     2.439305    13A1     2.439571
       2A2     2.497643     6B1     2.497700    14A1     2.518503

    Beta Occupied:

       1A1   -19.225831     2A1    -2.025563     3A1    -0.847796
       1B1    -0.315758

    Beta Virtual:

       4A1    -0.165008     1B2    -0.162689     5A1    -0.053333
       2B1     0.000601     6A1     0.003798     2B2     0.004341
       3B1     0.088867     7A1     0.089992     3B2     0.090299
       8A1     0.105842     4B1     0.265213     9A1     0.265545
       4B2     0.266337     1A2     0.266573    10A1     0.266601
       5B1     0.895705     5B2     0.932082    11A1     0.942986
      12A1     1.195129     6B1     2.588596     2A2     2.588633
      13A1     2.596066     6B2     2.613000    14A1     2.613241

    Final Occupation by Irrep:
             A1    A2    B1    B2
    DOCC [     3,    0,    1,    0 ]
    SOCC [     2,    0,    0,    1 ]
    NA   [     5,    0,    1,    1 ]
    NB   [     3,    0,    1,    0 ]

  @DF-UKS Final Energy:   -82.56023545919514

   => Energetics <=

    Nuclear Repulsion Energy =              2.8269520229945018
    One-Electron Energy =                -118.6565571840739324
    Two-Electron Energy =                  41.6029645267033601
    DFT Exchange-Correlation Energy =      -8.3335948248190697
    Empirical Dispersion Energy =           0.0000000000000000
    VV10 Nonlocal Energy =                  0.0000000000000000
    Total Energy =                        -82.5602354591951411

  UHF NO Occupations:
  HONO-2 :    1 B2 1.0000000
  HONO-1 :    4 A1 1.0000000
  HONO-0 :    5 A1 1.0000000
  LUNO+0 :    6 A1 0.0007514
  LUNO+1 :    2 B1 0.0002565
  LUNO+2 :    7 A1 0.0000002
  LUNO+3 :    8 A1 0.0000001

Computation Completed

Properties will be evaluated at   0.000000,   0.000000,   0.000000 [a0]

Properties computed using the SCF density matrix

 Multipole Moments:

 ------------------------------------------------------------------------------------
     Multipole            Electronic (a.u.)      Nuclear  (a.u.)        Total (a.u.)
 ------------------------------------------------------------------------------------

 L = 1.  Multiply by 2.5417464519 to convert [e a0] to [Debye]
 Dipole X            :          0.0000000            0.0000000            0.0000000
 Dipole Y            :          0.0000000            0.0000000            0.0000000
 Dipole Z            :          2.9641488           -3.0044046           -0.0402558
 Magnitude           :                                                    0.0402558

 ------------------------------------------------------------------------------------

*** tstop() called on Joses-MacBook-Pro-2.local at Wed Jul 16 18:30:57 2025
Module time:
	user time   =       1.41 seconds =       0.02 minutes
	system time =       3.08 seconds =       0.05 minutes
	total time  =          0 seconds =       0.00 minutes
Total time:
	user time   =      88.91 seconds =       1.48 minutes
	system time =     117.26 seconds =       1.95 minutes
	total time  =         19 seconds =       0.32 minutes

*** tstart() called on Joses-MacBook-Pro-2.local
*** at Wed Jul 16 18:30:57 2025

         ------------------------------------------------------------
                                   SCF GRAD
                          Rob Parrish, Justin Turney,
                       Andy Simmonett, and Alex Sokolov
         ------------------------------------------------------------

  ==> Geometry <==

    Molecular point group: c2v
    Full point group: C_inf_v

    Geometry (in Angstrom), charge = 0, multiplicity = 4:

       Center              X                  Y                   Z               Mass
    ------------   -----------------  -----------------  -----------------  -----------------
         LI           0.000000000000     0.000000000000     3.122783793205     7.016003436600
         O            0.000000000000     0.000000000000    -1.369776728791    15.994914619570

  Nuclear repulsion =    2.826952022994502

  ==> Basis Set <==

  Basis Set: CC-PVDZ
    Blend: CC-PVDZ
    Number of shells: 12
    Number of basis functions: 28
    Number of Cartesian functions: 30
    Spherical Harmonics?: true
    Max angular momentum: 2

  ==> DFJKGrad: Density-Fitted SCF Gradients <==

    Gradient:                    1
    J tasked:                  Yes
    K tasked:                  Yes
    wK tasked:                  No
    OpenMP threads:              1
    Integrals threads:           1
    Memory [MiB]:              375
    Schwarz Cutoff:          1E-12
    Fitting Condition:       1E-10

   => Auxiliary Basis Set <=

  Basis Set: (CC-PVDZ AUX)
    Blend: CC-PVDZ-JKFIT + DEF2-UNIVERSAL-JKFIT
    Number of shells: 41
    Number of basis functions: 121
    Number of Cartesian functions: 141
    Spherical Harmonics?: true
    Max angular momentum: 3

  ==> DFT Potential <==

   => LibXC <=

    Version 6.2.2
    S. Lehtola, C. Steigemann, M. J.T. Oliveira, and M. A.L. Marques.,  SoftwareX 7, 1â€“5 (2018) (10.1016/j.softx.2017.11.002)

   => Composite Functional: B3LYP <=

    B3LYP Hyb-GGA Exchange-Correlation Functional

    P. J. Stephens, F. J. Devlin, C. F. Chabalowski, and M. J. Frisch.,  J. Phys. Chem. 98, 11623 (1994) (10.1021/j100096a001)

    Deriv               =              1
    GGA                 =           TRUE
    Meta                =          FALSE

    Exchange Hybrid     =           TRUE
    MP2 Hybrid          =          FALSE

   => Exchange Functionals <=

    0.0800   Slater exchange
    0.7200         Becke 88

   => Exact (HF) Exchange <=

    0.2000               HF

   => Correlation Functionals <=

    0.1900   Vosko, Wilk & Nusair (VWN5_RPA)
    0.8100   Lee, Yang & Parr

   => LibXC Density Thresholds  <==

    XC_HYB_GGA_XC_B3LYP:  1.00E-15

   => Molecular Quadrature <=

    Radial Scheme          =       TREUTLER
    Pruning Scheme         =           NONE
    Nuclear Scheme         =       TREUTLER

    Blocking Scheme        =         OCTREE
    BS radius alpha        =              1
    Pruning alpha          =              1
    Radial Points          =             75
    Spherical Points       =            302
    Total Points           =          44416
    Total Blocks           =            448
    Max Points             =            253
    Max Functions          =             28
    Weights Tolerance      =       1.00E-15

  -Total Gradient:
     Atom            X                  Y                   Z
    ------   -----------------  -----------------  -----------------
       1        0.000000000000    -0.000000000000    -0.000019103695
       2        0.000000000000    -0.000000000000    -0.000018774571

*** tstop() called on Joses-MacBook-Pro-2.local at Wed Jul 16 18:30:57 2025
Module time:
	user time   =       0.50 seconds =       0.01 minutes
	system time =       1.02 seconds =       0.02 minutes
	total time  =          0 seconds =       0.00 minutes
Total time:
	user time   =      89.41 seconds =       1.49 minutes
	system time =     118.29 seconds =       1.97 minutes
	total time  =         19 seconds =       0.32 minutes

    			-----------------------------------------

    			 OPTKING 3.0: for geometry optimizations

    			     By R.A. King, Bethel University

    			        with contributions from

    			    A.V. Copan, J. Cayton, A. Heide

    			-----------------------------------------

	                            ===> Fragment 1 <==

	 Z (Atomic Numbers)          Masses                          Geom
	       3.000000             7.016003          0.00000000  0.00000000  5.90120612
	       8.000000            15.994915          0.00000000  0.00000000 -2.58850287

	 - Coordinate -           - BOHR/RAD -       - ANG/DEG -
	 R(1,2)           =         8.489709           4.492561

	        --- Internal Coordinate Step in ANG or DEG, aJ/ANG or AJ/DEG ---
	-------------------------------------------------------------------------------
	           Coordinate      Previous         Force          Change          New
	           ----------      --------        ------          ------        ------
	               R(1,2)       4.49256        0.00000        0.00053       4.49309
	-------------------------------------------------------------------------------

	                                 ==> Convergence Check <==

	Measures of convergence in internal coordinates in au.

	Criteria marked as inactive (o), active & met (*), and active & unmet ( ).

	----------------------------------------------------------------------------------------------
	   Step    Total Energy     Delta E     Max Force     RMS Force      Max Disp      RMS Disp
	----------------------------------------------------------------------------------------------
	  Convergence Criteria     1.00e-06 *    3.00e-04 *             o    1.20e-03 *             o
	----------------------------------------------------------------------------------------------
	    27     -82.56023546   -4.34e-07 *    1.65e-07 *    1.65e-07 o    1.01e-03 *    1.01e-03 o  ~
	----------------------------------------------------------------------------------------------

Next Geometry in Ang
	Fragment 1 (Ang)

	   Li   0.0000000000   0.0000000000   3.1230505015
	    O   0.0000000000   0.0000000000  -1.3700434371

    Final optimized geometry and variables:
    Molecular point group: c2v
    Full point group: C_inf_v

    Geometry (in Angstrom), charge = 0, multiplicity = 4:

    LI           0.000000000000     0.000000000000     3.122783793205
    O            0.000000000000     0.000000000000    -1.369776728791

    Psi4 stopped on: Wednesday, 16 July 2025 06:30PM
    Psi4 wall time for execution: 0:00:20.10

*** Psi4 exiting successfully. Buy a developer a beer!
