                               Psi4 1.9.1 release

  ==> Input File <==

--------------------------------------------------------------------------
molecule {
0 4
Li   0.00000        0.60000        0.00000
Si   0.00000       -0.60000        0.00000
}

set {
basis              cc-pvdz
reference          uks
maxiter            500
geom_maxiter       500
DAMPING_PERCENTAGE 1
guess              SAP
}

optimize('b3lyp')
--------------------------------------------------------------------------

    Molecular point group: c2v
  Charge       = 0
  Multiplicity = 4
  Basis Set: CC-PVDZ
    Blend: CC-PVDZ
  Basis Set: (CC-PVDZ AUX)
    Blend: CC-PVDZ-JKFIT + DEF2-UNIVERSAL-JKFIT
  @DF-UKS Final Energy:  -296.50179206377948
    Total Energy =                       -296.5017920637794759
 Dipole X            :          0.0000000            0.0000000            0.0000000
 Dipole Y            :          0.0000000            0.0000000            0.0000000
 Dipole Z            :          1.3637380           -0.9262567            0.4374813
 Magnitude           :                                                    0.4374813
    Molecular point group: c2v
  Basis Set: CC-PVDZ
    Blend: CC-PVDZ
  Basis Set: (CC-PVDZ AUX)
    Blend: CC-PVDZ-JKFIT + DEF2-UNIVERSAL-JKFIT
  Basis Set: CC-PVDZ
    Blend: CC-PVDZ
  Basis Set: (CC-PVDZ AUX)
    Blend: CC-PVDZ-JKFIT + DEF2-UNIVERSAL-JKFIT
  @DF-UKS Final Energy:  -296.59612238865952
    Total Energy =                       -296.5961223886595235
  Basis Set: CC-PVDZ
    Blend: CC-PVDZ
  Basis Set: (CC-PVDZ AUX)
    Blend: CC-PVDZ-JKFIT + DEF2-UNIVERSAL-JKFIT
  Basis Set: CC-PVDZ
    Blend: CC-PVDZ
  @DF-UKS Final Energy:  -296.71192397337529
    Total Energy =                       -296.7119239733752920
  @DF-UKS Final Energy:  -296.84727200847084
    Total Energy =                       -296.8472720084708385
  @DF-UKS Final Energy:  -296.90317477174244
    Total Energy =                       -296.9031747717424423
  @DF-UKS Final Energy:  -296.92688745000271
    Total Energy =                       -296.9268874500026527
  @DF-UKS Final Energy:  -296.93599638148754
    Total Energy =                       -296.9359963814875414
  @DF-UKS Final Energy:  -296.93870530049628
    Total Energy =                       -296.9387053004962240
  @DF-UKS Final Energy:  -296.93913295787593
    Total Energy =                       -296.9391329578759269
  @DF-UKS Final Energy:  -296.93921597925748
    Total Energy =                       -296.9392159792574830
  Basis Set: (CC-PVDZ AUX)
    Blend: CC-PVDZ-JKFIT + DEF2-UNIVERSAL-JKFIT
  Basis Set: CC-PVDZ
    Blend: CC-PVDZ
  Basis Set: (CC-PVDZ AUX)
    Blend: CC-PVDZ-JKFIT + DEF2-UNIVERSAL-JKFIT
  @DF-UKS Final Energy:  -296.93922174988393
    Total Energy =                       -296.9392217498839841
  Basis Set: CC-PVDZ
    Blend: CC-PVDZ
  Basis Set: (CC-PVDZ AUX)
    Blend: CC-PVDZ-JKFIT + DEF2-UNIVERSAL-JKFIT
  Charge       = 0
  Multiplicity = 4
  Basis Set: CC-PVDZ
    Blend: CC-PVDZ
  Basis Set: (CC-PVDZ AUX)
    Blend: CC-PVDZ-JKFIT + DEF2-UNIVERSAL-JKFIT

    Orbital Energies [Eh]
    ---------------------

    Alpha Occupied:

       1A1   -66.098900     2A1    -5.243652     3A1    -3.603388
       1B1    -3.602844     1B2    -3.602844     4A1    -2.051289
       5A1    -0.422156     6A1    -0.184850     2B2    -0.156952
       2B1    -0.156952

    Alpha Virtual:

       7A1    -0.063055     3B1    -0.006319     3B2    -0.006319
       8A1     0.023825     4B1     0.064462     4B2     0.064462
       9A1     0.076579    10A1     0.167462     1A2     0.207903
      11A1     0.207903     5B1     0.231150     5B2     0.231150
      12A1     0.261588     6B1     0.364804     6B2     0.364804
      13A1     0.386948     2A2     0.409580    14A1     0.409581
      15A1     0.492566     7B2     0.535751     7B1     0.535751
      16A1     0.836572

    Beta Occupied:

       1A1   -66.091883     2A1    -5.235682     3A1    -3.592251
       1B1    -3.591353     1B2    -3.591353     4A1    -2.047067
       5A1    -0.338873

    Beta Virtual:

       6A1    -0.083327     2B1    -0.056315     2B2    -0.056315
       7A1    -0.043935     3B1     0.019757     3B2     0.019757
       8A1     0.033467     9A1     0.076458     4B1     0.077038
       4B2     0.077038    10A1     0.198052    11A1     0.235254
       1A2     0.235256     5B1     0.262351     5B2     0.262351
      12A1     0.296425     6B1     0.402105     6B2     0.402105
      13A1     0.428341    14A1     0.475929     2A2     0.475931
      15A1     0.522401     7B1     0.588481     7B2     0.588481
      16A1     0.870173

    Final Occupation by Irrep:
             A1    A2    B1    B2
    DOCC [     5,    0,    1,    1 ]
    SOCC [     1,    0,    1,    1 ]
    NA   [     6,    0,    2,    2 ]
    NB   [     5,    0,    1,    1 ]

  @DF-UKS Final Energy:  -296.93922216320300

   => Energetics <=

    Nuclear Repulsion Energy =              9.3314791522922054
    One-Electron Energy =                -429.8559950742703109
    Two-Electron Energy =                 141.9118676779381190
    DFT Exchange-Correlation Energy =     -18.3265739191630210
    Empirical Dispersion Energy =           0.0000000000000000
    VV10 Nonlocal Energy =                  0.0000000000000000
    Total Energy =                       -296.9392221632029987

  UHF NO Occupations:
  HONO-2 :    6 A1 1.0000000
  HONO-1 :    2 B2 1.0000000
  HONO-0 :    2 B1 1.0000000
  LUNO+0 :    7 A1 0.0001448
  LUNO+1 :    8 A1 0.0000003
  LUNO+2 :    9 A1 0.0000000
  LUNO+3 :    3 B2 0.0000000

Computation Completed

Properties will be evaluated at   0.000000,   0.000000,   0.000000 [a0]

Properties computed using the SCF density matrix

 Multipole Moments:

 ------------------------------------------------------------------------------------
     Multipole            Electronic (a.u.)      Nuclear  (a.u.)        Total (a.u.)
 ------------------------------------------------------------------------------------

 L = 1.  Multiply by 2.5417464519 to convert [e a0] to [Debye]
 Dipole X            :          0.0000000            0.0000000            0.0000000
 Dipole Y            :          0.0000000            0.0000000            0.0000000
 Dipole Z            :          4.0122903           -1.8384425            2.1738478
 Magnitude           :                                                    2.1738478

 ------------------------------------------------------------------------------------

*** tstop() called on Joses-MacBook-Pro-2.local at Wed Jul 16 18:34:44 2025
Module time:
	user time   =       4.39 seconds =       0.07 minutes
	system time =       3.32 seconds =       0.06 minutes
	total time  =          1 seconds =       0.02 minutes
Total time:
	user time   =      61.96 seconds =       1.03 minutes
	system time =      62.54 seconds =       1.04 minutes
	total time  =         12 seconds =       0.20 minutes

*** tstart() called on Joses-MacBook-Pro-2.local
*** at Wed Jul 16 18:34:44 2025

         ------------------------------------------------------------
                                   SCF GRAD
                          Rob Parrish, Justin Turney,
                       Andy Simmonett, and Alex Sokolov
         ------------------------------------------------------------

  ==> Geometry <==

    Molecular point group: c2v
    Full point group: C_inf_v

    Geometry (in Angstrom), charge = 0, multiplicity = 4:

       Center              X                  Y                   Z               Mass
    ------------   -----------------  -----------------  -----------------  -----------------
         LI           0.000000000000     0.000000000000     1.904230986063     7.016003436600
         SI           0.000000000000     0.000000000000    -0.477539629872    27.976926534650

  Nuclear repulsion =    9.331479152292205

  ==> Basis Set <==

  Basis Set: CC-PVDZ
    Blend: CC-PVDZ
    Number of shells: 14
    Number of basis functions: 32
    Number of Cartesian functions: 34
    Spherical Harmonics?: true
    Max angular momentum: 2

  ==> DFJKGrad: Density-Fitted SCF Gradients <==

    Gradient:                    1
    J tasked:                  Yes
    K tasked:                  Yes
    wK tasked:                  No
    OpenMP threads:              1
    Integrals threads:           1
    Memory [MiB]:              375
    Schwarz Cutoff:          1E-12
    Fitting Condition:       1E-10

   => Auxiliary Basis Set <=

  Basis Set: (CC-PVDZ AUX)
    Blend: CC-PVDZ-JKFIT + DEF2-UNIVERSAL-JKFIT
    Number of shells: 53
    Number of basis functions: 163
    Number of Cartesian functions: 190
    Spherical Harmonics?: true
    Max angular momentum: 3

  ==> DFT Potential <==

   => LibXC <=

    Version 6.2.2
    S. Lehtola, C. Steigemann, M. J.T. Oliveira, and M. A.L. Marques.,  SoftwareX 7, 1â€“5 (2018) (10.1016/j.softx.2017.11.002)

   => Composite Functional: B3LYP <=

    B3LYP Hyb-GGA Exchange-Correlation Functional

    P. J. Stephens, F. J. Devlin, C. F. Chabalowski, and M. J. Frisch.,  J. Phys. Chem. 98, 11623 (1994) (10.1021/j100096a001)

    Deriv               =              1
    GGA                 =           TRUE
    Meta                =          FALSE

    Exchange Hybrid     =           TRUE
    MP2 Hybrid          =          FALSE

   => Exchange Functionals <=

    0.0800   Slater exchange
    0.7200         Becke 88

   => Exact (HF) Exchange <=

    0.2000               HF

   => Correlation Functionals <=

    0.1900   Vosko, Wilk & Nusair (VWN5_RPA)
    0.8100   Lee, Yang & Parr

   => LibXC Density Thresholds  <==

    XC_HYB_GGA_XC_B3LYP:  1.00E-15

   => Molecular Quadrature <=

    Radial Scheme          =       TREUTLER
    Pruning Scheme         =           NONE
    Nuclear Scheme         =       TREUTLER

    Blocking Scheme        =         OCTREE
    BS radius alpha        =              1
    Pruning alpha          =              1
    Radial Points          =             75
    Spherical Points       =            302
    Total Points           =          44111
    Total Blocks           =            436
    Max Points             =            255
    Max Functions          =             32
    Weights Tolerance      =       1.00E-15

  -Total Gradient:
     Atom            X                  Y                   Z
    ------   -----------------  -----------------  -----------------
       1        0.000000000000    -0.000000000000    -0.000046371769
       2        0.000000000000    -0.000000000000     0.000057328750

*** tstop() called on Joses-MacBook-Pro-2.local at Wed Jul 16 18:34:44 2025
Module time:
	user time   =       1.08 seconds =       0.02 minutes
	system time =       1.49 seconds =       0.02 minutes
	total time  =          0 seconds =       0.00 minutes
Total time:
	user time   =      63.04 seconds =       1.05 minutes
	system time =      64.03 seconds =       1.07 minutes
	total time  =         12 seconds =       0.20 minutes

    			-----------------------------------------

    			 OPTKING 3.0: for geometry optimizations

    			     By R.A. King, Bethel University

    			        with contributions from

    			    A.V. Copan, J. Cayton, A. Heide

    			-----------------------------------------

	                            ===> Fragment 1 <==

	 Z (Atomic Numbers)          Masses                          Geom
	       3.000000             7.016003          0.00000000  0.00000000  3.59847504
	      14.000000            27.976927          0.00000000  0.00000000 -0.90241911

	 - Coordinate -           - BOHR/RAD -       - ANG/DEG -
	 R(1,2)           =         4.500894           2.381771

	        --- Internal Coordinate Step in ANG or DEG, aJ/ANG or AJ/DEG ---
	-------------------------------------------------------------------------------
	           Coordinate      Previous         Force          Change          New
	           ----------      --------        ------          ------        ------
	               R(1,2)       2.38177        0.00043        0.00059       2.38236
	-------------------------------------------------------------------------------

	                                 ==> Convergence Check <==

	Measures of convergence in internal coordinates in au.

	Criteria marked as inactive (o), active & met (*), and active & unmet ( ).

	----------------------------------------------------------------------------------------------
	   Step    Total Energy     Delta E     Max Force     RMS Force      Max Disp      RMS Disp
	----------------------------------------------------------------------------------------------
	  Convergence Criteria     1.00e-06 *    3.00e-04 *             o    1.20e-03 *             o
	----------------------------------------------------------------------------------------------
	    12    -296.93922216   -4.13e-07 *    5.19e-05 *    5.19e-05 o    1.11e-03 *    1.11e-03 o  ~
	----------------------------------------------------------------------------------------------

Next Geometry in Ang
	Fragment 1 (Ang)

	   Li   0.0000000000   0.0000000000   1.9045235381
	   Si   0.0000000000   0.0000000000  -0.4778321819

    Final optimized geometry and variables:
    Molecular point group: c2v
    Full point group: C_inf_v

    Geometry (in Angstrom), charge = 0, multiplicity = 4:

    LI           0.000000000000     0.000000000000     1.904230986063
    SI           0.000000000000     0.000000000000    -0.477539629872

    Psi4 stopped on: Wednesday, 16 July 2025 06:34PM
    Psi4 wall time for execution: 0:00:12.85

*** Psi4 exiting successfully. Buy a developer a beer!
