                               Psi4 1.9.1 release

  ==> Input File <==

--------------------------------------------------------------------------
molecule {
0 4
F   0.00000        0.60000        0.00000
Ar   0.00000       -0.60000        0.00000
}

set {
basis              cc-pvdz
reference          uks
maxiter            500
geom_maxiter       500
DAMPING_PERCENTAGE 1
guess              SAP
}

optimize('b3lyp')
--------------------------------------------------------------------------

    Molecular point group: c2v
  Charge       = 0
  Multiplicity = 4
  Basis Set: CC-PVDZ
    Blend: CC-PVDZ
  Basis Set: (CC-PVDZ AUX)
    Blend: CC-PVDZ-JKFIT
  @DF-UKS Final Energy:  -625.92703403345024
    Total Energy =                       -625.9270340334502407
 Dipole X            :          0.0000000            0.0000000            0.0000000
 Dipole Y            :          0.0000000            0.0000000            0.0000000
 Dipole Z            :         -0.0651375            0.6803766            0.6152391
 Magnitude           :                                                    0.6152391
    Molecular point group: c2v
  Basis Set: CC-PVDZ
    Blend: CC-PVDZ
  Basis Set: (CC-PVDZ AUX)
    Blend: CC-PVDZ-JKFIT
  Basis Set: CC-PVDZ
    Blend: CC-PVDZ
  Basis Set: (CC-PVDZ AUX)
    Blend: CC-PVDZ-JKFIT
  @DF-UKS Final Energy:  -626.12788484243436
    Total Energy =                       -626.1278848424344687
  Basis Set: CC-PVDZ
    Blend: CC-PVDZ
  Basis Set: (CC-PVDZ AUX)
    Blend: CC-PVDZ-JKFIT
  Basis Set: CC-PVDZ
    Blend: CC-PVDZ
  @DF-UKS Final Energy:  -626.25990841969553
    Total Energy =                       -626.2599084196955346
  @DF-UKS Final Energy:  -626.33623321557934
    Total Energy =                       -626.3362332155794547
  @DF-UKS Final Energy:  -626.37165656490072
    Total Energy =                       -626.3716565649007180
  @DF-UKS Final Energy:  -626.38497093853368
    Total Energy =                       -626.3849709385336837
  @DF-UKS Final Energy:  -626.38869492685046
    Total Energy =                       -626.3886949268503486
  @DF-UKS Final Energy:  -626.38949935142386
    Total Energy =                       -626.3894993514237512
  @DF-UKS Final Energy:  -626.38980201160973
    Total Energy =                       -626.3898020116097314
  @DF-UKS Final Energy:  -626.39002192034775
    Total Energy =                       -626.3900219203477491
  @DF-UKS Final Energy:  -626.39014315381178
    Total Energy =                       -626.3901431538117777
  @DF-UKS Final Energy:  -626.39027365000391
    Total Energy =                       -626.3902736500039055
  @DF-UKS Final Energy:  -626.39040947922558
    Total Energy =                       -626.3904094792255819
  @DF-UKS Final Energy:  -626.39056312447326
    Total Energy =                       -626.3905631244733740
  @DF-UKS Final Energy:  -626.39074598437173
    Total Energy =                       -626.3907459843717334
  @DF-UKS Final Energy:  -626.39083992970347
    Total Energy =                       -626.3908399297034748
  Basis Set: (CC-PVDZ AUX)
    Blend: CC-PVDZ-JKFIT
  Basis Set: CC-PVDZ
    Blend: CC-PVDZ
  Basis Set: (CC-PVDZ AUX)
    Blend: CC-PVDZ-JKFIT
  @DF-UKS Final Energy:  -626.39084600754154
    Total Energy =                       -626.3908460075415405
  Basis Set: CC-PVDZ
    Blend: CC-PVDZ
  Basis Set: (CC-PVDZ AUX)
    Blend: CC-PVDZ-JKFIT
  Charge       = 0
  Multiplicity = 4
  Basis Set: CC-PVDZ
    Blend: CC-PVDZ
  Basis Set: (CC-PVDZ AUX)
    Blend: CC-PVDZ-JKFIT

    Orbital Energies [Eh]
    ---------------------

    Alpha Occupied:

       1A1  -115.165912     2A1   -24.798321     3A1   -11.221162
       1B1    -8.787554     4A1    -8.766275     1B2    -8.764213
       5A1    -1.228572     6A1    -1.077973     7A1    -0.571506
       2B1    -0.559081     2B2    -0.506264     8A1    -0.486355
       3B1    -0.469558     3B2    -0.462376     4B1     0.416760

    Alpha Virtual:

       4B2     0.522953     9A1     0.548969    10A1     0.619791
      11A1     0.705802     5B1     0.714847     1A2     0.721598
      12A1     0.733729     5B2     0.747000     6B1     1.088844
       6B2     1.093617    13A1     1.159247    14A1     1.567847
      15A1     3.439026     7B1     3.445756     7B2     3.450220
      16A1     3.511977     2A2     3.512059

    Beta Occupied:

       1A1  -115.150027     2A1   -24.766092     3A1   -11.206204
       4A1    -8.755482     1B2    -8.755272     1B1    -8.740003
       5A1    -1.136603     6A1    -1.001756     7A1    -0.485280
       2B2    -0.480904     3B2    -0.430281     2B1    -0.424809

    Beta Virtual:

       3B1    -0.345440     8A1    -0.256180     4B2     0.543974
       9A1     0.577798     4B1     0.578411    10A1     0.682995
      11A1     0.746883     5B2     0.762744     5B1     0.792556
       1A2     0.795936    12A1     0.807786     6B2     1.111505
       6B1     1.115515    13A1     1.250108    14A1     1.620170
      15A1     3.533129     2A2     3.533278     7B2     3.541765
       7B1     3.543640    16A1     3.569565

    Final Occupation by Irrep:
             A1    A2    B1    B2
    DOCC [     7,    0,    2,    3 ]
    SOCC [     1,    0,    2,    0 ]
    NA   [     8,    0,    4,    3 ]
    NB   [     7,    0,    2,    3 ]

  @DF-UKS Final Energy:  -626.39084599983039

   => Energetics <=

    Nuclear Repulsion Energy =             35.2322566003533026
    One-Electron Energy =                -935.7998082962087665
    Two-Electron Energy =                 307.4181888116036134
    DFT Exchange-Correlation Energy =     -33.2414831155785535
    Empirical Dispersion Energy =           0.0000000000000000
    VV10 Nonlocal Energy =                  0.0000000000000000
    Total Energy =                       -626.3908459998305034

  UHF NO Occupations:
  HONO-2 :    8 A1 1.0000000
  HONO-1 :    3 B1 1.0000000
  HONO-0 :    4 B1 1.0000000
  LUNO+0 :    9 A1 0.0009914
  LUNO+1 :   10 A1 0.0002860
  LUNO+2 :   11 A1 0.0002204
  LUNO+3 :    5 B1 0.0001214

Computation Completed

Properties will be evaluated at   0.000000,   0.000000,   0.000000 [a0]

Properties computed using the SCF density matrix

 Multipole Moments:

 ------------------------------------------------------------------------------------
     Multipole            Electronic (a.u.)      Nuclear  (a.u.)        Total (a.u.)
 ------------------------------------------------------------------------------------

 L = 1.  Multiply by 2.5417464519 to convert [e a0] to [Debye]
 Dipole X            :          0.0000000            0.0000000            0.0000000
 Dipole Y            :          0.0000000            0.0000000            0.0000000
 Dipole Z            :         -1.3530629            1.3795702            0.0265074
 Magnitude           :                                                    0.0265074

 ------------------------------------------------------------------------------------

*** tstop() called on Joses-MacBook-Pro-2.local at Wed Jul 16 19:31:49 2025
Module time:
	user time   =       4.25 seconds =       0.07 minutes
	system time =       2.82 seconds =       0.05 minutes
	total time  =          0 seconds =       0.00 minutes
Total time:
	user time   =     102.00 seconds =       1.70 minutes
	system time =      91.98 seconds =       1.53 minutes
	total time  =         18 seconds =       0.30 minutes

*** tstart() called on Joses-MacBook-Pro-2.local
*** at Wed Jul 16 19:31:49 2025

         ------------------------------------------------------------
                                   SCF GRAD
                          Rob Parrish, Justin Turney,
                       Andy Simmonett, and Alex Sokolov
         ------------------------------------------------------------

  ==> Geometry <==

    Molecular point group: c2v
    Full point group: C_inf_v

    Geometry (in Angstrom), charge = 0, multiplicity = 4:

       Center              X                  Y                   Z               Mass
    ------------   -----------------  -----------------  -----------------  -----------------
         F            0.000000000000     0.000000000000     1.649163824057    18.998403162730
         AR           0.000000000000     0.000000000000    -0.784024293893    39.962383123700

  Nuclear repulsion =   35.232256600353303

  ==> Basis Set <==

  Basis Set: CC-PVDZ
    Blend: CC-PVDZ
    Number of shells: 14
    Number of basis functions: 32
    Number of Cartesian functions: 34
    Spherical Harmonics?: true
    Max angular momentum: 2

  ==> DFJKGrad: Density-Fitted SCF Gradients <==

    Gradient:                    1
    J tasked:                  Yes
    K tasked:                  Yes
    wK tasked:                  No
    OpenMP threads:              1
    Integrals threads:           1
    Memory [MiB]:              375
    Schwarz Cutoff:          1E-12
    Fitting Condition:       1E-10

   => Auxiliary Basis Set <=

  Basis Set: (CC-PVDZ AUX)
    Blend: CC-PVDZ-JKFIT
    Number of shells: 60
    Number of basis functions: 182
    Number of Cartesian functions: 211
    Spherical Harmonics?: true
    Max angular momentum: 3

  ==> DFT Potential <==

   => LibXC <=

    Version 6.2.2
    S. Lehtola, C. Steigemann, M. J.T. Oliveira, and M. A.L. Marques.,  SoftwareX 7, 1â€“5 (2018) (10.1016/j.softx.2017.11.002)

   => Composite Functional: B3LYP <=

    B3LYP Hyb-GGA Exchange-Correlation Functional

    P. J. Stephens, F. J. Devlin, C. F. Chabalowski, and M. J. Frisch.,  J. Phys. Chem. 98, 11623 (1994) (10.1021/j100096a001)

    Deriv               =              1
    GGA                 =           TRUE
    Meta                =          FALSE

    Exchange Hybrid     =           TRUE
    MP2 Hybrid          =          FALSE

   => Exchange Functionals <=

    0.0800   Slater exchange
    0.7200         Becke 88

   => Exact (HF) Exchange <=

    0.2000               HF

   => Correlation Functionals <=

    0.1900   Vosko, Wilk & Nusair (VWN5_RPA)
    0.8100   Lee, Yang & Parr

   => LibXC Density Thresholds  <==

    XC_HYB_GGA_XC_B3LYP:  1.00E-15

   => Molecular Quadrature <=

    Radial Scheme          =       TREUTLER
    Pruning Scheme         =           NONE
    Nuclear Scheme         =       TREUTLER

    Blocking Scheme        =         OCTREE
    BS radius alpha        =              1
    Pruning alpha          =              1
    Radial Points          =             75
    Spherical Points       =            302
    Total Points           =          41435
    Total Blocks           =            372
    Max Points             =            256
    Max Functions          =             32
    Weights Tolerance      =       1.00E-15

  -Total Gradient:
     Atom            X                  Y                   Z
    ------   -----------------  -----------------  -----------------
       1        0.000000000000    -0.000000000000     0.000027726230
       2        0.000000000000     0.000000000000     0.000033906432

*** tstop() called on Joses-MacBook-Pro-2.local at Wed Jul 16 19:31:50 2025
Module time:
	user time   =       1.25 seconds =       0.02 minutes
	system time =       1.06 seconds =       0.02 minutes
	total time  =          1 seconds =       0.02 minutes
Total time:
	user time   =     103.25 seconds =       1.72 minutes
	system time =      93.04 seconds =       1.55 minutes
	total time  =         19 seconds =       0.32 minutes

    			-----------------------------------------

    			 OPTKING 3.0: for geometry optimizations

    			     By R.A. King, Bethel University

    			        with contributions from

    			    A.V. Copan, J. Cayton, A. Heide

    			-----------------------------------------

	                            ===> Fragment 1 <==

	 Z (Atomic Numbers)          Masses                          Geom
	       9.000000            18.998403          0.00000000  0.00000000  3.11646796
	      18.000000            39.962383          0.00000000  0.00000000 -1.48159119

	 - Coordinate -           - BOHR/RAD -       - ANG/DEG -
	 R(1,2)           =         4.598059           2.433188

	        --- Internal Coordinate Step in ANG or DEG, aJ/ANG or AJ/DEG ---
	-------------------------------------------------------------------------------
	           Coordinate      Previous         Force          Change          New
	           ----------      --------        ------          ------        ------
	               R(1,2)       2.43319        0.00003        0.00047       2.43366
	-------------------------------------------------------------------------------

	                                 ==> Convergence Check <==

	Measures of convergence in internal coordinates in au.

	Criteria marked as inactive (o), active & met (*), and active & unmet ( ).

	----------------------------------------------------------------------------------------------
	   Step    Total Energy     Delta E     Max Force     RMS Force      Max Disp      RMS Disp
	----------------------------------------------------------------------------------------------
	  Convergence Criteria     1.00e-06 *    3.00e-04 *             o    1.20e-03 *             o
	----------------------------------------------------------------------------------------------
	    18    -626.39084600    7.71e-09 *    3.09e-06 *    3.09e-06 o    8.84e-04 *    8.84e-04 o  ~
	----------------------------------------------------------------------------------------------

Next Geometry in Ang
	Fragment 1 (Ang)

	    F   0.0000000000   0.0000000000   1.6493978454
	   Ar   0.0000000000   0.0000000000  -0.7842583152

    Final optimized geometry and variables:
    Molecular point group: c2v
    Full point group: C_inf_v

    Geometry (in Angstrom), charge = 0, multiplicity = 4:

    F            0.000000000000     0.000000000000     1.649163824057
    AR           0.000000000000     0.000000000000    -0.784024293893

    Psi4 stopped on: Wednesday, 16 July 2025 07:31PM
    Psi4 wall time for execution: 0:00:19.16

*** Psi4 exiting successfully. Buy a developer a beer!
