                               Psi4 1.9.1 release

  ==> Input File <==

--------------------------------------------------------------------------
molecule {
0 4
B   0.00000        0.60000        0.00000
Mg   0.00000       -0.60000        0.00000
}

set {
basis              cc-pvdz
reference          uks
maxiter            500
geom_maxiter       500
DAMPING_PERCENTAGE 1
guess              SAP
}

optimize('b3lyp')
--------------------------------------------------------------------------

    Molecular point group: c2v
  Charge       = 0
  Multiplicity = 4
  Basis Set: CC-PVDZ
    Blend: CC-PVDZ
  Basis Set: (CC-PVDZ AUX)
    Blend: CC-PVDZ-JKFIT + DEF2-UNIVERSAL-JKFIT
  @DF-UKS Final Energy:  -224.28029290803505
    Total Energy =                       -224.2802929080350509
 Dipole X            :          0.0000000            0.0000000            0.0000000
 Dipole Y            :          0.0000000            0.0000000            0.0000000
 Dipole Z            :          0.2061296           -0.7896955           -0.5835658
 Magnitude           :                                                    0.5835658
    Molecular point group: c2v
  Basis Set: CC-PVDZ
    Blend: CC-PVDZ
  Basis Set: (CC-PVDZ AUX)
    Blend: CC-PVDZ-JKFIT + DEF2-UNIVERSAL-JKFIT
  Basis Set: CC-PVDZ
    Blend: CC-PVDZ
  Basis Set: (CC-PVDZ AUX)
    Blend: CC-PVDZ-JKFIT + DEF2-UNIVERSAL-JKFIT
  @DF-UKS Final Energy:  -224.42219456352393
    Total Energy =                       -224.4221945635239308
  Basis Set: CC-PVDZ
    Blend: CC-PVDZ
  Basis Set: (CC-PVDZ AUX)
    Blend: CC-PVDZ-JKFIT + DEF2-UNIVERSAL-JKFIT
  Basis Set: CC-PVDZ
    Blend: CC-PVDZ
  @DF-UKS Final Energy:  -224.56388265681034
    Total Energy =                       -224.5638826568103354
  @DF-UKS Final Energy:  -224.67116936406413
    Total Energy =                       -224.6711693640640988
  @DF-UKS Final Energy:  -224.71449042033959
    Total Energy =                       -224.7144904203396152
  @DF-UKS Final Energy:  -224.72985629093330
    Total Energy =                       -224.7298562909333555
  @DF-UKS Final Energy:  -224.73432850303453
    Total Energy =                       -224.7343285030345328
  @DF-UKS Final Energy:  -224.73502778770273
    Total Energy =                       -224.7350277877027338
  @DF-UKS Final Energy:  -224.73516718120189
    Total Energy =                       -224.7351671812018878
  Basis Set: (CC-PVDZ AUX)
    Blend: CC-PVDZ-JKFIT + DEF2-UNIVERSAL-JKFIT
  Basis Set: CC-PVDZ
    Blend: CC-PVDZ
  Basis Set: (CC-PVDZ AUX)
    Blend: CC-PVDZ-JKFIT + DEF2-UNIVERSAL-JKFIT
  @DF-UKS Final Energy:  -224.73517709710129
    Total Energy =                       -224.7351770971012854
  Basis Set: CC-PVDZ
    Blend: CC-PVDZ
  Basis Set: (CC-PVDZ AUX)
    Blend: CC-PVDZ-JKFIT + DEF2-UNIVERSAL-JKFIT
  Charge       = 0
  Multiplicity = 4
  Basis Set: CC-PVDZ
    Blend: CC-PVDZ
  Basis Set: (CC-PVDZ AUX)
    Blend: CC-PVDZ-JKFIT + DEF2-UNIVERSAL-JKFIT

    Orbital Energies [Eh]
    ---------------------

    Alpha Occupied:

       1A1   -46.869133     2A1    -6.789122     3A1    -3.151063
       1B1    -1.894399     1B2    -1.894399     4A1    -1.893863
       5A1    -0.403041     6A1    -0.224546     2B1    -0.165004
       2B2    -0.165004

    Alpha Virtual:

       7A1    -0.099677     3B1    -0.026262     3B2    -0.026262
       8A1     0.033607     9A1     0.085958     4B1     0.138916
       4B2     0.138916    10A1     0.222831    11A1     0.271576
       1A2     0.279722    12A1     0.279722     5B1     0.326153
       5B2     0.326153     6B1     0.338969     6B2     0.338969
      13A1     0.547586    14A1     0.638053     2A2     0.726091
      15A1     0.726092     7B1     0.877801     7B2     0.877801
      16A1     1.090524

    Beta Occupied:

       1A1   -46.866440     2A1    -6.771497     3A1    -3.146412
       4A1    -1.891214     1B1    -1.890169     1B2    -1.890169
       5A1    -0.331159

    Beta Virtual:

       6A1    -0.130403     2B1    -0.057037     2B2    -0.057037
       7A1    -0.051374     3B1     0.026323     3B2     0.026323
       8A1     0.049983     9A1     0.103823     4B1     0.159710
       4B2     0.159710    10A1     0.256376    11A1     0.293072
      12A1     0.317995     1A2     0.317996     5B1     0.365678
       5B2     0.365678     6B1     0.389236     6B2     0.389236
      13A1     0.589143    14A1     0.669782     2A2     0.805250
      15A1     0.805250     7B1     0.933977     7B2     0.933977
      16A1     1.128839

    Final Occupation by Irrep:
             A1    A2    B1    B2
    DOCC [     5,    0,    1,    1 ]
    SOCC [     1,    0,    1,    1 ]
    NA   [     6,    0,    2,    2 ]
    NB   [     5,    0,    1,    1 ]

  @DF-UKS Final Energy:  -224.73517782707128

   => Energetics <=

    Nuclear Repulsion Energy =             15.0589846851781974
    One-Electron Energy =                -341.5575139550165886
    Two-Electron Energy =                 118.2456659063391555
    DFT Exchange-Correlation Energy =     -16.4823144635720382
    Empirical Dispersion Energy =           0.0000000000000000
    VV10 Nonlocal Energy =                  0.0000000000000000
    Total Energy =                       -224.7351778270712828

  UHF NO Occupations:
  HONO-2 :    6 A1 1.0000000
  HONO-1 :    2 B2 1.0000000
  HONO-0 :    2 B1 1.0000000
  LUNO+0 :    7 A1 0.0074315
  LUNO+1 :    8 A1 0.0000006
  LUNO+2 :    3 B1 0.0000005
  LUNO+3 :    3 B2 0.0000005

Computation Completed

Properties will be evaluated at   0.000000,   0.000000,   0.000000 [a0]

Properties computed using the SCF density matrix

 Multipole Moments:

 ------------------------------------------------------------------------------------
     Multipole            Electronic (a.u.)      Nuclear  (a.u.)        Total (a.u.)
 ------------------------------------------------------------------------------------

 L = 1.  Multiply by 2.5417464519 to convert [e a0] to [Debye]
 Dipole X            :          0.0000000            0.0000000            0.0000000
 Dipole Y            :          0.0000000            0.0000000            0.0000000
 Dipole Z            :         -0.0154864           -1.3875067           -1.4029931
 Magnitude           :                                                    1.4029931

 ------------------------------------------------------------------------------------

*** tstop() called on Joses-MacBook-Pro-2.local at Wed Jul 16 18:53:35 2025
Module time:
	user time   =       2.70 seconds =       0.05 minutes
	system time =       3.71 seconds =       0.06 minutes
	total time  =          1 seconds =       0.02 minutes
Total time:
	user time   =      49.26 seconds =       0.82 minutes
	system time =      79.98 seconds =       1.33 minutes
	total time  =         15 seconds =       0.25 minutes

*** tstart() called on Joses-MacBook-Pro-2.local
*** at Wed Jul 16 18:53:35 2025

         ------------------------------------------------------------
                                   SCF GRAD
                          Rob Parrish, Justin Turney,
                       Andy Simmonett, and Alex Sokolov
         ------------------------------------------------------------

  ==> Geometry <==

    Molecular point group: c2v
    Full point group: C_inf_v

    Geometry (in Angstrom), charge = 0, multiplicity = 4:

       Center              X                  Y                   Z               Mass
    ------------   -----------------  -----------------  -----------------  -----------------
         B            0.000000000000     0.000000000000     1.445104570864    11.009305360000
         MG           0.000000000000     0.000000000000    -0.663313314138    23.985041697000

  Nuclear repulsion =   15.058984685178201

  ==> Basis Set <==

  Basis Set: CC-PVDZ
    Blend: CC-PVDZ
    Number of shells: 14
    Number of basis functions: 32
    Number of Cartesian functions: 34
    Spherical Harmonics?: true
    Max angular momentum: 2

  ==> DFJKGrad: Density-Fitted SCF Gradients <==

    Gradient:                    1
    J tasked:                  Yes
    K tasked:                  Yes
    wK tasked:                  No
    OpenMP threads:              1
    Integrals threads:           1
    Memory [MiB]:              375
    Schwarz Cutoff:          1E-12
    Fitting Condition:       1E-10

   => Auxiliary Basis Set <=

  Basis Set: (CC-PVDZ AUX)
    Blend: CC-PVDZ-JKFIT + DEF2-UNIVERSAL-JKFIT
    Number of shells: 58
    Number of basis functions: 182
    Number of Cartesian functions: 218
    Spherical Harmonics?: true
    Max angular momentum: 4

  ==> DFT Potential <==

   => LibXC <=

    Version 6.2.2
    S. Lehtola, C. Steigemann, M. J.T. Oliveira, and M. A.L. Marques.,  SoftwareX 7, 1â€“5 (2018) (10.1016/j.softx.2017.11.002)

   => Composite Functional: B3LYP <=

    B3LYP Hyb-GGA Exchange-Correlation Functional

    P. J. Stephens, F. J. Devlin, C. F. Chabalowski, and M. J. Frisch.,  J. Phys. Chem. 98, 11623 (1994) (10.1021/j100096a001)

    Deriv               =              1
    GGA                 =           TRUE
    Meta                =          FALSE

    Exchange Hybrid     =           TRUE
    MP2 Hybrid          =          FALSE

   => Exchange Functionals <=

    0.0800   Slater exchange
    0.7200         Becke 88

   => Exact (HF) Exchange <=

    0.2000               HF

   => Correlation Functionals <=

    0.1900   Vosko, Wilk & Nusair (VWN5_RPA)
    0.8100   Lee, Yang & Parr

   => LibXC Density Thresholds  <==

    XC_HYB_GGA_XC_B3LYP:  1.00E-15

   => Molecular Quadrature <=

    Radial Scheme          =       TREUTLER
    Pruning Scheme         =           NONE
    Nuclear Scheme         =       TREUTLER

    Blocking Scheme        =         OCTREE
    BS radius alpha        =              1
    Pruning alpha          =              1
    Radial Points          =             75
    Spherical Points       =            302
    Total Points           =          43267
    Total Blocks           =            413
    Max Points             =            256
    Max Functions          =             32
    Weights Tolerance      =       1.00E-15

  -Total Gradient:
     Atom            X                  Y                   Z
    ------   -----------------  -----------------  -----------------
       1        0.000000000000     0.000000000000    -0.000108688354
       2        0.000000000000    -0.000000000000     0.000098696792

*** tstop() called on Joses-MacBook-Pro-2.local at Wed Jul 16 18:53:35 2025
Module time:
	user time   =       0.94 seconds =       0.02 minutes
	system time =       1.73 seconds =       0.03 minutes
	total time  =          0 seconds =       0.00 minutes
Total time:
	user time   =      50.21 seconds =       0.84 minutes
	system time =      81.72 seconds =       1.36 minutes
	total time  =         15 seconds =       0.25 minutes

    			-----------------------------------------

    			 OPTKING 3.0: for geometry optimizations

    			     By R.A. King, Bethel University

    			        with contributions from

    			    A.V. Copan, J. Cayton, A. Heide

    			-----------------------------------------

	                            ===> Fragment 1 <==

	 Z (Atomic Numbers)          Masses                          Geom
	       5.000000            11.009305          0.00000000  0.00000000  2.73085186
	      12.000000            23.985042          0.00000000  0.00000000 -1.25348050

	 - Coordinate -           - BOHR/RAD -       - ANG/DEG -
	 R(1,2)           =         3.984332           2.108418

	        --- Internal Coordinate Step in ANG or DEG, aJ/ANG or AJ/DEG ---
	-------------------------------------------------------------------------------
	           Coordinate      Previous         Force          Change          New
	           ----------      --------        ------          ------        ------
	               R(1,2)       2.10842        0.00085        0.00054       2.10896
	-------------------------------------------------------------------------------

	                                 ==> Convergence Check <==

	Measures of convergence in internal coordinates in au.

	Criteria marked as inactive (o), active & met (*), and active & unmet ( ).

	----------------------------------------------------------------------------------------------
	   Step    Total Energy     Delta E     Max Force     RMS Force      Max Disp      RMS Disp
	----------------------------------------------------------------------------------------------
	  Convergence Criteria     1.00e-06 *    3.00e-04 *             o    1.20e-03 *             o
	----------------------------------------------------------------------------------------------
	    11    -224.73517783   -7.30e-07 *    1.04e-04 *    1.04e-04 o    1.02e-03 *    1.02e-03 o  ~
	----------------------------------------------------------------------------------------------

Next Geometry in Ang
	Fragment 1 (Ang)

	    B   0.0000000000   0.0000000000   1.4453753763
	   Mg   0.0000000000   0.0000000000  -0.6635841196

    Final optimized geometry and variables:
    Molecular point group: c2v
    Full point group: C_inf_v

    Geometry (in Angstrom), charge = 0, multiplicity = 4:

    B            0.000000000000     0.000000000000     1.445104570864
    MG           0.000000000000     0.000000000000    -0.663313314138

    Psi4 stopped on: Wednesday, 16 July 2025 06:53PM
    Psi4 wall time for execution: 0:00:15.06

*** Psi4 exiting successfully. Buy a developer a beer!
