                               Psi4 1.9.1 release

  ==> Input File <==

--------------------------------------------------------------------------
molecule {
0 4
Si   0.00000        0.60000        0.00000
Cl   0.00000       -0.60000        0.00000
}

set {
basis              cc-pvdz
reference          uks
maxiter            500
geom_maxiter       500
DAMPING_PERCENTAGE 1
guess              SAP
}

optimize('b3lyp')
--------------------------------------------------------------------------

    Molecular point group: c2v
  Charge       = 0
  Multiplicity = 4
  Basis Set: CC-PVDZ
    Blend: CC-PVDZ
  Basis Set: (CC-PVDZ AUX)
    Blend: CC-PVDZ-JKFIT
  @DF-UKS Final Energy:  -748.32539145144426
    Total Energy =                       -748.3253914514441476
 Dipole X            :          0.0000000            0.0000000            0.0000000
 Dipole Y            :          0.0000000            0.0000000            0.0000000
 Dipole Z            :         -1.4546995            0.5027826           -0.9519169
 Magnitude           :                                                    0.9519169
    Molecular point group: c2v
  Basis Set: CC-PVDZ
    Blend: CC-PVDZ
  Basis Set: (CC-PVDZ AUX)
    Blend: CC-PVDZ-JKFIT
  Basis Set: CC-PVDZ
    Blend: CC-PVDZ
  Basis Set: (CC-PVDZ AUX)
    Blend: CC-PVDZ-JKFIT
  @DF-UKS Final Energy:  -748.36359735304234
    Total Energy =                       -748.3635973530424508
  Basis Set: CC-PVDZ
    Blend: CC-PVDZ
  Basis Set: (CC-PVDZ AUX)
    Blend: CC-PVDZ-JKFIT
  Basis Set: CC-PVDZ
    Blend: CC-PVDZ
  @DF-UKS Final Energy:  -748.43500627421759
    Total Energy =                       -748.4350062742176988
  @DF-UKS Final Energy:  -748.67152178791468
    Total Energy =                       -748.6715217879146849
  @DF-UKS Final Energy:  -749.21773718077111
    Total Energy =                       -749.2177371807709960
  @DF-UKS Final Energy:  -749.39795673857975
    Total Energy =                       -749.3979567385797509
  @DF-UKS Final Energy:  -749.50602706502605
    Total Energy =                       -749.5060270650260463
  @DF-UKS Final Energy:  -749.55516864092738
    Total Energy =                       -749.5551686409273771
  @DF-UKS Final Energy:  -749.57381447254738
    Total Energy =                       -749.5738144725474967
  @DF-UKS Final Energy:  -749.57856606854966
    Total Energy =                       -749.5785660685497760
  @DF-UKS Final Energy:  -749.58041586898776
    Total Energy =                       -749.5804158689877568
  @DF-UKS Final Energy:  -749.58079701246061
    Total Energy =                       -749.5807970124606072
  @DF-UKS Final Energy:  -749.58088625937796
    Total Energy =                       -749.5808862593779622
  @DF-UKS Final Energy:  -749.58091284749912
    Total Energy =                       -749.5809128474992349
  Basis Set: (CC-PVDZ AUX)
    Blend: CC-PVDZ-JKFIT
  Basis Set: CC-PVDZ
    Blend: CC-PVDZ
  Basis Set: (CC-PVDZ AUX)
    Blend: CC-PVDZ-JKFIT
  @DF-UKS Final Energy:  -749.58091617052560
    Total Energy =                       -749.5809161705255974
  Basis Set: CC-PVDZ
    Blend: CC-PVDZ
  Basis Set: (CC-PVDZ AUX)
    Blend: CC-PVDZ-JKFIT
  Charge       = 0
  Multiplicity = 4
  Basis Set: CC-PVDZ
    Blend: CC-PVDZ
  Basis Set: (CC-PVDZ AUX)
    Blend: CC-PVDZ-JKFIT

    Orbital Energies [Eh]
    ---------------------

    Alpha Occupied:

       1A1  -101.573216     2A1   -66.204010     3A1    -9.490387
       4A1    -7.255243     1B1    -7.243274     1B2    -7.243274
       5A1    -5.347412     6A1    -3.708285     2B2    -3.706035
       2B1    -3.706035     7A1    -0.853183     8A1    -0.519933
       9A1    -0.376610     3B1    -0.363992     3B2    -0.363992
       4B2    -0.200145     4B1    -0.200145

    Alpha Virtual:

      10A1    -0.030293    11A1     0.207692    12A1     0.255254
       5B2     0.276738     5B1     0.276738     6B2     0.306309
       6B1     0.306309    13A1     0.308135     1A2     0.308136
      14A1     0.380578     7B2     0.558821     7B1     0.558821
      15A1     0.630946    16A1     0.714424     2A2     0.714426
      17A1     0.743111     8B2     0.810118     8B1     0.810118
      18A1     1.184045

    Beta Occupied:

       1A1  -101.570027     2A1   -66.193764     3A1    -9.487282
       4A1    -7.247645     1B1    -7.240057     1B2    -7.240057
       5A1    -5.334427     6A1    -3.698268     2B2    -3.688726
       2B1    -3.688726     7A1    -0.831552     8A1    -0.454760
       3B1    -0.348261     3B2    -0.348261

    Beta Virtual:

       9A1    -0.239506     4B2    -0.063666     4B1    -0.063666
      10A1     0.016103    11A1     0.230570    12A1     0.295131
       5B2     0.319014     5B1     0.319014     6B2     0.375070
       6B1     0.375070    13A1     0.405756     1A2     0.405756
      14A1     0.415990     7B2     0.566139     7B1     0.566139
      15A1     0.666010    16A1     0.725674     2A2     0.725676
      17A1     0.762914     8B2     0.840060     8B1     0.840060
      18A1     1.201871

    Final Occupation by Irrep:
             A1    A2    B1    B2
    DOCC [     8,    0,    3,    3 ]
    SOCC [     1,    0,    1,    1 ]
    NA   [     9,    0,    4,    4 ]
    NB   [     8,    0,    3,    3 ]

  @DF-UKS Final Energy:  -749.58091634324421

   => Energetics <=

    Nuclear Repulsion Energy =             59.1678222553540607
    One-Electron Energy =               -1153.6246996244117327
    Two-Electron Energy =                 384.4449306565817324
    DFT Exchange-Correlation Energy =     -39.5689696307684073
    Empirical Dispersion Energy =           0.0000000000000000
    VV10 Nonlocal Energy =                  0.0000000000000000
    Total Energy =                       -749.5809163432442119

  UHF NO Occupations:
  HONO-2 :    4 B2 1.0000000
  HONO-1 :    9 A1 1.0000000
  HONO-0 :    4 B1 1.0000000
  LUNO+0 :   10 A1 0.0006610
  LUNO+1 :    5 B2 0.0001327
  LUNO+2 :    5 B1 0.0001327
  LUNO+3 :   11 A1 0.0000557

Computation Completed

Properties will be evaluated at   0.000000,   0.000000,   0.000000 [a0]

Properties computed using the SCF density matrix

 Multipole Moments:

 ------------------------------------------------------------------------------------
     Multipole            Electronic (a.u.)      Nuclear  (a.u.)        Total (a.u.)
 ------------------------------------------------------------------------------------

 L = 1.  Multiply by 2.5417464519 to convert [e a0] to [Debye]
 Dipole X            :          0.0000000            0.0000000            0.0000000
 Dipole Y            :          0.0000000            0.0000000            0.0000000
 Dipole Z            :         -0.5022664            0.8918494            0.3895830
 Magnitude           :                                                    0.3895830

 ------------------------------------------------------------------------------------

*** tstop() called on Joses-MacBook-Pro-2.local at Wed Jul 16 20:17:41 2025
Module time:
	user time   =       6.74 seconds =       0.11 minutes
	system time =       1.59 seconds =       0.03 minutes
	total time  =          1 seconds =       0.02 minutes
Total time:
	user time   =     186.40 seconds =       3.11 minutes
	system time =      48.71 seconds =       0.81 minutes
	total time  =         22 seconds =       0.37 minutes

*** tstart() called on Joses-MacBook-Pro-2.local
*** at Wed Jul 16 20:17:41 2025

         ------------------------------------------------------------
                                   SCF GRAD
                          Rob Parrish, Justin Turney,
                       Andy Simmonett, and Alex Sokolov
         ------------------------------------------------------------

  ==> Geometry <==

    Molecular point group: c2v
    Full point group: C_inf_v

    Geometry (in Angstrom), charge = 0, multiplicity = 4:

       Center              X                  Y                   Z               Mass
    ------------   -----------------  -----------------  -----------------  -----------------
         SI           0.000000000000     0.000000000000     1.182516677130    27.976926534650
         CL           0.000000000000     0.000000000000    -0.946075712089    34.968852682000

  Nuclear repulsion =   59.167822255354061

  ==> Basis Set <==

  Basis Set: CC-PVDZ
    Blend: CC-PVDZ
    Number of shells: 16
    Number of basis functions: 36
    Number of Cartesian functions: 38
    Spherical Harmonics?: true
    Max angular momentum: 2

  ==> DFJKGrad: Density-Fitted SCF Gradients <==

    Gradient:                    1
    J tasked:                  Yes
    K tasked:                  Yes
    wK tasked:                  No
    OpenMP threads:              1
    Integrals threads:           1
    Memory [MiB]:              375
    Schwarz Cutoff:          1E-12
    Fitting Condition:       1E-10

   => Auxiliary Basis Set <=

  Basis Set: (CC-PVDZ AUX)
    Blend: CC-PVDZ-JKFIT
    Number of shells: 72
    Number of basis functions: 224
    Number of Cartesian functions: 260
    Spherical Harmonics?: true
    Max angular momentum: 3

  ==> DFT Potential <==

   => LibXC <=

    Version 6.2.2
    S. Lehtola, C. Steigemann, M. J.T. Oliveira, and M. A.L. Marques.,  SoftwareX 7, 1â€“5 (2018) (10.1016/j.softx.2017.11.002)

   => Composite Functional: B3LYP <=

    B3LYP Hyb-GGA Exchange-Correlation Functional

    P. J. Stephens, F. J. Devlin, C. F. Chabalowski, and M. J. Frisch.,  J. Phys. Chem. 98, 11623 (1994) (10.1021/j100096a001)

    Deriv               =              1
    GGA                 =           TRUE
    Meta                =          FALSE

    Exchange Hybrid     =           TRUE
    MP2 Hybrid          =          FALSE

   => Exchange Functionals <=

    0.0800   Slater exchange
    0.7200         Becke 88

   => Exact (HF) Exchange <=

    0.2000               HF

   => Correlation Functionals <=

    0.1900   Vosko, Wilk & Nusair (VWN5_RPA)
    0.8100   Lee, Yang & Parr

   => LibXC Density Thresholds  <==

    XC_HYB_GGA_XC_B3LYP:  1.00E-15

   => Molecular Quadrature <=

    Radial Scheme          =       TREUTLER
    Pruning Scheme         =           NONE
    Nuclear Scheme         =       TREUTLER

    Blocking Scheme        =         OCTREE
    BS radius alpha        =              1
    Pruning alpha          =              1
    Radial Points          =             75
    Spherical Points       =            302
    Total Points           =          41600
    Total Blocks           =            382
    Max Points             =            256
    Max Functions          =             36
    Weights Tolerance      =       1.00E-15

  -Total Gradient:
     Atom            X                  Y                   Z
    ------   -----------------  -----------------  -----------------
       1        0.000000000000    -0.000000000000    -0.000014619121
       2        0.000000000000     0.000000000000     0.000037320971

*** tstop() called on Joses-MacBook-Pro-2.local at Wed Jul 16 20:17:41 2025
Module time:
	user time   =       3.90 seconds =       0.07 minutes
	system time =       0.94 seconds =       0.02 minutes
	total time  =          0 seconds =       0.00 minutes
Total time:
	user time   =     190.31 seconds =       3.17 minutes
	system time =      49.66 seconds =       0.83 minutes
	total time  =         22 seconds =       0.37 minutes

    			-----------------------------------------

    			 OPTKING 3.0: for geometry optimizations

    			     By R.A. King, Bethel University

    			        with contributions from

    			    A.V. Copan, J. Cayton, A. Heide

    			-----------------------------------------

	                            ===> Fragment 1 <==

	 Z (Atomic Numbers)          Masses                          Geom
	      14.000000            27.976927          0.00000000  0.00000000  2.23463266
	      17.000000            34.968853          0.00000000  0.00000000 -1.78782399

	 - Coordinate -           - BOHR/RAD -       - ANG/DEG -
	 R(1,2)           =         4.022457           2.128592

	        --- Internal Coordinate Step in ANG or DEG, aJ/ANG or AJ/DEG ---
	-------------------------------------------------------------------------------
	           Coordinate      Previous         Force          Change          New
	           ----------      --------        ------          ------        ------
	               R(1,2)       2.12859        0.00021        0.00010       2.12870
	-------------------------------------------------------------------------------

	                                 ==> Convergence Check <==

	Measures of convergence in internal coordinates in au.

	Criteria marked as inactive (o), active & met (*), and active & unmet ( ).

	----------------------------------------------------------------------------------------------
	   Step    Total Energy     Delta E     Max Force     RMS Force      Max Disp      RMS Disp
	----------------------------------------------------------------------------------------------
	  Convergence Criteria     1.00e-06 *    3.00e-04 *             o    1.20e-03 *             o
	----------------------------------------------------------------------------------------------
	    16    -749.58091634   -1.73e-07 *    2.60e-05 *    2.60e-05 o    1.95e-04 *    1.95e-04 o  ~
	----------------------------------------------------------------------------------------------

Next Geometry in Ang
	Fragment 1 (Ang)

	   Si   0.0000000000   0.0000000000   1.1825682800
	   Cl   0.0000000000   0.0000000000  -0.9461273150

    Final optimized geometry and variables:
    Molecular point group: c2v
    Full point group: C_inf_v

    Geometry (in Angstrom), charge = 0, multiplicity = 4:

    SI           0.000000000000     0.000000000000     1.182516677130
    CL           0.000000000000     0.000000000000    -0.946075712089

    Psi4 stopped on: Wednesday, 16 July 2025 08:17PM
    Psi4 wall time for execution: 0:00:23.31

*** Psi4 exiting successfully. Buy a developer a beer!
