                               Psi4 1.9.1 release

  ==> Input File <==

--------------------------------------------------------------------------
molecule {
0 4
H   0.00000        0.60000        0.00000
O   0.00000       -0.60000        0.00000
}

set {
basis              cc-pvdz
reference          uks
maxiter            500
geom_maxiter       500
DAMPING_PERCENTAGE 1
guess              SAP
}

optimize('b3lyp')
--------------------------------------------------------------------------

    Molecular point group: c2v
  Charge       = 0
  Multiplicity = 4
  Basis Set: CC-PVDZ
    Blend: CC-PVDZ
  Basis Set: (CC-PVDZ AUX)
    Blend: CC-PVDZ-JKFIT
  @DF-UKS Final Energy:   -75.50614351847766
    Total Energy =                        -75.5061435184776570
 Dipole X            :          0.0000000            0.0000000            0.0000000
 Dipole Y            :          0.0000000            0.0000000            0.0000000
 Dipole Z            :         -1.8799213            1.0579402           -0.8219811
 Magnitude           :                                                    0.8219811
    Molecular point group: c2v
  Basis Set: CC-PVDZ
    Blend: CC-PVDZ
  Basis Set: (CC-PVDZ AUX)
    Blend: CC-PVDZ-JKFIT
  Basis Set: CC-PVDZ
    Blend: CC-PVDZ
  Basis Set: (CC-PVDZ AUX)
    Blend: CC-PVDZ-JKFIT
  @DF-UKS Final Energy:   -75.53977102214071
    Total Energy =                        -75.5397710221407124
  Basis Set: CC-PVDZ
    Blend: CC-PVDZ
  Basis Set: (CC-PVDZ AUX)
    Blend: CC-PVDZ-JKFIT
  Basis Set: CC-PVDZ
    Blend: CC-PVDZ
  @DF-UKS Final Energy:   -75.55738517479577
    Total Energy =                        -75.5573851747957690
  @DF-UKS Final Energy:   -75.56469507934935
    Total Energy =                        -75.5646950793493346
  @DF-UKS Final Energy:   -75.56817504591716
    Total Energy =                        -75.5681750459171582
  @DF-UKS Final Energy:   -75.56982252592758
    Total Energy =                        -75.5698225259275773
  @DF-UKS Final Energy:   -75.57058559429318
    Total Energy =                        -75.5705855942931635
  @DF-UKS Final Energy:   -75.57088332490591
    Total Energy =                        -75.5708833249059069
  @DF-UKS Final Energy:   -75.57096232982320
    Total Energy =                        -75.5709623298231890
  @DF-UKS Final Energy:   -75.57097257075239
    Total Energy =                        -75.5709725707523887
  Basis Set: (CC-PVDZ AUX)
    Blend: CC-PVDZ-JKFIT
  Basis Set: CC-PVDZ
    Blend: CC-PVDZ
  Basis Set: (CC-PVDZ AUX)
    Blend: CC-PVDZ-JKFIT
  @DF-UKS Final Energy:   -75.57097407310329
    Total Energy =                        -75.5709740731033008
  Basis Set: CC-PVDZ
    Blend: CC-PVDZ
  Basis Set: (CC-PVDZ AUX)
    Blend: CC-PVDZ-JKFIT
  Charge       = 0
  Multiplicity = 4
  Basis Set: CC-PVDZ
    Blend: CC-PVDZ
  Basis Set: (CC-PVDZ AUX)
    Blend: CC-PVDZ-JKFIT

    Orbital Energies [Eh]
    ---------------------

    Alpha Occupied:

       1A1   -19.285357     2A1    -1.014657     1B2    -0.451568
       1B1    -0.451568     3A1    -0.383610     4A1    -0.297478

    Alpha Virtual:

       5A1     0.437585     2B2     0.810026     2B1     0.810026
       6A1     0.857023     7A1     1.070338     3B1     1.224852
       3B2     1.224852     8A1     1.306693     9A1     2.432180
       1A2     2.432181     4B2     2.489002     4B1     2.489002
      10A1     2.511952

    Beta Occupied:

       1A1   -19.234203     2A1    -0.853753     3A1    -0.323098

    Beta Virtual:

       1B2    -0.168463     1B1    -0.168463     4A1    -0.070299
       5A1     0.580006     6A1     0.899260     2B2     0.924068
       2B1     0.924068     7A1     1.160287     3B2     1.388904
       3B1     1.388904     8A1     1.450659     4B2     2.582702
       4B1     2.582702     9A1     2.592609    10A1     2.606643
       1A2     2.606644

    Final Occupation by Irrep:
             A1    A2    B1    B2
    DOCC [     3,    0,    0,    0 ]
    SOCC [     1,    0,    1,    1 ]
    NA   [     4,    0,    1,    1 ]
    NB   [     3,    0,    0,    0 ]

  @DF-UKS Final Energy:   -75.57097431108463

   => Energetics <=

    Nuclear Repulsion Energy =              1.6840355619280145
    One-Electron Energy =                -107.1076217775156607
    Two-Electron Energy =                  36.9529701335484191
    DFT Exchange-Correlation Energy =      -7.1003582290453915
    Empirical Dispersion Energy =           0.0000000000000000
    VV10 Nonlocal Energy =                  0.0000000000000000
    Total Energy =                        -75.5709743110846262

  UHF NO Occupations:
  HONO-2 :    1 B1 1.0000000
  HONO-1 :    4 A1 1.0000000
  HONO-0 :    1 B2 1.0000000
  LUNO+0 :    5 A1 0.0008049
  LUNO+1 :    6 A1 0.0005284
  LUNO+2 :    7 A1 0.0000001
  LUNO+3 :    8 A1 0.0000000

Computation Completed

Properties will be evaluated at   0.000000,   0.000000,   0.000000 [a0]

Properties computed using the SCF density matrix

 Multipole Moments:

 ------------------------------------------------------------------------------------
     Multipole            Electronic (a.u.)      Nuclear  (a.u.)        Total (a.u.)
 ------------------------------------------------------------------------------------

 L = 1.  Multiply by 2.5417464519 to convert [e a0] to [Debye]
 Dipole X            :          0.0000000            0.0000000            0.0000000
 Dipole Y            :          0.0000000            0.0000000            0.0000000
 Dipole Z            :         -2.3339847            2.2162551           -0.1177297
 Magnitude           :                                                    0.1177297

 ------------------------------------------------------------------------------------

*** tstop() called on Joses-MacBook-Pro-2.local at Wed Jul 16 18:13:44 2025
Module time:
	user time   =       0.67 seconds =       0.01 minutes
	system time =       3.10 seconds =       0.05 minutes
	total time  =          0 seconds =       0.00 minutes
Total time:
	user time   =      13.79 seconds =       0.23 minutes
	system time =      47.28 seconds =       0.79 minutes
	total time  =          6 seconds =       0.10 minutes

*** tstart() called on Joses-MacBook-Pro-2.local
*** at Wed Jul 16 18:13:44 2025

         ------------------------------------------------------------
                                   SCF GRAD
                          Rob Parrish, Justin Turney,
                       Andy Simmonett, and Alex Sokolov
         ------------------------------------------------------------

  ==> Geometry <==

    Molecular point group: c2v
    Full point group: C_inf_v

    Geometry (in Angstrom), charge = 0, multiplicity = 4:

       Center              X                  Y                   Z               Mass
    ------------   -----------------  -----------------  -----------------  -----------------
         H            0.000000000000     0.000000000000     2.364846099274     1.007825032230
         O            0.000000000000     0.000000000000    -0.149006803281    15.994914619570

  Nuclear repulsion =    1.684035561928015

  ==> Basis Set <==

  Basis Set: CC-PVDZ
    Blend: CC-PVDZ
    Number of shells: 9
    Number of basis functions: 19
    Number of Cartesian functions: 20
    Spherical Harmonics?: true
    Max angular momentum: 2

  ==> DFJKGrad: Density-Fitted SCF Gradients <==

    Gradient:                    1
    J tasked:                  Yes
    K tasked:                  Yes
    wK tasked:                  No
    OpenMP threads:              1
    Integrals threads:           1
    Memory [MiB]:              375
    Schwarz Cutoff:          1E-12
    Fitting Condition:       1E-10

   => Auxiliary Basis Set <=

  Basis Set: (CC-PVDZ AUX)
    Blend: CC-PVDZ-JKFIT
    Number of shells: 33
    Number of basis functions: 93
    Number of Cartesian functions: 106
    Spherical Harmonics?: true
    Max angular momentum: 3

  ==> DFT Potential <==

   => LibXC <=

    Version 6.2.2
    S. Lehtola, C. Steigemann, M. J.T. Oliveira, and M. A.L. Marques.,  SoftwareX 7, 1â€“5 (2018) (10.1016/j.softx.2017.11.002)

   => Composite Functional: B3LYP <=

    B3LYP Hyb-GGA Exchange-Correlation Functional

    P. J. Stephens, F. J. Devlin, C. F. Chabalowski, and M. J. Frisch.,  J. Phys. Chem. 98, 11623 (1994) (10.1021/j100096a001)

    Deriv               =              1
    GGA                 =           TRUE
    Meta                =          FALSE

    Exchange Hybrid     =           TRUE
    MP2 Hybrid          =          FALSE

   => Exchange Functionals <=

    0.0800   Slater exchange
    0.7200         Becke 88

   => Exact (HF) Exchange <=

    0.2000               HF

   => Correlation Functionals <=

    0.1900   Vosko, Wilk & Nusair (VWN5_RPA)
    0.8100   Lee, Yang & Parr

   => LibXC Density Thresholds  <==

    XC_HYB_GGA_XC_B3LYP:  1.00E-15

   => Molecular Quadrature <=

    Radial Scheme          =       TREUTLER
    Pruning Scheme         =           NONE
    Nuclear Scheme         =       TREUTLER

    Blocking Scheme        =         OCTREE
    BS radius alpha        =              1
    Pruning alpha          =              1
    Radial Points          =             75
    Spherical Points       =            302
    Total Points           =          44156
    Total Blocks           =            388
    Max Points             =            256
    Max Functions          =             19
    Weights Tolerance      =       1.00E-15

  -Total Gradient:
     Atom            X                  Y                   Z
    ------   -----------------  -----------------  -----------------
       1        0.000000000000    -0.000000000000    -0.000014912736
       2       -0.000000000000    -0.000000000000     0.000013859366

*** tstop() called on Joses-MacBook-Pro-2.local at Wed Jul 16 18:13:44 2025
Module time:
	user time   =       0.31 seconds =       0.01 minutes
	system time =       0.73 seconds =       0.01 minutes
	total time  =          0 seconds =       0.00 minutes
Total time:
	user time   =      14.11 seconds =       0.24 minutes
	system time =      48.01 seconds =       0.80 minutes
	total time  =          6 seconds =       0.10 minutes

    			-----------------------------------------

    			 OPTKING 3.0: for geometry optimizations

    			     By R.A. King, Bethel University

    			        with contributions from

    			    A.V. Copan, J. Cayton, A. Heide

    			-----------------------------------------

	                            ===> Fragment 1 <==

	 Z (Atomic Numbers)          Masses                          Geom
	       1.000000             1.007825          0.00000000  0.00000000  4.46891146
	       8.000000            15.994915          0.00000000  0.00000000 -0.28158205

	 - Coordinate -           - BOHR/RAD -       - ANG/DEG -
	 R(1,2)           =         4.750494           2.513853

	        --- Internal Coordinate Step in ANG or DEG, aJ/ANG or AJ/DEG ---
	-------------------------------------------------------------------------------
	           Coordinate      Previous         Force          Change          New
	           ----------      --------        ------          ------        ------
	               R(1,2)       2.51385        0.00012        0.00257       2.51643
	-------------------------------------------------------------------------------

	                                 ==> Convergence Check <==

	Measures of convergence in internal coordinates in au.

	Criteria marked as inactive (o), active & met (*), and active & unmet ( ).

	----------------------------------------------------------------------------------------------
	   Step    Total Energy     Delta E     Max Force     RMS Force      Max Disp      RMS Disp
	----------------------------------------------------------------------------------------------
	  Convergence Criteria     1.00e-06 *    3.00e-04 *             o    1.20e-03 *             o
	----------------------------------------------------------------------------------------------
	    12     -75.57097431   -2.38e-07 *    1.44e-05 *    1.44e-05 o    4.86e-03      4.86e-03 o  ~
	----------------------------------------------------------------------------------------------

Next Geometry in Ang
	Fragment 1 (Ang)

	    H   0.0000000000   0.0000000000   2.3661322644
	    O   0.0000000000   0.0000000000  -0.1502929684

    Final optimized geometry and variables:
    Molecular point group: c2v
    Full point group: C_inf_v

    Geometry (in Angstrom), charge = 0, multiplicity = 4:

    H            0.000000000000     0.000000000000     2.364846099274
    O            0.000000000000     0.000000000000    -0.149006803281

    Psi4 stopped on: Wednesday, 16 July 2025 06:13PM
    Psi4 wall time for execution: 0:00:07.33

*** Psi4 exiting successfully. Buy a developer a beer!
