                               Psi4 1.9.1 release

  ==> Input File <==

--------------------------------------------------------------------------
molecule {
0 4
Na   0.00000        0.60000        0.00000
Mg   0.00000       -0.60000        0.00000
}

set {
basis              cc-pvdz
reference          uks
maxiter            500
geom_maxiter       500
DAMPING_PERCENTAGE 1
guess              SAP
}

optimize('b3lyp')
--------------------------------------------------------------------------

    Molecular point group: c2v
  Charge       = 0
  Multiplicity = 4
  Basis Set: CC-PVDZ
    Blend: CC-PVDZ
  Basis Set: (CC-PVDZ AUX)
    Blend: DEF2-UNIVERSAL-JKFIT
  @DF-UKS Final Energy:  -361.66278814334345
    Total Energy =                       -361.6627881433434482
 Dipole X            :          0.0000000            0.0000000            0.0000000
 Dipole Y            :          0.0000000            0.0000000            0.0000000
 Dipole Z            :          1.2810111           -0.5813069            0.6997042
 Magnitude           :                                                    0.6997042
    Molecular point group: c2v
  Basis Set: CC-PVDZ
    Blend: CC-PVDZ
  Basis Set: (CC-PVDZ AUX)
    Blend: DEF2-UNIVERSAL-JKFIT
  Basis Set: CC-PVDZ
    Blend: CC-PVDZ
  Basis Set: (CC-PVDZ AUX)
    Blend: DEF2-UNIVERSAL-JKFIT
  @DF-UKS Final Energy:  -361.66953869057454
    Total Energy =                       -361.6695386905745409
  Basis Set: CC-PVDZ
    Blend: CC-PVDZ
  Basis Set: (CC-PVDZ AUX)
    Blend: DEF2-UNIVERSAL-JKFIT
  Basis Set: CC-PVDZ
    Blend: CC-PVDZ
  @DF-UKS Final Energy:  -361.68256539886704
    Total Energy =                       -361.6825653988670410
  @DF-UKS Final Energy:  -361.72980537085186
    Total Energy =                       -361.7298053708518637
  @DF-UKS Final Energy:  -361.94409674627019
    Total Energy =                       -361.9440967462701906
  @DF-UKS Final Energy:  -362.04935891827773
    Total Energy =                       -362.0493589182777328
  @DF-UKS Final Energy:  -362.12270309800141
    Total Energy =                       -362.1227030980014092
  @DF-UKS Final Energy:  -362.17742525726419
    Total Energy =                       -362.1774252572641899
  @DF-UKS Final Energy:  -362.21218581943504
    Total Energy =                       -362.2121858194350352
  @DF-UKS Final Energy:  -362.23208852051619
    Total Energy =                       -362.2320885205161858
  @DF-UKS Final Energy:  -362.24105517432264
    Total Energy =                       -362.2410551743226392
  @DF-UKS Final Energy:  -362.24405290942997
    Total Energy =                       -362.2440529094299109
  @DF-UKS Final Energy:  -362.24467777418670
    Total Energy =                       -362.2446777741866981
  @DF-UKS Final Energy:  -362.24473002844189
    Total Energy =                       -362.2447300284418930
  Basis Set: (CC-PVDZ AUX)
    Blend: DEF2-UNIVERSAL-JKFIT
  Basis Set: CC-PVDZ
    Blend: CC-PVDZ
  Basis Set: (CC-PVDZ AUX)
    Blend: DEF2-UNIVERSAL-JKFIT
  @DF-UKS Final Energy:  -362.24473458803038
    Total Energy =                       -362.2447345880304397
  Basis Set: CC-PVDZ
    Blend: CC-PVDZ
  Basis Set: (CC-PVDZ AUX)
    Blend: DEF2-UNIVERSAL-JKFIT
  Charge       = 0
  Multiplicity = 4
  Basis Set: CC-PVDZ
    Blend: CC-PVDZ
  Basis Set: (CC-PVDZ AUX)
    Blend: DEF2-UNIVERSAL-JKFIT

    Orbital Energies [Eh]
    ---------------------

    Alpha Occupied:

       1A1   -46.859571     2A1   -38.546548     3A1    -3.139888
       4A1    -2.289405     5A1    -1.885474     1B1    -1.882455
       1B2    -1.882455     6A1    -1.222083     2B2    -1.219995
       2B1    -1.219995     7A1    -0.249665     3B2    -0.103226
       3B1    -0.103226

    Alpha Virtual:

       8A1    -0.101556     9A1    -0.040323     4B1    -0.009591
       4B2    -0.009591    10A1     0.012441    11A1     0.046153
       5B1     0.056741     5B2     0.056741    12A1     0.100827
       1A2     0.135056    13A1     0.135057     6B2     0.143167
       6B1     0.143167    14A1     0.143311    15A1     0.170576
       7B2     0.175914     7B1     0.175914     2A2     0.303116
      16A1     0.303116    17A1     0.321723     8B1     0.396878
       8B2     0.396878    18A1     0.518847

    Beta Occupied:

       1A1   -46.855217     2A1   -38.545620     3A1    -3.132850
       4A1    -2.287803     5A1    -1.881282     1B1    -1.875201
       1B2    -1.875201     6A1    -1.220893     2B2    -1.218478
       2B1    -1.218478

    Beta Virtual:

       7A1    -0.137369     8A1    -0.080448     3B2    -0.017450
       3B1    -0.017450     9A1    -0.011521     4B1     0.028499
       4B2     0.028499    10A1     0.030497    11A1     0.054182
       5B1     0.072409     5B2     0.072409    12A1     0.123587
      13A1     0.160314    14A1     0.162605     1A2     0.162612
       6B2     0.175023     6B1     0.175023    15A1     0.206361
       7B2     0.212141     7B1     0.212141    16A1     0.347539
       2A2     0.372063    17A1     0.372069     8B1     0.439825
       8B2     0.439825    18A1     0.543700

    Final Occupation by Irrep:
             A1    A2    B1    B2
    DOCC [     6,    0,    2,    2 ]
    SOCC [     1,    0,    1,    1 ]
    NA   [     7,    0,    3,    3 ]
    NB   [     6,    0,    2,    2 ]

  @DF-UKS Final Energy:  -362.24473467532266

   => Energetics <=

    Nuclear Repulsion Energy =             24.7015731654179618
    One-Electron Energy =                -555.3878513026331802
    Two-Electron Energy =                 193.3490874111668631
    DFT Exchange-Correlation Energy =     -24.9075439492742525
    Empirical Dispersion Energy =           0.0000000000000000
    VV10 Nonlocal Energy =                  0.0000000000000000
    Total Energy =                       -362.2447346753226611

  UHF NO Occupations:
  HONO-2 :    3 B2 1.0000000
  HONO-1 :    3 B1 1.0000000
  HONO-0 :    7 A1 1.0000000
  LUNO+0 :    8 A1 0.0000010
  LUNO+1 :    4 B2 0.0000005
  LUNO+2 :    4 B1 0.0000005
  LUNO+3 :    9 A1 0.0000004

Computation Completed

Properties will be evaluated at   0.000000,   0.000000,   0.000000 [a0]

Properties computed using the SCF density matrix

 Multipole Moments:

 ------------------------------------------------------------------------------------
     Multipole            Electronic (a.u.)      Nuclear  (a.u.)        Total (a.u.)
 ------------------------------------------------------------------------------------

 L = 1.  Multiply by 2.5417464519 to convert [e a0] to [Debye]
 Dipole X            :          0.0000000            0.0000000            0.0000000
 Dipole Y            :          0.0000000            0.0000000            0.0000000
 Dipole Z            :          3.0281840           -1.3698553            1.6583287
 Magnitude           :                                                    1.6583287

 ------------------------------------------------------------------------------------

*** tstop() called on Joses-MacBook-Pro-2.local at Wed Jul 16 19:40:49 2025
Module time:
	user time   =       5.61 seconds =       0.09 minutes
	system time =       2.54 seconds =       0.04 minutes
	total time  =          1 seconds =       0.02 minutes
Total time:
	user time   =     164.91 seconds =       2.75 minutes
	system time =      63.92 seconds =       1.07 minutes
	total time  =         22 seconds =       0.37 minutes

*** tstart() called on Joses-MacBook-Pro-2.local
*** at Wed Jul 16 19:40:49 2025

         ------------------------------------------------------------
                                   SCF GRAD
                          Rob Parrish, Justin Turney,
                       Andy Simmonett, and Alex Sokolov
         ------------------------------------------------------------

  ==> Geometry <==

    Molecular point group: c2v
    Full point group: C_inf_v

    Geometry (in Angstrom), charge = 0, multiplicity = 4:

       Center              X                  Y                   Z               Mass
    ------------   -----------------  -----------------  -----------------  -----------------
         NA           0.000000000000     0.000000000000     1.443862667954    22.989769282000
         MG           0.000000000000     0.000000000000    -1.383948797359    23.985041697000

  Nuclear repulsion =   24.701573165417962

  ==> Basis Set <==

  Basis Set: CC-PVDZ
    Blend: CC-PVDZ
    Number of shells: 16
    Number of basis functions: 36
    Number of Cartesian functions: 38
    Spherical Harmonics?: true
    Max angular momentum: 2

  ==> DFJKGrad: Density-Fitted SCF Gradients <==

    Gradient:                    1
    J tasked:                  Yes
    K tasked:                  Yes
    wK tasked:                  No
    OpenMP threads:              1
    Integrals threads:           1
    Memory [MiB]:              375
    Schwarz Cutoff:          1E-12
    Fitting Condition:       1E-10

   => Auxiliary Basis Set <=

  Basis Set: (CC-PVDZ AUX)
    Blend: DEF2-UNIVERSAL-JKFIT
    Number of shells: 68
    Number of basis functions: 224
    Number of Cartesian functions: 274
    Spherical Harmonics?: true
    Max angular momentum: 4

  ==> DFT Potential <==

   => LibXC <=

    Version 6.2.2
    S. Lehtola, C. Steigemann, M. J.T. Oliveira, and M. A.L. Marques.,  SoftwareX 7, 1â€“5 (2018) (10.1016/j.softx.2017.11.002)

   => Composite Functional: B3LYP <=

    B3LYP Hyb-GGA Exchange-Correlation Functional

    P. J. Stephens, F. J. Devlin, C. F. Chabalowski, and M. J. Frisch.,  J. Phys. Chem. 98, 11623 (1994) (10.1021/j100096a001)

    Deriv               =              1
    GGA                 =           TRUE
    Meta                =          FALSE

    Exchange Hybrid     =           TRUE
    MP2 Hybrid          =          FALSE

   => Exchange Functionals <=

    0.0800   Slater exchange
    0.7200         Becke 88

   => Exact (HF) Exchange <=

    0.2000               HF

   => Correlation Functionals <=

    0.1900   Vosko, Wilk & Nusair (VWN5_RPA)
    0.8100   Lee, Yang & Parr

   => LibXC Density Thresholds  <==

    XC_HYB_GGA_XC_B3LYP:  1.00E-15

   => Molecular Quadrature <=

    Radial Scheme          =       TREUTLER
    Pruning Scheme         =           NONE
    Nuclear Scheme         =       TREUTLER

    Blocking Scheme        =         OCTREE
    BS radius alpha        =              1
    Pruning alpha          =              1
    Radial Points          =             75
    Spherical Points       =            302
    Total Points           =          43591
    Total Blocks           =            452
    Max Points             =            255
    Max Functions          =             36
    Weights Tolerance      =       1.00E-15

  -Total Gradient:
     Atom            X                  Y                   Z
    ------   -----------------  -----------------  -----------------
       1        0.000000000000    -0.000000000000    -0.000003546378
       2        0.000000000000     0.000000000000     0.000014358386

*** tstop() called on Joses-MacBook-Pro-2.local at Wed Jul 16 19:40:49 2025
Module time:
	user time   =       2.62 seconds =       0.04 minutes
	system time =       1.64 seconds =       0.03 minutes
	total time  =          0 seconds =       0.00 minutes
Total time:
	user time   =     167.53 seconds =       2.79 minutes
	system time =      65.57 seconds =       1.09 minutes
	total time  =         22 seconds =       0.37 minutes

    			-----------------------------------------

    			 OPTKING 3.0: for geometry optimizations

    			     By R.A. King, Bethel University

    			        with contributions from

    			    A.V. Copan, J. Cayton, A. Heide

    			-----------------------------------------

	                            ===> Fragment 1 <==

	 Z (Atomic Numbers)          Masses                          Geom
	      11.000000            22.989769          0.00000000  0.00000000  2.72850501
	      12.000000            23.985042          0.00000000  0.00000000 -2.61528420

	 - Coordinate -           - BOHR/RAD -       - ANG/DEG -
	 R(1,2)           =         5.343789           2.827811

	        --- Internal Coordinate Step in ANG or DEG, aJ/ANG or AJ/DEG ---
	-------------------------------------------------------------------------------
	           Coordinate      Previous         Force          Change          New
	           ----------      --------        ------          ------        ------
	               R(1,2)       2.82781        0.00007        0.00022       2.82803
	-------------------------------------------------------------------------------

	                                 ==> Convergence Check <==

	Measures of convergence in internal coordinates in au.

	Criteria marked as inactive (o), active & met (*), and active & unmet ( ).

	----------------------------------------------------------------------------------------------
	   Step    Total Energy     Delta E     Max Force     RMS Force      Max Disp      RMS Disp
	----------------------------------------------------------------------------------------------
	  Convergence Criteria     1.00e-06 *    3.00e-04 *             o    1.20e-03 *             o
	----------------------------------------------------------------------------------------------
	    16    -362.24473468   -8.73e-08 *    8.95e-06 *    8.95e-06 o    4.14e-04 *    4.14e-04 o  ~
	----------------------------------------------------------------------------------------------

Next Geometry in Ang
	Fragment 1 (Ang)

	   Na   0.0000000000   0.0000000000   1.4439722789
	   Mg   0.0000000000   0.0000000000  -1.3840584083

    Final optimized geometry and variables:
    Molecular point group: c2v
    Full point group: C_inf_v

    Geometry (in Angstrom), charge = 0, multiplicity = 4:

    NA           0.000000000000     0.000000000000     1.443862667954
    MG           0.000000000000     0.000000000000    -1.383948797359

    Psi4 stopped on: Wednesday, 16 July 2025 07:40PM
    Psi4 wall time for execution: 0:00:22.54

*** Psi4 exiting successfully. Buy a developer a beer!
