                               Psi4 1.9.1 release

  ==> Input File <==

--------------------------------------------------------------------------
molecule {
0 4
C   0.00000        0.60000        0.00000
Al   0.00000       -0.60000        0.00000
}

set {
basis              cc-pvdz
reference          uks
maxiter            500
geom_maxiter       500
DAMPING_PERCENTAGE 1
guess              SAP
}

optimize('b3lyp')
--------------------------------------------------------------------------

    Molecular point group: c2v
  Charge       = 0
  Multiplicity = 4
  Basis Set: CC-PVDZ
    Blend: CC-PVDZ
  Basis Set: (CC-PVDZ AUX)
    Blend: CC-PVDZ-JKFIT
  @DF-UKS Final Energy:  -279.83384478654756
    Total Energy =                       -279.8338447865476155
 Dipole X            :          0.0000000            0.0000000            0.0000000
 Dipole Y            :          0.0000000            0.0000000            0.0000000
 Dipole Z            :         -1.2066111            0.3425940           -0.8640171
 Magnitude           :                                                    0.8640171
    Molecular point group: c2v
  Basis Set: CC-PVDZ
    Blend: CC-PVDZ
  Basis Set: (CC-PVDZ AUX)
    Blend: CC-PVDZ-JKFIT
  Basis Set: CC-PVDZ
    Blend: CC-PVDZ
  Basis Set: (CC-PVDZ AUX)
    Blend: CC-PVDZ-JKFIT
  @DF-UKS Final Energy:  -280.07165863718456
    Total Energy =                       -280.0716586371845551
  Basis Set: CC-PVDZ
    Blend: CC-PVDZ
  Basis Set: (CC-PVDZ AUX)
    Blend: CC-PVDZ-JKFIT
  Basis Set: CC-PVDZ
    Blend: CC-PVDZ
  @DF-UKS Final Energy:  -280.19669427824425
    Total Energy =                       -280.1966942782442516
  @DF-UKS Final Energy:  -280.24172696703897
    Total Energy =                       -280.2417269670389715
  @DF-UKS Final Energy:  -280.32431783123792
    Total Energy =                       -280.3243178312379200
  @DF-UKS Final Energy:  -280.34888277357010
    Total Energy =                       -280.3488827735701534
  @DF-UKS Final Energy:  -280.35373170237585
    Total Energy =                       -280.3537317023758533
  @DF-UKS Final Energy:  -280.35384021111292
    Total Energy =                       -280.3538402111129244
  Basis Set: (CC-PVDZ AUX)
    Blend: CC-PVDZ-JKFIT
  Basis Set: CC-PVDZ
    Blend: CC-PVDZ
  Basis Set: (CC-PVDZ AUX)
    Blend: CC-PVDZ-JKFIT
  @DF-UKS Final Energy:  -280.35384773914996
    Total Energy =                       -280.3538477391499555
  Basis Set: CC-PVDZ
    Blend: CC-PVDZ
  Basis Set: (CC-PVDZ AUX)
    Blend: CC-PVDZ-JKFIT
  Charge       = 0
  Multiplicity = 4
  Basis Set: CC-PVDZ
    Blend: CC-PVDZ
  Basis Set: (CC-PVDZ AUX)
    Blend: CC-PVDZ-JKFIT

    Orbital Energies [Eh]
    ---------------------

    Alpha Occupied:

       1A1   -56.081357     2A1   -10.232539     3A1    -4.161542
       1B1    -2.714898     1B2    -2.714898     4A1    -2.712440
       5A1    -0.602393     6A1    -0.332966     2B1    -0.243331
       2B2    -0.243331     7A1    -0.224384

    Alpha Virtual:

       3B2    -0.054063     3B1    -0.054063     8A1     0.032740
       9A1     0.162776     4B2     0.210093     4B1     0.210093
      10A1     0.246610     1A2     0.254129    11A1     0.254129
       5B1     0.303251     5B2     0.303251    12A1     0.401084
       6B1     0.532149     6B2     0.532149    13A1     0.606788
      14A1     0.847705     2A2     1.153640    15A1     1.153641
       7B1     1.267339     7B2     1.267339    16A1     1.553744

    Beta Occupied:

       1A1   -56.079814     2A1   -10.201304     3A1    -4.159731
       1B2    -2.712874     1B1    -2.712874     4A1    -2.708379
       5A1    -0.485957     6A1    -0.270265

    Beta Virtual:

       2B1    -0.107246     2B2    -0.107246     7A1    -0.096164
       3B2    -0.001962     3B1    -0.001962     8A1     0.057487
       9A1     0.173537     4B2     0.217841     4B1     0.217841
       1A2     0.268983    10A1     0.268983    11A1     0.277380
       5B1     0.339246     5B2     0.339246    12A1     0.439136
       6B1     0.599123     6B2     0.599123    13A1     0.667688
      14A1     0.914297     2A2     1.255649    15A1     1.255656
       7B1     1.359964     7B2     1.359964    16A1     1.633337

    Final Occupation by Irrep:
             A1    A2    B1    B2
    DOCC [     6,    0,    1,    1 ]
    SOCC [     1,    0,    1,    1 ]
    NA   [     7,    0,    2,    2 ]
    NB   [     6,    0,    1,    1 ]

  @DF-UKS Final Energy:  -280.35384828057386

   => Energetics <=

    Nuclear Repulsion Energy =             20.7092425157136368
    One-Electron Energy =                -428.7411099005872757
    Two-Electron Energy =                 146.9648404018211920
    DFT Exchange-Correlation Energy =     -19.2868212975214490
    Empirical Dispersion Energy =           0.0000000000000000
    VV10 Nonlocal Energy =                  0.0000000000000000
    Total Energy =                       -280.3538482805738568

  UHF NO Occupations:
  HONO-2 :    2 B2 1.0000000
  HONO-1 :    7 A1 1.0000000
  HONO-0 :    2 B1 1.0000000
  LUNO+0 :    8 A1 0.0010704
  LUNO+1 :    9 A1 0.0009410
  LUNO+2 :   10 A1 0.0000003
  LUNO+3 :   11 A1 0.0000000

Computation Completed

Properties will be evaluated at   0.000000,   0.000000,   0.000000 [a0]

Properties computed using the SCF density matrix

 Multipole Moments:

 ------------------------------------------------------------------------------------
     Multipole            Electronic (a.u.)      Nuclear  (a.u.)        Total (a.u.)
 ------------------------------------------------------------------------------------

 L = 1.  Multiply by 2.5417464519 to convert [e a0] to [Debye]
 Dipole X            :          0.0000000            0.0000000            0.0000000
 Dipole Y            :          0.0000000            0.0000000            0.0000000
 Dipole Z            :         -1.2646925            0.5690233           -0.6956692
 Magnitude           :                                                    0.6956692

 ------------------------------------------------------------------------------------

*** tstop() called on Joses-MacBook-Pro-2.local at Wed Jul 16 19:03:18 2025
Module time:
	user time   =       2.90 seconds =       0.05 minutes
	system time =       3.08 seconds =       0.05 minutes
	total time  =          0 seconds =       0.00 minutes
Total time:
	user time   =      51.16 seconds =       0.85 minutes
	system time =      52.64 seconds =       0.88 minutes
	total time  =         10 seconds =       0.17 minutes

*** tstart() called on Joses-MacBook-Pro-2.local
*** at Wed Jul 16 19:03:18 2025

         ------------------------------------------------------------
                                   SCF GRAD
                          Rob Parrish, Justin Turney,
                       Andy Simmonett, and Alex Sokolov
         ------------------------------------------------------------

  ==> Geometry <==

    Molecular point group: c2v
    Full point group: C_inf_v

    Geometry (in Angstrom), charge = 0, multiplicity = 4:

       Center              X                  Y                   Z               Mass
    ------------   -----------------  -----------------  -----------------  -----------------
         C            0.000000000000     0.000000000000     1.379555750311    12.000000000000
         AL           0.000000000000     0.000000000000    -0.613555412540    26.981538530000

  Nuclear repulsion =   20.709242515713637

  ==> Basis Set <==

  Basis Set: CC-PVDZ
    Blend: CC-PVDZ
    Number of shells: 14
    Number of basis functions: 32
    Number of Cartesian functions: 34
    Spherical Harmonics?: true
    Max angular momentum: 2

  ==> DFJKGrad: Density-Fitted SCF Gradients <==

    Gradient:                    1
    J tasked:                  Yes
    K tasked:                  Yes
    wK tasked:                  No
    OpenMP threads:              1
    Integrals threads:           1
    Memory [MiB]:              375
    Schwarz Cutoff:          1E-12
    Fitting Condition:       1E-10

   => Auxiliary Basis Set <=

  Basis Set: (CC-PVDZ AUX)
    Blend: CC-PVDZ-JKFIT
    Number of shells: 60
    Number of basis functions: 182
    Number of Cartesian functions: 211
    Spherical Harmonics?: true
    Max angular momentum: 3

  ==> DFT Potential <==

   => LibXC <=

    Version 6.2.2
    S. Lehtola, C. Steigemann, M. J.T. Oliveira, and M. A.L. Marques.,  SoftwareX 7, 1â€“5 (2018) (10.1016/j.softx.2017.11.002)

   => Composite Functional: B3LYP <=

    B3LYP Hyb-GGA Exchange-Correlation Functional

    P. J. Stephens, F. J. Devlin, C. F. Chabalowski, and M. J. Frisch.,  J. Phys. Chem. 98, 11623 (1994) (10.1021/j100096a001)

    Deriv               =              1
    GGA                 =           TRUE
    Meta                =          FALSE

    Exchange Hybrid     =           TRUE
    MP2 Hybrid          =          FALSE

   => Exchange Functionals <=

    0.0800   Slater exchange
    0.7200         Becke 88

   => Exact (HF) Exchange <=

    0.2000               HF

   => Correlation Functionals <=

    0.1900   Vosko, Wilk & Nusair (VWN5_RPA)
    0.8100   Lee, Yang & Parr

   => LibXC Density Thresholds  <==

    XC_HYB_GGA_XC_B3LYP:  1.00E-15

   => Molecular Quadrature <=

    Radial Scheme          =       TREUTLER
    Pruning Scheme         =           NONE
    Nuclear Scheme         =       TREUTLER

    Blocking Scheme        =         OCTREE
    BS radius alpha        =              1
    Pruning alpha          =              1
    Radial Points          =             75
    Spherical Points       =            302
    Total Points           =          43271
    Total Blocks           =            401
    Max Points             =            255
    Max Functions          =             32
    Weights Tolerance      =       1.00E-15

  -Total Gradient:
     Atom            X                  Y                   Z
    ------   -----------------  -----------------  -----------------
       1        0.000000000000    -0.000000000000    -0.000109789617
       2        0.000000000000     0.000000000000     0.000092057344

*** tstop() called on Joses-MacBook-Pro-2.local at Wed Jul 16 19:03:18 2025
Module time:
	user time   =       0.81 seconds =       0.01 minutes
	system time =       1.27 seconds =       0.02 minutes
	total time  =          0 seconds =       0.00 minutes
Total time:
	user time   =      51.98 seconds =       0.87 minutes
	system time =      53.91 seconds =       0.90 minutes
	total time  =         10 seconds =       0.17 minutes

    			-----------------------------------------

    			 OPTKING 3.0: for geometry optimizations

    			     By R.A. King, Bethel University

    			        with contributions from

    			    A.V. Copan, J. Cayton, A. Heide

    			-----------------------------------------

	                            ===> Fragment 1 <==

	 Z (Atomic Numbers)          Masses                          Geom
	       6.000000            12.000000          0.00000000  0.00000000  2.60698254
	      13.000000            26.981539          0.00000000  0.00000000 -1.15945169

	 - Coordinate -           - BOHR/RAD -       - ANG/DEG -
	 R(1,2)           =         3.766434           1.993111

	        --- Internal Coordinate Step in ANG or DEG, aJ/ANG or AJ/DEG ---
	-------------------------------------------------------------------------------
	           Coordinate      Previous         Force          Change          New
	           ----------      --------        ------          ------        ------
	               R(1,2)       1.99311        0.00083        0.00033       1.99344
	-------------------------------------------------------------------------------

	                                 ==> Convergence Check <==

	Measures of convergence in internal coordinates in au.

	Criteria marked as inactive (o), active & met (*), and active & unmet ( ).

	----------------------------------------------------------------------------------------------
	   Step    Total Energy     Delta E     Max Force     RMS Force      Max Disp      RMS Disp
	----------------------------------------------------------------------------------------------
	  Convergence Criteria     1.00e-06 *    3.00e-04 *             o    1.20e-03 *             o
	----------------------------------------------------------------------------------------------
	    10    -280.35384828   -5.41e-07 *    1.01e-04 *    1.01e-04 o    6.28e-04 *    6.28e-04 o  ~
	----------------------------------------------------------------------------------------------

Next Geometry in Ang
	Fragment 1 (Ang)

	    C   0.0000000000   0.0000000000   1.3797219008
	   Al   0.0000000000   0.0000000000  -0.6137215630

    Final optimized geometry and variables:
    Molecular point group: c2v
    Full point group: C_inf_v

    Geometry (in Angstrom), charge = 0, multiplicity = 4:

    C            0.000000000000     0.000000000000     1.379555750311
    AL           0.000000000000     0.000000000000    -0.613555412540

    Psi4 stopped on: Wednesday, 16 July 2025 07:03PM
    Psi4 wall time for execution: 0:00:10.74

*** Psi4 exiting successfully. Buy a developer a beer!
