                               Psi4 1.9.1 release

  ==> Input File <==

--------------------------------------------------------------------------
molecule {
0 4
C   0.00000        0.60000        0.00000
Cl   0.00000       -0.60000        0.00000
}

set {
basis              cc-pvdz
reference          uks
maxiter            500
geom_maxiter       500
DAMPING_PERCENTAGE 1
guess              SAP
}

optimize('b3lyp')
--------------------------------------------------------------------------

    Molecular point group: c2v
  Charge       = 0
  Multiplicity = 4
  Basis Set: CC-PVDZ
    Blend: CC-PVDZ
  Basis Set: (CC-PVDZ AUX)
    Blend: CC-PVDZ-JKFIT
  @DF-UKS Final Energy:  -497.75422620881204
    Total Energy =                       -497.7542262088120424
 Dipole X            :          0.0000000            0.0000000            0.0000000
 Dipole Y            :          0.0000000            0.0000000            0.0000000
 Dipole Z            :         -0.5188527            0.2806591           -0.2381936
 Magnitude           :                                                    0.2381936
    Molecular point group: c2v
  Basis Set: CC-PVDZ
    Blend: CC-PVDZ
  Basis Set: (CC-PVDZ AUX)
    Blend: CC-PVDZ-JKFIT
  Basis Set: CC-PVDZ
    Blend: CC-PVDZ
  Basis Set: (CC-PVDZ AUX)
    Blend: CC-PVDZ-JKFIT
  @DF-UKS Final Energy:  -497.94203956302306
    Total Energy =                       -497.9420395630230587
  Basis Set: CC-PVDZ
    Blend: CC-PVDZ
  Basis Set: (CC-PVDZ AUX)
    Blend: CC-PVDZ-JKFIT
  Basis Set: CC-PVDZ
    Blend: CC-PVDZ
  @DF-UKS Final Energy:  -498.02072283124704
    Total Energy =                       -498.0207228312470420
  @DF-UKS Final Energy:  -498.04600138827288
    Total Energy =                       -498.0460013882728845
  @DF-UKS Final Energy:  -498.05934034767290
    Total Energy =                       -498.0593403476729577
  @DF-UKS Final Energy:  -498.06346163259036
    Total Energy =                       -498.0634616325904176
  @DF-UKS Final Energy:  -498.06535942785308
    Total Energy =                       -498.0653594278530818
  @DF-UKS Final Energy:  -498.06581529407941
    Total Energy =                       -498.0658152940794139
  @DF-UKS Final Energy:  -498.06595440988372
    Total Energy =                       -498.0659544098837159
  Basis Set: (CC-PVDZ AUX)
    Blend: CC-PVDZ-JKFIT
  Basis Set: CC-PVDZ
    Blend: CC-PVDZ
  Basis Set: (CC-PVDZ AUX)
    Blend: CC-PVDZ-JKFIT
  @DF-UKS Final Energy:  -498.06598127363480
    Total Energy =                       -498.0659812736348044
  Basis Set: CC-PVDZ
    Blend: CC-PVDZ
  Basis Set: (CC-PVDZ AUX)
    Blend: CC-PVDZ-JKFIT
  Charge       = 0
  Multiplicity = 4
  Basis Set: CC-PVDZ
    Blend: CC-PVDZ
  Basis Set: (CC-PVDZ AUX)
    Blend: CC-PVDZ-JKFIT

    Orbital Energies [Eh]
    ---------------------

    Alpha Occupied:

       1A1  -101.601358     2A1   -10.296278     3A1    -9.516695
       4A1    -7.281805     1B2    -7.269614     1B1    -7.269614
       5A1    -0.912286     6A1    -0.622925     7A1    -0.418579
       2B1    -0.402970     2B2    -0.402970     3B1    -0.236081
       3B2    -0.236081

    Alpha Virtual:

       8A1     0.043042     9A1     0.395382     4B1     0.451889
       4B2     0.451889    10A1     0.477011    11A1     0.505486
       5B2     0.532349     5B1     0.532349     6B1     0.649042
       6B2     0.649042     1A2     0.680456    12A1     0.680457
      13A1     0.836991    14A1     1.103622     2A2     1.106263
      15A1     1.106264     7B1     1.339435     7B2     1.339435
      16A1     1.717741

    Beta Occupied:

       1A1  -101.598176     2A1   -10.251975     3A1    -9.513597
       4A1    -7.276000     1B2    -7.265513     1B1    -7.265513
       5A1    -0.882598     6A1    -0.530860     2B1    -0.368470
       2B2    -0.368470

    Beta Virtual:

       7A1    -0.212333     3B1    -0.042437     3B2    -0.042437
       8A1     0.098401     9A1     0.428522    10A1     0.507900
       4B2     0.514193     4B1     0.514193     5B2     0.569198
       5B1     0.569198    11A1     0.585103     6B1     0.687383
       6B2     0.687383     1A2     0.696518    12A1     0.696519
      13A1     0.875650    14A1     1.138486    15A1     1.234860
       2A2     1.234861     7B1     1.434015     7B2     1.434015
      16A1     1.805124

    Final Occupation by Irrep:
             A1    A2    B1    B2
    DOCC [     6,    0,    2,    2 ]
    SOCC [     1,    0,    1,    1 ]
    NA   [     7,    0,    3,    3 ]
    NB   [     6,    0,    2,    2 ]

  @DF-UKS Final Energy:  -498.06598362086442

   => Energetics <=

    Nuclear Repulsion Energy =             31.9436945319981795
    One-Electron Energy =                -748.9665691511660270
    Two-Electron Energy =                 246.0146777464926799
    DFT Exchange-Correlation Energy =     -27.0577867481892476
    Empirical Dispersion Energy =           0.0000000000000000
    VV10 Nonlocal Energy =                  0.0000000000000000
    Total Energy =                       -498.0659836208644151

  UHF NO Occupations:
  HONO-2 :    3 B1 1.0000000
  HONO-1 :    7 A1 1.0000000
  HONO-0 :    3 B2 1.0000000
  LUNO+0 :    8 A1 0.0005720
  LUNO+1 :    4 B2 0.0005208
  LUNO+2 :    4 B1 0.0005208
  LUNO+3 :    9 A1 0.0000678

Computation Completed

Properties will be evaluated at   0.000000,   0.000000,   0.000000 [a0]

Properties computed using the SCF density matrix

 Multipole Moments:

 ------------------------------------------------------------------------------------
     Multipole            Electronic (a.u.)      Nuclear  (a.u.)        Total (a.u.)
 ------------------------------------------------------------------------------------

 L = 1.  Multiply by 2.5417464519 to convert [e a0] to [Debye]
 Dipole X            :          0.0000000            0.0000000            0.0000000
 Dipole Y            :          0.0000000            0.0000000            0.0000000
 Dipole Z            :         -0.4726738            0.3951974           -0.0774764
 Magnitude           :                                                    0.0774764

 ------------------------------------------------------------------------------------

*** tstop() called on Joses-MacBook-Pro-2.local at Wed Jul 16 19:05:56 2025
Module time:
	user time   =       4.42 seconds =       0.07 minutes
	system time =       2.85 seconds =       0.05 minutes
	total time  =          1 seconds =       0.02 minutes
Total time:
	user time   =      54.57 seconds =       0.91 minutes
	system time =      56.92 seconds =       0.95 minutes
	total time  =         11 seconds =       0.18 minutes

*** tstart() called on Joses-MacBook-Pro-2.local
*** at Wed Jul 16 19:05:56 2025

         ------------------------------------------------------------
                                   SCF GRAD
                          Rob Parrish, Justin Turney,
                       Andy Simmonett, and Alex Sokolov
         ------------------------------------------------------------

  ==> Geometry <==

    Molecular point group: c2v
    Full point group: C_inf_v

    Geometry (in Angstrom), charge = 0, multiplicity = 4:

       Center              X                  Y                   Z               Mass
    ------------   -----------------  -----------------  -----------------  -----------------
         C            0.000000000000     0.000000000000     1.258020134787    12.000000000000
         CL           0.000000000000     0.000000000000    -0.431705373772    34.968852682000

  Nuclear repulsion =   31.943694531998180

  ==> Basis Set <==

  Basis Set: CC-PVDZ
    Blend: CC-PVDZ
    Number of shells: 14
    Number of basis functions: 32
    Number of Cartesian functions: 34
    Spherical Harmonics?: true
    Max angular momentum: 2

  ==> DFJKGrad: Density-Fitted SCF Gradients <==

    Gradient:                    1
    J tasked:                  Yes
    K tasked:                  Yes
    wK tasked:                  No
    OpenMP threads:              1
    Integrals threads:           1
    Memory [MiB]:              375
    Schwarz Cutoff:          1E-12
    Fitting Condition:       1E-10

   => Auxiliary Basis Set <=

  Basis Set: (CC-PVDZ AUX)
    Blend: CC-PVDZ-JKFIT
    Number of shells: 60
    Number of basis functions: 182
    Number of Cartesian functions: 211
    Spherical Harmonics?: true
    Max angular momentum: 3

  ==> DFT Potential <==

   => LibXC <=

    Version 6.2.2
    S. Lehtola, C. Steigemann, M. J.T. Oliveira, and M. A.L. Marques.,  SoftwareX 7, 1â€“5 (2018) (10.1016/j.softx.2017.11.002)

   => Composite Functional: B3LYP <=

    B3LYP Hyb-GGA Exchange-Correlation Functional

    P. J. Stephens, F. J. Devlin, C. F. Chabalowski, and M. J. Frisch.,  J. Phys. Chem. 98, 11623 (1994) (10.1021/j100096a001)

    Deriv               =              1
    GGA                 =           TRUE
    Meta                =          FALSE

    Exchange Hybrid     =           TRUE
    MP2 Hybrid          =          FALSE

   => Exchange Functionals <=

    0.0800   Slater exchange
    0.7200         Becke 88

   => Exact (HF) Exchange <=

    0.2000               HF

   => Correlation Functionals <=

    0.1900   Vosko, Wilk & Nusair (VWN5_RPA)
    0.8100   Lee, Yang & Parr

   => LibXC Density Thresholds  <==

    XC_HYB_GGA_XC_B3LYP:  1.00E-15

   => Molecular Quadrature <=

    Radial Scheme          =       TREUTLER
    Pruning Scheme         =           NONE
    Nuclear Scheme         =       TREUTLER

    Blocking Scheme        =         OCTREE
    BS radius alpha        =              1
    Pruning alpha          =              1
    Radial Points          =             75
    Spherical Points       =            302
    Total Points           =          41114
    Total Blocks           =            365
    Max Points             =            256
    Max Functions          =             32
    Weights Tolerance      =       1.00E-15

  -Total Gradient:
     Atom            X                  Y                   Z
    ------   -----------------  -----------------  -----------------
       1       -0.000000000000     0.000000000000    -0.000223106988
       2       -0.000000000000     0.000000000000     0.000211941087

*** tstop() called on Joses-MacBook-Pro-2.local at Wed Jul 16 19:05:56 2025
Module time:
	user time   =       0.95 seconds =       0.02 minutes
	system time =       1.92 seconds =       0.03 minutes
	total time  =          0 seconds =       0.00 minutes
Total time:
	user time   =      55.52 seconds =       0.93 minutes
	system time =      58.84 seconds =       0.98 minutes
	total time  =         11 seconds =       0.18 minutes

    			-----------------------------------------

    			 OPTKING 3.0: for geometry optimizations

    			     By R.A. King, Bethel University

    			        with contributions from

    			    A.V. Copan, J. Cayton, A. Heide

    			-----------------------------------------

	                            ===> Fragment 1 <==

	 Z (Atomic Numbers)          Masses                          Geom
	       6.000000            12.000000          0.00000000  0.00000000  2.37731352
	      17.000000            34.968853          0.00000000  0.00000000 -0.81580492

	 - Coordinate -           - BOHR/RAD -       - ANG/DEG -
	 R(1,2)           =         3.193118           1.689726

	        --- Internal Coordinate Step in ANG or DEG, aJ/ANG or AJ/DEG ---
	-------------------------------------------------------------------------------
	           Coordinate      Previous         Force          Change          New
	           ----------      --------        ------          ------        ------
	               R(1,2)       1.68973        0.00179        0.00043       1.69015
	-------------------------------------------------------------------------------

	                                 ==> Convergence Check <==

	Measures of convergence in internal coordinates in au.

	Criteria marked as inactive (o), active & met (*), and active & unmet ( ).

	----------------------------------------------------------------------------------------------
	   Step    Total Energy     Delta E     Max Force     RMS Force      Max Disp      RMS Disp
	----------------------------------------------------------------------------------------------
	  Convergence Criteria     1.00e-06 *    3.00e-04 *             o    1.20e-03 *             o
	----------------------------------------------------------------------------------------------
	    11    -498.06598362   -2.35e-06      2.18e-04 *    2.18e-04 o    8.09e-04 *    8.09e-04 o  ~
	----------------------------------------------------------------------------------------------

Next Geometry in Ang
	Fragment 1 (Ang)

	    C   0.0000000000   0.0000000000   1.2582341725
	   Cl   0.0000000000   0.0000000000  -0.4319194115

    Final optimized geometry and variables:
    Molecular point group: c2v
    Full point group: C_inf_v

    Geometry (in Angstrom), charge = 0, multiplicity = 4:

    C            0.000000000000     0.000000000000     1.258020134787
    CL           0.000000000000     0.000000000000    -0.431705373772

    Psi4 stopped on: Wednesday, 16 July 2025 07:05PM
    Psi4 wall time for execution: 0:00:11.44

*** Psi4 exiting successfully. Buy a developer a beer!
