                               Psi4 1.9.1 release

  ==> Input File <==

--------------------------------------------------------------------------
molecule {
0 4
B   0.00000        0.60000        0.00000
S   0.00000       -0.60000        0.00000
}

set {
basis              cc-pvdz
reference          uks
maxiter            500
geom_maxiter       500
DAMPING_PERCENTAGE 1
guess              SAP
}

optimize('b3lyp')
--------------------------------------------------------------------------

    Molecular point group: c2v
  Charge       = 0
  Multiplicity = 4
  Basis Set: CC-PVDZ
    Blend: CC-PVDZ
  Basis Set: (CC-PVDZ AUX)
    Blend: CC-PVDZ-JKFIT
  @DF-UKS Final Energy:  -422.40172738864891
    Total Energy =                       -422.4017273886488510
 Dipole X            :          0.0000000            0.0000000            0.0000000
 Dipole Y            :          0.0000000            0.0000000            0.0000000
 Dipole Z            :          0.3916467           -0.8593730           -0.4677262
 Magnitude           :                                                    0.4677262
    Molecular point group: c2v
  Basis Set: CC-PVDZ
    Blend: CC-PVDZ
  Basis Set: (CC-PVDZ AUX)
    Blend: CC-PVDZ-JKFIT
  Basis Set: CC-PVDZ
    Blend: CC-PVDZ
  Basis Set: (CC-PVDZ AUX)
    Blend: CC-PVDZ-JKFIT
  @DF-UKS Final Energy:  -422.66409020209636
    Total Energy =                       -422.6640902020963608
  Basis Set: CC-PVDZ
    Blend: CC-PVDZ
  Basis Set: (CC-PVDZ AUX)
    Blend: CC-PVDZ-JKFIT
  Basis Set: CC-PVDZ
    Blend: CC-PVDZ
  @DF-UKS Final Energy:  -422.78147359865977
    Total Energy =                       -422.7814735986597725
  @DF-UKS Final Energy:  -422.83165341484977
    Total Energy =                       -422.8316534148497112
  @DF-UKS Final Energy:  -422.84645909017189
    Total Energy =                       -422.8464590901719475
  @DF-UKS Final Energy:  -422.85324082960568
    Total Energy =                       -422.8532408296056815
  @DF-UKS Final Energy:  -422.85501091579835
    Total Energy =                       -422.8550109157983456
  @DF-UKS Final Energy:  -422.85566068544637
    Total Energy =                       -422.8556606854463666
  @DF-UKS Final Energy:  -422.85577062475585
    Total Energy =                       -422.8557706247559054
  Basis Set: (CC-PVDZ AUX)
    Blend: CC-PVDZ-JKFIT
  Basis Set: CC-PVDZ
    Blend: CC-PVDZ
  Basis Set: (CC-PVDZ AUX)
    Blend: CC-PVDZ-JKFIT
  @DF-UKS Final Energy:  -422.85579278320779
    Total Energy =                       -422.8557927832077326
  Basis Set: CC-PVDZ
    Blend: CC-PVDZ
  Basis Set: (CC-PVDZ AUX)
    Blend: CC-PVDZ-JKFIT
  Charge       = 0
  Multiplicity = 4
  Basis Set: CC-PVDZ
    Blend: CC-PVDZ
  Basis Set: (CC-PVDZ AUX)
    Blend: CC-PVDZ-JKFIT

    Orbital Energies [Eh]
    ---------------------

    Alpha Occupied:

       1A1   -88.936762     2A1    -7.996453     3A1    -6.838611
       1B1    -5.966601     4A1    -5.956403     1B2    -5.950497
       5A1    -0.761570     6A1    -0.455422     2B1    -0.360711
       2B2    -0.315658     7A1    -0.302097     3B1    -0.168968

    Alpha Virtual:

       3B2    -0.076182     8A1     0.084807     9A1     0.220196
       4B1     0.270935     4B2     0.294272    10A1     0.323359
      11A1     0.435320     5B1     0.435842     5B2     0.462750
       6B1     0.507857     1A2     0.513347    12A1     0.514691
       6B2     0.534967    13A1     0.680811     2A2     0.709260
      14A1     0.714371    15A1     0.935063     7B1     0.956375
       7B2     0.979039    16A1     1.184728

    Beta Occupied:

       1A1   -88.930221     2A1    -7.989710     3A1    -6.815964
       4A1    -5.949813     1B1    -5.947028     1B2    -5.946874
       5A1    -0.708270     6A1    -0.401990     2B2    -0.299404

    Beta Virtual:

       2B1    -0.207959     7A1    -0.132078     3B2    -0.037460
       3B1    -0.001018     8A1     0.123491     9A1     0.244762
       4B2     0.310431     4B1     0.335070    10A1     0.393623
      11A1     0.465687     5B2     0.484562     5B1     0.503146
       6B2     0.553692     1A2     0.569096    12A1     0.573154
       6B1     0.574218    13A1     0.709984     2A2     0.780265
      14A1     0.782564    15A1     0.983191     7B2     1.017107
       7B1     1.042656    16A1     1.233199

    Final Occupation by Irrep:
             A1    A2    B1    B2
    DOCC [     6,    0,    1,    2 ]
    SOCC [     1,    0,    2,    0 ]
    NA   [     7,    0,    3,    2 ]
    NB   [     6,    0,    1,    2 ]

  @DF-UKS Final Energy:  -422.85579510174671

   => Energetics <=

    Nuclear Repulsion Energy =             23.2034762224380842
    One-Electron Energy =                -628.0945869402589778
    Two-Electron Energy =                 205.9259870267913186
    DFT Exchange-Correlation Energy =     -23.8906714107172000
    Empirical Dispersion Energy =           0.0000000000000000
    VV10 Nonlocal Energy =                  0.0000000000000000
    Total Energy =                       -422.8557951017467644

  UHF NO Occupations:
  HONO-2 :    7 A1 1.0000000
  HONO-1 :    2 B1 1.0000000
  HONO-0 :    3 B1 1.0000000
  LUNO+0 :    8 A1 0.0010263
  LUNO+1 :    3 B2 0.0005980
  LUNO+2 :    9 A1 0.0005543
  LUNO+3 :   10 A1 0.0000001

Computation Completed

Properties will be evaluated at   0.000000,   0.000000,   0.000000 [a0]

Properties computed using the SCF density matrix

 Multipole Moments:

 ------------------------------------------------------------------------------------
     Multipole            Electronic (a.u.)      Nuclear  (a.u.)        Total (a.u.)
 ------------------------------------------------------------------------------------

 L = 1.  Multiply by 2.5417464519 to convert [e a0] to [Debye]
 Dipole X            :          0.0000000            0.0000000            0.0000000
 Dipole Y            :          0.0000000            0.0000000            0.0000000
 Dipole Z            :          1.1321685           -1.3065875           -0.1744191
 Magnitude           :                                                    0.1744191

 ------------------------------------------------------------------------------------

*** tstop() called on Joses-MacBook-Pro-2.local at Wed Jul 16 18:57:00 2025
Module time:
	user time   =       3.16 seconds =       0.05 minutes
	system time =       3.74 seconds =       0.06 minutes
	total time  =          0 seconds =       0.00 minutes
Total time:
	user time   =      63.44 seconds =       1.06 minutes
	system time =      61.21 seconds =       1.02 minutes
	total time  =         14 seconds =       0.23 minutes

*** tstart() called on Joses-MacBook-Pro-2.local
*** at Wed Jul 16 18:57:00 2025

         ------------------------------------------------------------
                                   SCF GRAD
                          Rob Parrish, Justin Turney,
                       Andy Simmonett, and Alex Sokolov
         ------------------------------------------------------------

  ==> Geometry <==

    Molecular point group: c2v
    Full point group: C_inf_v

    Geometry (in Angstrom), charge = 0, multiplicity = 4:

       Center              X                  Y                   Z               Mass
    ------------   -----------------  -----------------  -----------------  -----------------
         B            0.000000000000     0.000000000000     1.357152081644    11.009305360000
         S            0.000000000000     0.000000000000    -0.467323546394    31.972071174400

  Nuclear repulsion =   23.203476222438084

  ==> Basis Set <==

  Basis Set: CC-PVDZ
    Blend: CC-PVDZ
    Number of shells: 14
    Number of basis functions: 32
    Number of Cartesian functions: 34
    Spherical Harmonics?: true
    Max angular momentum: 2

  ==> DFJKGrad: Density-Fitted SCF Gradients <==

    Gradient:                    1
    J tasked:                  Yes
    K tasked:                  Yes
    wK tasked:                  No
    OpenMP threads:              1
    Integrals threads:           1
    Memory [MiB]:              375
    Schwarz Cutoff:          1E-12
    Fitting Condition:       1E-10

   => Auxiliary Basis Set <=

  Basis Set: (CC-PVDZ AUX)
    Blend: CC-PVDZ-JKFIT
    Number of shells: 60
    Number of basis functions: 182
    Number of Cartesian functions: 211
    Spherical Harmonics?: true
    Max angular momentum: 3

  ==> DFT Potential <==

   => LibXC <=

    Version 6.2.2
    S. Lehtola, C. Steigemann, M. J.T. Oliveira, and M. A.L. Marques.,  SoftwareX 7, 1â€“5 (2018) (10.1016/j.softx.2017.11.002)

   => Composite Functional: B3LYP <=

    B3LYP Hyb-GGA Exchange-Correlation Functional

    P. J. Stephens, F. J. Devlin, C. F. Chabalowski, and M. J. Frisch.,  J. Phys. Chem. 98, 11623 (1994) (10.1021/j100096a001)

    Deriv               =              1
    GGA                 =           TRUE
    Meta                =          FALSE

    Exchange Hybrid     =           TRUE
    MP2 Hybrid          =          FALSE

   => Exchange Functionals <=

    0.0800   Slater exchange
    0.7200         Becke 88

   => Exact (HF) Exchange <=

    0.2000               HF

   => Correlation Functionals <=

    0.1900   Vosko, Wilk & Nusair (VWN5_RPA)
    0.8100   Lee, Yang & Parr

   => LibXC Density Thresholds  <==

    XC_HYB_GGA_XC_B3LYP:  1.00E-15

   => Molecular Quadrature <=

    Radial Scheme          =       TREUTLER
    Pruning Scheme         =           NONE
    Nuclear Scheme         =       TREUTLER

    Blocking Scheme        =         OCTREE
    BS radius alpha        =              1
    Pruning alpha          =              1
    Radial Points          =             75
    Spherical Points       =            302
    Total Points           =          41992
    Total Blocks           =            382
    Max Points             =            256
    Max Functions          =             32
    Weights Tolerance      =       1.00E-15

  -Total Gradient:
     Atom            X                  Y                   Z
    ------   -----------------  -----------------  -----------------
       1        0.000000000000    -0.000000000000    -0.000186248131
       2        0.000000000000     0.000000000000     0.000181141551

*** tstop() called on Joses-MacBook-Pro-2.local at Wed Jul 16 18:57:01 2025
Module time:
	user time   =       0.73 seconds =       0.01 minutes
	system time =       1.71 seconds =       0.03 minutes
	total time  =          1 seconds =       0.02 minutes
Total time:
	user time   =      64.17 seconds =       1.07 minutes
	system time =      62.93 seconds =       1.05 minutes
	total time  =         15 seconds =       0.25 minutes

    			-----------------------------------------

    			 OPTKING 3.0: for geometry optimizations

    			     By R.A. King, Bethel University

    			        with contributions from

    			    A.V. Copan, J. Cayton, A. Heide

    			-----------------------------------------

	                            ===> Fragment 1 <==

	 Z (Atomic Numbers)          Masses                          Geom
	       5.000000            11.009305          0.00000000  0.00000000  2.56464574
	      16.000000            31.972071          0.00000000  0.00000000 -0.88311351

	 - Coordinate -           - BOHR/RAD -       - ANG/DEG -
	 R(1,2)           =         3.447759           1.824476

	        --- Internal Coordinate Step in ANG or DEG, aJ/ANG or AJ/DEG ---
	-------------------------------------------------------------------------------
	           Coordinate      Previous         Force          Change          New
	           ----------      --------        ------          ------        ------
	               R(1,2)       1.82448        0.00151        0.00044       1.82492
	-------------------------------------------------------------------------------

	                                 ==> Convergence Check <==

	Measures of convergence in internal coordinates in au.

	Criteria marked as inactive (o), active & met (*), and active & unmet ( ).

	----------------------------------------------------------------------------------------------
	   Step    Total Energy     Delta E     Max Force     RMS Force      Max Disp      RMS Disp
	----------------------------------------------------------------------------------------------
	  Convergence Criteria     1.00e-06 *    3.00e-04 *             o    1.20e-03 *             o
	----------------------------------------------------------------------------------------------
	    11    -422.85579510   -2.32e-06      1.84e-04 *    1.84e-04 o    8.39e-04 *    8.39e-04 o  ~
	----------------------------------------------------------------------------------------------

Next Geometry in Ang
	Fragment 1 (Ang)

	    B   0.0000000000   0.0000000000   1.3573740253
	    S   0.0000000000   0.0000000000  -0.4675454901

    Final optimized geometry and variables:
    Molecular point group: c2v
    Full point group: C_inf_v

    Geometry (in Angstrom), charge = 0, multiplicity = 4:

    B            0.000000000000     0.000000000000     1.357152081644
    S            0.000000000000     0.000000000000    -0.467323546394

    Psi4 stopped on: Wednesday, 16 July 2025 06:57PM
    Psi4 wall time for execution: 0:00:14.92

*** Psi4 exiting successfully. Buy a developer a beer!
