                               Psi4 1.9.1 release

  ==> Input File <==

--------------------------------------------------------------------------
molecule {
0 4
O   0.00000        0.60000        0.00000
Al   0.00000       -0.60000        0.00000
}

set {
basis              cc-pvdz
reference          uks
maxiter            500
geom_maxiter       500
DAMPING_PERCENTAGE 1
guess              SAP
}

optimize('b3lyp')
--------------------------------------------------------------------------

    Molecular point group: c2v
  Charge       = 0
  Multiplicity = 4
  Basis Set: CC-PVDZ
    Blend: CC-PVDZ
  Basis Set: (CC-PVDZ AUX)
    Blend: CC-PVDZ-JKFIT
  @DF-UKS Final Energy:  -317.09779450626098
    Total Energy =                       -317.0977945062609820
 Dipole X            :          0.0000000            0.0000000            0.0000000
 Dipole Y            :          0.0000000            0.0000000            0.0000000
 Dipole Z            :         -0.3041649            0.4178188            0.1136539
 Magnitude           :                                                    0.1136539
    Molecular point group: c2v
  Basis Set: CC-PVDZ
    Blend: CC-PVDZ
  Basis Set: (CC-PVDZ AUX)
    Blend: CC-PVDZ-JKFIT
  Basis Set: CC-PVDZ
    Blend: CC-PVDZ
  Basis Set: (CC-PVDZ AUX)
    Blend: CC-PVDZ-JKFIT
  @DF-UKS Final Energy:  -317.28379558935234
    Total Energy =                       -317.2837955893523372
  Basis Set: CC-PVDZ
    Blend: CC-PVDZ
  Basis Set: (CC-PVDZ AUX)
    Blend: CC-PVDZ-JKFIT
  Basis Set: CC-PVDZ
    Blend: CC-PVDZ
  @DF-UKS Final Energy:  -317.37525595128153
    Total Energy =                       -317.3752559512815310
  @DF-UKS Final Energy:  -317.40696383537329
    Total Energy =                       -317.4069638353732898
  @DF-UKS Final Energy:  -317.42434831118129
    Total Energy =                       -317.4243483111812907
  @DF-UKS Final Energy:  -317.43149813534598
    Total Energy =                       -317.4314981353460325
  @DF-UKS Final Energy:  -317.43311266976400
    Total Energy =                       -317.4331126697640002
  @DF-UKS Final Energy:  -317.43352516819562
    Total Energy =                       -317.4335251681956152
  @DF-UKS Final Energy:  -317.43365508788139
    Total Energy =                       -317.4336550878813910
  Basis Set: (CC-PVDZ AUX)
    Blend: CC-PVDZ-JKFIT
  Basis Set: CC-PVDZ
    Blend: CC-PVDZ
  Basis Set: (CC-PVDZ AUX)
    Blend: CC-PVDZ-JKFIT
  @DF-UKS Final Energy:  -317.43368042400760
    Total Energy =                       -317.4336804240076049
  Basis Set: CC-PVDZ
    Blend: CC-PVDZ
  Basis Set: (CC-PVDZ AUX)
    Blend: CC-PVDZ-JKFIT
  Charge       = 0
  Multiplicity = 4
  Basis Set: CC-PVDZ
    Blend: CC-PVDZ
  Basis Set: (CC-PVDZ AUX)
    Blend: CC-PVDZ-JKFIT

    Orbital Energies [Eh]
    ---------------------

    Alpha Occupied:

       1A1   -56.150275     2A1   -19.185071     3A1    -4.226752
       4A1    -2.780971     1B1    -2.780862     1B2    -2.777114
       5A1    -0.961777     6A1    -0.472681     2B2    -0.346658
       2B1    -0.342437     7A1    -0.315968     3B2    -0.139796

    Alpha Virtual:

       3B1    -0.082715     8A1     0.004387     9A1     0.144788
       4B2     0.185159     4B1     0.191779     1A2     0.223607
      10A1     0.227883    11A1     0.235672     5B2     0.285962
       5B1     0.291144    12A1     0.465362    13A1     0.964720
       6B1     1.010830     6B2     1.011288    14A1     1.728466
       7B1     2.581404     7B2     2.582995     2A2     2.589040
      15A1     2.589099    16A1     2.721736

    Beta Occupied:

       1A1   -56.143007     2A1   -19.158471     3A1    -4.216012
       1B1    -2.774351     4A1    -2.771081     1B2    -2.763782
       5A1    -0.882870     2B1    -0.314132     2B2    -0.304380

    Beta Virtual:

       6A1    -0.262553     7A1    -0.145239     3B1    -0.037596
       3B2    -0.013662     8A1     0.044903     9A1     0.181719
       4B1     0.213647     4B2     0.233361    10A1     0.281444
       1A2     0.288871    11A1     0.295658     5B1     0.337622
       5B2     0.361384    12A1     0.518099     6B1     1.029275
       6B2     1.037642    13A1     1.057698    14A1     1.773368
      15A1     2.610739     2A2     2.610803     7B1     2.659909
       7B2     2.667393    16A1     2.822847

    Final Occupation by Irrep:
             A1    A2    B1    B2
    DOCC [     5,    0,    2,    2 ]
    SOCC [     2,    0,    0,    1 ]
    NA   [     7,    0,    2,    3 ]
    NB   [     5,    0,    2,    2 ]

  @DF-UKS Final Energy:  -317.43368264186068

   => Energetics <=

    Nuclear Repulsion Energy =             31.4133721819883185
    One-Electron Energy =                -502.2145174997826302
    Two-Electron Energy =                 175.2871972445358040
    DFT Exchange-Correlation Energy =     -21.9197345686022338
    Empirical Dispersion Energy =           0.0000000000000000
    VV10 Nonlocal Energy =                  0.0000000000000000
    Total Energy =                       -317.4336826418606847

  UHF NO Occupations:
  HONO-2 :    6 A1 1.0000000
  HONO-1 :    3 B2 1.0000000
  HONO-0 :    7 A1 1.0000000
  LUNO+0 :    4 B2 0.0006009
  LUNO+1 :    8 A1 0.0004445
  LUNO+2 :    3 B1 0.0002761
  LUNO+3 :    4 B1 0.0000009

Computation Completed

Properties will be evaluated at   0.000000,   0.000000,   0.000000 [a0]

Properties computed using the SCF density matrix

 Multipole Moments:

 ------------------------------------------------------------------------------------
     Multipole            Electronic (a.u.)      Nuclear  (a.u.)        Total (a.u.)
 ------------------------------------------------------------------------------------

 L = 1.  Multiply by 2.5417464519 to convert [e a0] to [Debye]
 Dipole X            :          0.0000000            0.0000000            0.0000000
 Dipole Y            :          0.0000000            0.0000000            0.0000000
 Dipole Z            :         -1.3715661            0.6099955           -0.7615706
 Magnitude           :                                                    0.7615706

 ------------------------------------------------------------------------------------

*** tstop() called on Joses-MacBook-Pro-2.local at Wed Jul 16 19:20:49 2025
Module time:
	user time   =       4.24 seconds =       0.07 minutes
	system time =       2.43 seconds =       0.04 minutes
	total time  =          1 seconds =       0.02 minutes
Total time:
	user time   =      50.42 seconds =       0.84 minutes
	system time =      62.26 seconds =       1.04 minutes
	total time  =         11 seconds =       0.18 minutes

*** tstart() called on Joses-MacBook-Pro-2.local
*** at Wed Jul 16 19:20:49 2025

         ------------------------------------------------------------
                                   SCF GRAD
                          Rob Parrish, Justin Turney,
                       Andy Simmonett, and Alex Sokolov
         ------------------------------------------------------------

  ==> Geometry <==

    Molecular point group: c2v
    Full point group: C_inf_v

    Geometry (in Angstrom), charge = 0, multiplicity = 4:

       Center              X                  Y                   Z               Mass
    ------------   -----------------  -----------------  -----------------  -----------------
         O            0.000000000000     0.000000000000     1.099907218317    15.994914619570
         AL           0.000000000000     0.000000000000    -0.652035540036    26.981538530000

  Nuclear repulsion =   31.413372181988318

  ==> Basis Set <==

  Basis Set: CC-PVDZ
    Blend: CC-PVDZ
    Number of shells: 14
    Number of basis functions: 32
    Number of Cartesian functions: 34
    Spherical Harmonics?: true
    Max angular momentum: 2

  ==> DFJKGrad: Density-Fitted SCF Gradients <==

    Gradient:                    1
    J tasked:                  Yes
    K tasked:                  Yes
    wK tasked:                  No
    OpenMP threads:              1
    Integrals threads:           1
    Memory [MiB]:              375
    Schwarz Cutoff:          1E-12
    Fitting Condition:       1E-10

   => Auxiliary Basis Set <=

  Basis Set: (CC-PVDZ AUX)
    Blend: CC-PVDZ-JKFIT
    Number of shells: 60
    Number of basis functions: 182
    Number of Cartesian functions: 211
    Spherical Harmonics?: true
    Max angular momentum: 3

  ==> DFT Potential <==

   => LibXC <=

    Version 6.2.2
    S. Lehtola, C. Steigemann, M. J.T. Oliveira, and M. A.L. Marques.,  SoftwareX 7, 1â€“5 (2018) (10.1016/j.softx.2017.11.002)

   => Composite Functional: B3LYP <=

    B3LYP Hyb-GGA Exchange-Correlation Functional

    P. J. Stephens, F. J. Devlin, C. F. Chabalowski, and M. J. Frisch.,  J. Phys. Chem. 98, 11623 (1994) (10.1021/j100096a001)

    Deriv               =              1
    GGA                 =           TRUE
    Meta                =          FALSE

    Exchange Hybrid     =           TRUE
    MP2 Hybrid          =          FALSE

   => Exchange Functionals <=

    0.0800   Slater exchange
    0.7200         Becke 88

   => Exact (HF) Exchange <=

    0.2000               HF

   => Correlation Functionals <=

    0.1900   Vosko, Wilk & Nusair (VWN5_RPA)
    0.8100   Lee, Yang & Parr

   => LibXC Density Thresholds  <==

    XC_HYB_GGA_XC_B3LYP:  1.00E-15

   => Molecular Quadrature <=

    Radial Scheme          =       TREUTLER
    Pruning Scheme         =           NONE
    Nuclear Scheme         =       TREUTLER

    Blocking Scheme        =         OCTREE
    BS radius alpha        =              1
    Pruning alpha          =              1
    Radial Points          =             75
    Spherical Points       =            302
    Total Points           =          43435
    Total Blocks           =            404
    Max Points             =            254
    Max Functions          =             32
    Weights Tolerance      =       1.00E-15

  -Total Gradient:
     Atom            X                  Y                   Z
    ------   -----------------  -----------------  -----------------
       1       -0.000000000000    -0.000000000000    -0.000199354286
       2        0.000000000000     0.000000000000     0.000128421231

*** tstop() called on Joses-MacBook-Pro-2.local at Wed Jul 16 19:20:49 2025
Module time:
	user time   =       0.64 seconds =       0.01 minutes
	system time =       1.75 seconds =       0.03 minutes
	total time  =          0 seconds =       0.00 minutes
Total time:
	user time   =      51.06 seconds =       0.85 minutes
	system time =      64.01 seconds =       1.07 minutes
	total time  =         11 seconds =       0.18 minutes

    			-----------------------------------------

    			 OPTKING 3.0: for geometry optimizations

    			     By R.A. King, Bethel University

    			        with contributions from

    			    A.V. Copan, J. Cayton, A. Heide

    			-----------------------------------------

	                            ===> Fragment 1 <==

	 Z (Atomic Numbers)          Masses                          Geom
	       8.000000            15.994915          0.00000000  0.00000000  2.07852341
	      13.000000            26.981539          0.00000000  0.00000000 -1.23216859

	 - Coordinate -           - BOHR/RAD -       - ANG/DEG -
	 R(1,2)           =         3.310692           1.751943

	        --- Internal Coordinate Step in ANG or DEG, aJ/ANG or AJ/DEG ---
	-------------------------------------------------------------------------------
	           Coordinate      Previous         Force          Change          New
	           ----------      --------        ------          ------        ------
	               R(1,2)       1.75194        0.00135        0.00037       1.75232
	-------------------------------------------------------------------------------

	                                 ==> Convergence Check <==

	Measures of convergence in internal coordinates in au.

	Criteria marked as inactive (o), active & met (*), and active & unmet ( ).

	----------------------------------------------------------------------------------------------
	   Step    Total Energy     Delta E     Max Force     RMS Force      Max Disp      RMS Disp
	----------------------------------------------------------------------------------------------
	  Convergence Criteria     1.00e-06 *    3.00e-04 *             o    1.20e-03 *             o
	----------------------------------------------------------------------------------------------
	    11    -317.43368264   -2.22e-06      1.64e-04 *    1.64e-04 o    7.04e-04 *    7.04e-04 o  ~
	----------------------------------------------------------------------------------------------

Next Geometry in Ang
	Fragment 1 (Ang)

	    O   0.0000000000   0.0000000000   1.1000934735
	   Al   0.0000000000   0.0000000000  -0.6522217952

    Final optimized geometry and variables:
    Molecular point group: c2v
    Full point group: C_inf_v

    Geometry (in Angstrom), charge = 0, multiplicity = 4:

    O            0.000000000000     0.000000000000     1.099907218317
    AL           0.000000000000     0.000000000000    -0.652035540036

    Psi4 stopped on: Wednesday, 16 July 2025 07:20PM
    Psi4 wall time for execution: 0:00:12.03

*** Psi4 exiting successfully. Buy a developer a beer!
