                               Psi4 1.9.1 release

  ==> Input File <==

--------------------------------------------------------------------------
molecule {
0 4
N   0.00000        0.60000        0.00000
Mg   0.00000       -0.60000        0.00000
}

set {
basis              cc-pvdz
reference          uks
maxiter            500
geom_maxiter       500
DAMPING_PERCENTAGE 1
guess              SAP
}

optimize('b3lyp')
--------------------------------------------------------------------------

    Molecular point group: c2v
  Charge       = 0
  Multiplicity = 4
  Basis Set: CC-PVDZ
    Blend: CC-PVDZ
  Basis Set: (CC-PVDZ AUX)
    Blend: CC-PVDZ-JKFIT + DEF2-UNIVERSAL-JKFIT
  @DF-UKS Final Energy:  -254.20039508100064
    Total Energy =                       -254.2003950810006359
 Dipole X            :          0.0000000            0.0000000            0.0000000
 Dipole Y            :          0.0000000            0.0000000            0.0000000
 Dipole Z            :         -0.2492655           -0.0084525           -0.2577180
 Magnitude           :                                                    0.2577180
    Molecular point group: c2v
  Basis Set: CC-PVDZ
    Blend: CC-PVDZ
  Basis Set: (CC-PVDZ AUX)
    Blend: CC-PVDZ-JKFIT + DEF2-UNIVERSAL-JKFIT
  Basis Set: CC-PVDZ
    Blend: CC-PVDZ
  Basis Set: (CC-PVDZ AUX)
    Blend: CC-PVDZ-JKFIT + DEF2-UNIVERSAL-JKFIT
  @DF-UKS Final Energy:  -254.43870909177323
    Total Energy =                       -254.4387090917732337
  Basis Set: CC-PVDZ
    Blend: CC-PVDZ
  Basis Set: (CC-PVDZ AUX)
    Blend: CC-PVDZ-JKFIT + DEF2-UNIVERSAL-JKFIT
  Basis Set: CC-PVDZ
    Blend: CC-PVDZ
  @DF-UKS Final Energy:  -254.57294084439778
    Total Energy =                       -254.5729408443977775
  @DF-UKS Final Energy:  -254.63049666093013
    Total Energy =                       -254.6304966609301346
  @DF-UKS Final Energy:  -254.65456646727409
    Total Energy =                       -254.6545664672740941
  @DF-UKS Final Energy:  -254.66137873468486
    Total Energy =                       -254.6613787346848596
  @DF-UKS Final Energy:  -254.66418503899004
    Total Energy =                       -254.6641850389900412
  @DF-UKS Final Energy:  -254.66476961452949
    Total Energy =                       -254.6647696145294901
  @DF-UKS Final Energy:  -254.66492656204551
    Total Energy =                       -254.6649265620455083
  Basis Set: (CC-PVDZ AUX)
    Blend: CC-PVDZ-JKFIT + DEF2-UNIVERSAL-JKFIT
  Basis Set: CC-PVDZ
    Blend: CC-PVDZ
  Basis Set: (CC-PVDZ AUX)
    Blend: CC-PVDZ-JKFIT + DEF2-UNIVERSAL-JKFIT
  @DF-UKS Final Energy:  -254.66494299653246
    Total Energy =                       -254.6649429965324600
  Basis Set: CC-PVDZ
    Blend: CC-PVDZ
  Basis Set: (CC-PVDZ AUX)
    Blend: CC-PVDZ-JKFIT + DEF2-UNIVERSAL-JKFIT
  Charge       = 0
  Multiplicity = 4
  Basis Set: CC-PVDZ
    Blend: CC-PVDZ
  Basis Set: (CC-PVDZ AUX)
    Blend: CC-PVDZ-JKFIT + DEF2-UNIVERSAL-JKFIT

    Orbital Energies [Eh]
    ---------------------

    Alpha Occupied:

       1A1   -46.871798     2A1   -14.334822     3A1    -3.154000
       1B2    -1.898543     4A1    -1.896985     1B1    -1.896842
       5A1    -0.727926     6A1    -0.324220     2B2    -0.285268
       2B1    -0.232825     7A1    -0.199184

    Alpha Virtual:

       3B2    -0.036732     3B1    -0.029331     8A1     0.021744
       9A1     0.089594     4B2     0.142231     4B1     0.145364
      10A1     0.207037    11A1     0.287994     1A2     0.288029
       5B2     0.327408     5B1     0.339487    12A1     0.520316
       6B2     0.789531    13A1     0.814366     6B1     0.825718
      14A1     1.312628    15A1     1.784083     2A2     1.784614
       7B2     1.820276     7B1     1.860895    16A1     2.047875

    Beta Occupied:

       1A1   -46.868381     2A1   -14.298559     3A1    -3.148220
       1B2    -1.894553     1B1    -1.893517     4A1    -1.890313
       5A1    -0.602413     2B1    -0.190230

    Beta Virtual:

       6A1    -0.145144     2B2    -0.088610     7A1    -0.064710
       3B1    -0.004299     3B2     0.017644     8A1     0.043841
       9A1     0.112686     4B1     0.162077     4B2     0.165710
      10A1     0.256607     1A2     0.316523    11A1     0.320322
       5B1     0.378804     5B2     0.387449    12A1     0.570708
       6B1     0.854081     6B2     0.879904    13A1     0.909623
      14A1     1.384151     2A2     1.860182    15A1     1.867931
       7B1     1.934587     7B2     1.954132    16A1     2.147571

    Final Occupation by Irrep:
             A1    A2    B1    B2
    DOCC [     5,    0,    2,    1 ]
    SOCC [     2,    0,    0,    1 ]
    NA   [     7,    0,    2,    2 ]
    NB   [     5,    0,    2,    1 ]

  @DF-UKS Final Energy:  -254.66494486363842

   => Energetics <=

    Nuclear Repulsion Energy =             23.0857966555954626
    One-Electron Energy =                -399.4166894145699871
    Two-Electron Energy =                 140.4943102267486097
    DFT Exchange-Correlation Energy =     -18.8283623314125101
    Empirical Dispersion Energy =           0.0000000000000000
    VV10 Nonlocal Energy =                  0.0000000000000000
    Total Energy =                       -254.6649448636384250

  UHF NO Occupations:
  HONO-2 :    6 A1 1.0000000
  HONO-1 :    7 A1 1.0000000
  HONO-0 :    2 B2 1.0000000
  LUNO+0 :    3 B1 0.0031856
  LUNO+1 :    8 A1 0.0010883
  LUNO+2 :    3 B2 0.0000010
  LUNO+3 :    4 B1 0.0000008

Computation Completed

Properties will be evaluated at   0.000000,   0.000000,   0.000000 [a0]

Properties computed using the SCF density matrix

 Multipole Moments:

 ------------------------------------------------------------------------------------
     Multipole            Electronic (a.u.)      Nuclear  (a.u.)        Total (a.u.)
 ------------------------------------------------------------------------------------

 L = 1.  Multiply by 2.5417464519 to convert [e a0] to [Debye]
 Dipole X            :          0.0000000            0.0000000            0.0000000
 Dipole Y            :          0.0000000            0.0000000            0.0000000
 Dipole Z            :         -0.9315336           -0.0135625           -0.9450960
 Magnitude           :                                                    0.9450960

 ------------------------------------------------------------------------------------

*** tstop() called on Joses-MacBook-Pro-2.local at Wed Jul 16 19:10:49 2025
Module time:
	user time   =       3.85 seconds =       0.06 minutes
	system time =       3.93 seconds =       0.07 minutes
	total time  =          0 seconds =       0.00 minutes
Total time:
	user time   =      71.26 seconds =       1.19 minutes
	system time =      66.97 seconds =       1.12 minutes
	total time  =         14 seconds =       0.23 minutes

*** tstart() called on Joses-MacBook-Pro-2.local
*** at Wed Jul 16 19:10:49 2025

         ------------------------------------------------------------
                                   SCF GRAD
                          Rob Parrish, Justin Turney,
                       Andy Simmonett, and Alex Sokolov
         ------------------------------------------------------------

  ==> Geometry <==

    Molecular point group: c2v
    Full point group: C_inf_v

    Geometry (in Angstrom), charge = 0, multiplicity = 4:

       Center              X                  Y                   Z               Mass
    ------------   -----------------  -----------------  -----------------  -----------------
         N            0.000000000000     0.000000000000     1.215705211877    14.003074004430
         MG           0.000000000000     0.000000000000    -0.709759451934    23.985041697000

  Nuclear repulsion =   23.085796655595463

  ==> Basis Set <==

  Basis Set: CC-PVDZ
    Blend: CC-PVDZ
    Number of shells: 14
    Number of basis functions: 32
    Number of Cartesian functions: 34
    Spherical Harmonics?: true
    Max angular momentum: 2

  ==> DFJKGrad: Density-Fitted SCF Gradients <==

    Gradient:                    1
    J tasked:                  Yes
    K tasked:                  Yes
    wK tasked:                  No
    OpenMP threads:              1
    Integrals threads:           1
    Memory [MiB]:              375
    Schwarz Cutoff:          1E-12
    Fitting Condition:       1E-10

   => Auxiliary Basis Set <=

  Basis Set: (CC-PVDZ AUX)
    Blend: CC-PVDZ-JKFIT + DEF2-UNIVERSAL-JKFIT
    Number of shells: 58
    Number of basis functions: 182
    Number of Cartesian functions: 218
    Spherical Harmonics?: true
    Max angular momentum: 4

  ==> DFT Potential <==

   => LibXC <=

    Version 6.2.2
    S. Lehtola, C. Steigemann, M. J.T. Oliveira, and M. A.L. Marques.,  SoftwareX 7, 1â€“5 (2018) (10.1016/j.softx.2017.11.002)

   => Composite Functional: B3LYP <=

    B3LYP Hyb-GGA Exchange-Correlation Functional

    P. J. Stephens, F. J. Devlin, C. F. Chabalowski, and M. J. Frisch.,  J. Phys. Chem. 98, 11623 (1994) (10.1021/j100096a001)

    Deriv               =              1
    GGA                 =           TRUE
    Meta                =          FALSE

    Exchange Hybrid     =           TRUE
    MP2 Hybrid          =          FALSE

   => Exchange Functionals <=

    0.0800   Slater exchange
    0.7200         Becke 88

   => Exact (HF) Exchange <=

    0.2000               HF

   => Correlation Functionals <=

    0.1900   Vosko, Wilk & Nusair (VWN5_RPA)
    0.8100   Lee, Yang & Parr

   => LibXC Density Thresholds  <==

    XC_HYB_GGA_XC_B3LYP:  1.00E-15

   => Molecular Quadrature <=

    Radial Scheme          =       TREUTLER
    Pruning Scheme         =           NONE
    Nuclear Scheme         =       TREUTLER

    Blocking Scheme        =         OCTREE
    BS radius alpha        =              1
    Pruning alpha          =              1
    Radial Points          =             75
    Spherical Points       =            302
    Total Points           =          43433
    Total Blocks           =            412
    Max Points             =            255
    Max Functions          =             32
    Weights Tolerance      =       1.00E-15

  -Total Gradient:
     Atom            X                  Y                   Z
    ------   -----------------  -----------------  -----------------
       1       -0.000000000000     0.000000000000    -0.000173228051
       2        0.000000000000     0.000000000000     0.000154024745

*** tstop() called on Joses-MacBook-Pro-2.local at Wed Jul 16 19:10:50 2025
Module time:
	user time   =       0.91 seconds =       0.02 minutes
	system time =       2.19 seconds =       0.04 minutes
	total time  =          1 seconds =       0.02 minutes
Total time:
	user time   =      72.17 seconds =       1.20 minutes
	system time =      69.17 seconds =       1.15 minutes
	total time  =         15 seconds =       0.25 minutes

    			-----------------------------------------

    			 OPTKING 3.0: for geometry optimizations

    			     By R.A. King, Bethel University

    			        with contributions from

    			    A.V. Copan, J. Cayton, A. Heide

    			-----------------------------------------

	                            ===> Fragment 1 <==

	 Z (Atomic Numbers)          Masses                          Geom
	       7.000000            14.003074          0.00000000  0.00000000  2.29734990
	      12.000000            23.985042          0.00000000  0.00000000 -1.34125098

	 - Coordinate -           - BOHR/RAD -       - ANG/DEG -
	 R(1,2)           =         3.638601           1.925465

	        --- Internal Coordinate Step in ANG or DEG, aJ/ANG or AJ/DEG ---
	-------------------------------------------------------------------------------
	           Coordinate      Previous         Force          Change          New
	           ----------      --------        ------          ------        ------
	               R(1,2)       1.92546        0.00135        0.00057       1.92604
	-------------------------------------------------------------------------------

	                                 ==> Convergence Check <==

	Measures of convergence in internal coordinates in au.

	Criteria marked as inactive (o), active & met (*), and active & unmet ( ).

	----------------------------------------------------------------------------------------------
	   Step    Total Energy     Delta E     Max Force     RMS Force      Max Disp      RMS Disp
	----------------------------------------------------------------------------------------------
	  Convergence Criteria     1.00e-06 *    3.00e-04 *             o    1.20e-03 *             o
	----------------------------------------------------------------------------------------------
	    11    -254.66494486   -1.87e-06      1.64e-04 *    1.64e-04 o    1.08e-03 *    1.08e-03 o  ~
	----------------------------------------------------------------------------------------------

Next Geometry in Ang
	Fragment 1 (Ang)

	    N   0.0000000000   0.0000000000   1.2159917043
	   Mg   0.0000000000   0.0000000000  -0.7100459443

    Final optimized geometry and variables:
    Molecular point group: c2v
    Full point group: C_inf_v

    Geometry (in Angstrom), charge = 0, multiplicity = 4:

    N            0.000000000000     0.000000000000     1.215705211877
    MG           0.000000000000     0.000000000000    -0.709759451934

    Psi4 stopped on: Wednesday, 16 July 2025 07:10PM
    Psi4 wall time for execution: 0:00:15.44

*** Psi4 exiting successfully. Buy a developer a beer!
