                               Psi4 1.9.1 release

  ==> Input File <==

--------------------------------------------------------------------------
molecule {
0 4
F   0.00000        0.60000        0.00000
Ne   0.00000       -0.60000        0.00000
}

set {
basis              cc-pvdz
reference          uks
maxiter            500
geom_maxiter       500
DAMPING_PERCENTAGE 1
guess              SAP
}

optimize('b3lyp')
--------------------------------------------------------------------------

    Molecular point group: c2v
  Charge       = 0
  Multiplicity = 4
  Basis Set: CC-PVDZ
    Blend: CC-PVDZ
  Basis Set: (CC-PVDZ AUX)
    Blend: CC-PVDZ-JKFIT
  @DF-UKS Final Energy:  -226.99661870587107
    Total Energy =                       -226.9966187058710716
 Dipole X            :          0.0000000            0.0000000            0.0000000
 Dipole Y            :          0.0000000            0.0000000            0.0000000
 Dipole Z            :         -0.4660283           -0.5846191           -1.0506474
 Magnitude           :                                                    1.0506474
    Molecular point group: c2v
  Basis Set: CC-PVDZ
    Blend: CC-PVDZ
  Basis Set: (CC-PVDZ AUX)
    Blend: CC-PVDZ-JKFIT
  Basis Set: CC-PVDZ
    Blend: CC-PVDZ
  Basis Set: (CC-PVDZ AUX)
    Blend: CC-PVDZ-JKFIT
  @DF-UKS Final Energy:  -227.26454935455669
    Total Energy =                       -227.2645493545566922
  Basis Set: CC-PVDZ
    Blend: CC-PVDZ
  Basis Set: (CC-PVDZ AUX)
    Blend: CC-PVDZ-JKFIT
  Basis Set: CC-PVDZ
    Blend: CC-PVDZ
  @DF-UKS Final Energy:  -227.31964004373657
    Total Energy =                       -227.3196400437365696
  @DF-UKS Final Energy:  -227.33630659042251
    Total Energy =                       -227.3363065904225095
  @DF-UKS Final Energy:  -227.34299119285086
    Total Energy =                       -227.3429911928508602
  @DF-UKS Final Energy:  -227.34464491695249
    Total Energy =                       -227.3446449169524897
  @DF-UKS Final Energy:  -227.34518134701477
    Total Energy =                       -227.3451813470147727
  @DF-UKS Final Energy:  -227.34544129316143
    Total Energy =                       -227.3454412931614286
  @DF-UKS Final Energy:  -227.34551031884178
    Total Energy =                       -227.3455103188417752
  @DF-UKS Final Energy:  -227.34553541175754
    Total Energy =                       -227.3455354117575382
  Basis Set: (CC-PVDZ AUX)
    Blend: CC-PVDZ-JKFIT
  Basis Set: CC-PVDZ
    Blend: CC-PVDZ
  Basis Set: (CC-PVDZ AUX)
    Blend: CC-PVDZ-JKFIT
  @DF-UKS Final Energy:  -227.34553968451837
    Total Energy =                       -227.3455396845183714
  Basis Set: CC-PVDZ
    Blend: CC-PVDZ
  Basis Set: (CC-PVDZ AUX)
    Blend: CC-PVDZ-JKFIT
  Charge       = 0
  Multiplicity = 4
  Basis Set: CC-PVDZ
    Blend: CC-PVDZ
  Basis Set: (CC-PVDZ AUX)
    Blend: CC-PVDZ-JKFIT

    Orbital Energies [Eh]
    ---------------------

    Alpha Occupied:

       1A1   -31.001827     2A1   -24.867213     3A1    -1.470504
       4A1    -1.345766     5A1    -0.665314     1B2    -0.656603
       1B1    -0.576977     2B2    -0.571071     6A1    -0.552174
       2B1    -0.548620     3B2     0.838376

    Alpha Virtual:

       7A1     0.970490     3B1     1.005277     8A1     1.212147
       4B2     1.353913     4B1     1.361707     9A1     1.537055
      10A1     2.037015     5B2     3.319793    11A1     3.352951
       5B1     3.366293     1A2     3.383322    12A1     3.407863
       6B1     4.687509     6B2     4.688055    13A1     4.694778
       2A2     4.694814    14A1     4.706687

    Beta Occupied:

       1A1   -30.996708     2A1   -24.778390     3A1    -1.459690
       4A1    -1.146551     5A1    -0.571686     1B1    -0.568971
       1B2    -0.564714     2B1    -0.479296

    Beta Virtual:

       6A1    -0.289376     2B2    -0.251178     3B1     1.056035
       7A1     1.087249     3B2     1.135286     8A1     1.314884
       4B1     1.367222     4B2     1.378378     9A1     1.576192
      10A1     2.079275     5B1     3.471797    11A1     3.500292
       1A2     3.504136     5B2     3.531799    12A1     3.562852
       6B1     4.696587    13A1     4.698195     2A2     4.698279
       6B2     4.698535    14A1     4.718859

    Final Occupation by Irrep:
             A1    A2    B1    B2
    DOCC [     5,    0,    2,    1 ]
    SOCC [     1,    0,    0,    2 ]
    NA   [     6,    0,    2,    3 ]
    NB   [     5,    0,    2,    1 ]

  @DF-UKS Final Energy:  -227.34554007027293

   => Energetics <=

    Nuclear Repulsion Energy =             24.2915416414934278
    One-Electron Energy =                -368.0344609068405362
    Two-Electron Energy =                 134.8996994639666411
    DFT Exchange-Correlation Energy =     -18.5023202688924719
    Empirical Dispersion Energy =           0.0000000000000000
    VV10 Nonlocal Energy =                  0.0000000000000000
    Total Energy =                       -227.3455400702729321

  UHF NO Occupations:
  HONO-2 :    2 B2 1.0000000
  HONO-1 :    6 A1 1.0000000
  HONO-0 :    3 B2 1.0000000
  LUNO+0 :    7 A1 0.0006838
  LUNO+1 :    3 B1 0.0002273
  LUNO+2 :    8 A1 0.0001810
  LUNO+3 :    4 B2 0.0000046

Computation Completed

Properties will be evaluated at   0.000000,   0.000000,   0.000000 [a0]

Properties computed using the SCF density matrix

 Multipole Moments:

 ------------------------------------------------------------------------------------
     Multipole            Electronic (a.u.)      Nuclear  (a.u.)        Total (a.u.)
 ------------------------------------------------------------------------------------

 L = 1.  Multiply by 2.5417464519 to convert [e a0] to [Debye]
 Dipole X            :          0.0000000            0.0000000            0.0000000
 Dipole Y            :          0.0000000            0.0000000            0.0000000
 Dipole Z            :          0.8001167           -0.9551692           -0.1550525
 Magnitude           :                                                    0.1550525

 ------------------------------------------------------------------------------------

*** tstop() called on Joses-MacBook-Pro-2.local at Wed Jul 16 19:25:37 2025
Module time:
	user time   =       3.51 seconds =       0.06 minutes
	system time =       1.96 seconds =       0.03 minutes
	total time  =          0 seconds =       0.00 minutes
Total time:
	user time   =      55.10 seconds =       0.92 minutes
	system time =      49.62 seconds =       0.83 minutes
	total time  =         10 seconds =       0.17 minutes

*** tstart() called on Joses-MacBook-Pro-2.local
*** at Wed Jul 16 19:25:37 2025

         ------------------------------------------------------------
                                   SCF GRAD
                          Rob Parrish, Justin Turney,
                       Andy Simmonett, and Alex Sokolov
         ------------------------------------------------------------

  ==> Geometry <==

    Molecular point group: c2v
    Full point group: C_inf_v

    Geometry (in Angstrom), charge = 0, multiplicity = 4:

       Center              X                  Y                   Z               Mass
    ------------   -----------------  -----------------  -----------------  -----------------
         F            0.000000000000     0.000000000000     1.005290875803    18.998403162730
         NE           0.000000000000     0.000000000000    -0.955307165408    19.992440176200

  Nuclear repulsion =   24.291541641493428

  ==> Basis Set <==

  Basis Set: CC-PVDZ
    Blend: CC-PVDZ
    Number of shells: 12
    Number of basis functions: 28
    Number of Cartesian functions: 30
    Spherical Harmonics?: true
    Max angular momentum: 2

  ==> DFJKGrad: Density-Fitted SCF Gradients <==

    Gradient:                    1
    J tasked:                  Yes
    K tasked:                  Yes
    wK tasked:                  No
    OpenMP threads:              1
    Integrals threads:           1
    Memory [MiB]:              375
    Schwarz Cutoff:          1E-12
    Fitting Condition:       1E-10

   => Auxiliary Basis Set <=

  Basis Set: (CC-PVDZ AUX)
    Blend: CC-PVDZ-JKFIT
    Number of shells: 48
    Number of basis functions: 140
    Number of Cartesian functions: 162
    Spherical Harmonics?: true
    Max angular momentum: 3

  ==> DFT Potential <==

   => LibXC <=

    Version 6.2.2
    S. Lehtola, C. Steigemann, M. J.T. Oliveira, and M. A.L. Marques.,  SoftwareX 7, 1â€“5 (2018) (10.1016/j.softx.2017.11.002)

   => Composite Functional: B3LYP <=

    B3LYP Hyb-GGA Exchange-Correlation Functional

    P. J. Stephens, F. J. Devlin, C. F. Chabalowski, and M. J. Frisch.,  J. Phys. Chem. 98, 11623 (1994) (10.1021/j100096a001)

    Deriv               =              1
    GGA                 =           TRUE
    Meta                =          FALSE

    Exchange Hybrid     =           TRUE
    MP2 Hybrid          =          FALSE

   => Exchange Functionals <=

    0.0800   Slater exchange
    0.7200         Becke 88

   => Exact (HF) Exchange <=

    0.2000               HF

   => Correlation Functionals <=

    0.1900   Vosko, Wilk & Nusair (VWN5_RPA)
    0.8100   Lee, Yang & Parr

   => LibXC Density Thresholds  <==

    XC_HYB_GGA_XC_B3LYP:  1.00E-15

   => Molecular Quadrature <=

    Radial Scheme          =       TREUTLER
    Pruning Scheme         =           NONE
    Nuclear Scheme         =       TREUTLER

    Blocking Scheme        =         OCTREE
    BS radius alpha        =              1
    Pruning alpha          =              1
    Radial Points          =             75
    Spherical Points       =            302
    Total Points           =          42336
    Total Blocks           =            374
    Max Points             =            255
    Max Functions          =             28
    Weights Tolerance      =       1.00E-15

  -Total Gradient:
     Atom            X                  Y                   Z
    ------   -----------------  -----------------  -----------------
       1        0.000000000000     0.000000000000    -0.000045059382
       2       -0.000000000000     0.000000000000     0.000029036865

*** tstop() called on Joses-MacBook-Pro-2.local at Wed Jul 16 19:25:37 2025
Module time:
	user time   =       0.52 seconds =       0.01 minutes
	system time =       1.01 seconds =       0.02 minutes
	total time  =          0 seconds =       0.00 minutes
Total time:
	user time   =      55.62 seconds =       0.93 minutes
	system time =      50.63 seconds =       0.84 minutes
	total time  =         10 seconds =       0.17 minutes

    			-----------------------------------------

    			 OPTKING 3.0: for geometry optimizations

    			     By R.A. King, Bethel University

    			        with contributions from

    			    A.V. Copan, J. Cayton, A. Heide

    			-----------------------------------------

	                            ===> Fragment 1 <==

	 Z (Atomic Numbers)          Masses                          Geom
	       9.000000            18.998403          0.00000000  0.00000000  1.89972443
	      10.000000            19.992440          0.00000000  0.00000000 -1.80526891

	 - Coordinate -           - BOHR/RAD -       - ANG/DEG -
	 R(1,2)           =         3.704993           1.960598

	        --- Internal Coordinate Step in ANG or DEG, aJ/ANG or AJ/DEG ---
	-------------------------------------------------------------------------------
	           Coordinate      Previous         Force          Change          New
	           ----------      --------        ------          ------        ------
	               R(1,2)       1.96060        0.00031        0.00034       1.96093
	-------------------------------------------------------------------------------

	                                 ==> Convergence Check <==

	Measures of convergence in internal coordinates in au.

	Criteria marked as inactive (o), active & met (*), and active & unmet ( ).

	----------------------------------------------------------------------------------------------
	   Step    Total Energy     Delta E     Max Force     RMS Force      Max Disp      RMS Disp
	----------------------------------------------------------------------------------------------
	  Convergence Criteria     1.00e-06 *    3.00e-04 *             o    1.20e-03 *             o
	----------------------------------------------------------------------------------------------
	    12    -227.34554007   -3.86e-07 *    3.70e-05 *    3.70e-05 o    6.34e-04 *    6.34e-04 o  ~
	----------------------------------------------------------------------------------------------

Next Geometry in Ang
	Fragment 1 (Ang)

	    F   0.0000000000   0.0000000000   1.0054586598
	   Ne   0.0000000000   0.0000000000  -0.9554749494

    Final optimized geometry and variables:
    Molecular point group: c2v
    Full point group: C_inf_v

    Geometry (in Angstrom), charge = 0, multiplicity = 4:

    F            0.000000000000     0.000000000000     1.005290875803
    NE           0.000000000000     0.000000000000    -0.955307165408

    Psi4 stopped on: Wednesday, 16 July 2025 07:25PM
    Psi4 wall time for execution: 0:00:11.03

*** Psi4 exiting successfully. Buy a developer a beer!
