                               Psi4 1.9.1 release

  ==> Input File <==

--------------------------------------------------------------------------
molecule {
0 4
Al   0.00000        0.60000        0.00000
Si   0.00000       -0.60000        0.00000
}

set {
basis              cc-pvdz
reference          uks
maxiter            500
geom_maxiter       500
DAMPING_PERCENTAGE 1
guess              SAP
}

optimize('b3lyp')
--------------------------------------------------------------------------

    Molecular point group: c2v
  Charge       = 0
  Multiplicity = 4
  Basis Set: CC-PVDZ
    Blend: CC-PVDZ
  Basis Set: (CC-PVDZ AUX)
    Blend: CC-PVDZ-JKFIT
  @DF-UKS Final Energy:  -530.67705379373012
    Total Energy =                       -530.6770537937301242
 Dipole X            :          0.0000000            0.0000000            0.0000000
 Dipole Y            :          0.0000000            0.0000000            0.0000000
 Dipole Z            :          0.4803063           -0.5793738           -0.0990675
 Magnitude           :                                                    0.0990675
    Molecular point group: c2v
  Basis Set: CC-PVDZ
    Blend: CC-PVDZ
  Basis Set: (CC-PVDZ AUX)
    Blend: CC-PVDZ-JKFIT
  Basis Set: CC-PVDZ
    Blend: CC-PVDZ
  Basis Set: (CC-PVDZ AUX)
    Blend: CC-PVDZ-JKFIT
  @DF-UKS Final Energy:  -530.69371928947362
    Total Energy =                       -530.6937192894736199
  Basis Set: CC-PVDZ
    Blend: CC-PVDZ
  Basis Set: (CC-PVDZ AUX)
    Blend: CC-PVDZ-JKFIT
  Basis Set: CC-PVDZ
    Blend: CC-PVDZ
  @DF-UKS Final Energy:  -530.72590716928346
    Total Energy =                       -530.7259071692834596
  @DF-UKS Final Energy:  -530.84271169549788
    Total Energy =                       -530.8427116954978828
  @DF-UKS Final Energy:  -531.34109237104042
    Total Energy =                       -531.3410923710404177
  @DF-UKS Final Energy:  -531.57875647292622
    Total Energy =                       -531.5787564729262158
  @DF-UKS Final Energy:  -531.74907078532078
    Total Energy =                       -531.7490707853207823
  @DF-UKS Final Energy:  -531.82834929749379
    Total Energy =                       -531.8283492974937872
  @DF-UKS Final Energy:  -531.84746760365965
    Total Energy =                       -531.8474676036596520
  @DF-UKS Final Energy:  -531.85545806143341
    Total Energy =                       -531.8554580614334100
  @DF-UKS Final Energy:  -531.85711589217408
    Total Energy =                       -531.8571158921740789
  @DF-UKS Final Energy:  -531.85757913385669
    Total Energy =                       -531.8575791338566887
  @DF-UKS Final Energy:  -531.85764244164193
    Total Energy =                       -531.8576424416419286
  @DF-UKS Final Energy:  -531.85765170312811
    Total Energy =                       -531.8576517031281128
  Basis Set: (CC-PVDZ AUX)
    Blend: CC-PVDZ-JKFIT
  Basis Set: CC-PVDZ
    Blend: CC-PVDZ
  Basis Set: (CC-PVDZ AUX)
    Blend: CC-PVDZ-JKFIT
  @DF-UKS Final Energy:  -531.85765327074034
    Total Energy =                       -531.8576532707403430
  Basis Set: CC-PVDZ
    Blend: CC-PVDZ
  Basis Set: (CC-PVDZ AUX)
    Blend: CC-PVDZ-JKFIT
  Charge       = 0
  Multiplicity = 4
  Basis Set: CC-PVDZ
    Blend: CC-PVDZ
  Basis Set: (CC-PVDZ AUX)
    Blend: CC-PVDZ-JKFIT

    Orbital Energies [Eh]
    ---------------------

    Alpha Occupied:

       1A1   -66.140413     2A1   -56.078841     3A1    -5.285070
       4A1    -4.159617     1B1    -3.644569     1B2    -3.644569
       5A1    -3.643413     2B1    -2.712724     2B2    -2.712724
       6A1    -2.711240     7A1    -0.483267     8A1    -0.322104
       9A1    -0.199927     3B1    -0.198918     3B2    -0.198918

    Alpha Virtual:

       4B1    -0.063377     4B2    -0.063377    10A1     0.026406
      11A1     0.133909    12A1     0.186654     5B2     0.191521
       5B1     0.191521     6B2     0.238579     6B1     0.238579
      13A1     0.239340     1A2     0.239340    14A1     0.256068
       7B2     0.328135     7B1     0.328135     2A2     0.371093
      15A1     0.371094    16A1     0.382877    17A1     0.476371
       8B2     0.508813     8B1     0.508813    18A1     0.736172

    Beta Occupied:

       1A1   -66.134395     2A1   -56.076654     3A1    -5.278285
       4A1    -4.156922     1B1    -3.634555     1B2    -3.634555
       5A1    -3.633931     2B1    -2.709826     2B2    -2.709826
       6A1    -2.705915     7A1    -0.414444     8A1    -0.277068

    Beta Virtual:

       9A1    -0.110243     3B1    -0.107738     3B2    -0.107738
       4B1    -0.028164     4B2    -0.028164    10A1     0.051795
      11A1     0.158171     5B2     0.211986     5B1     0.211986
      12A1     0.213481    13A1     0.265246     1A2     0.265247
       6B1     0.273883     6B2     0.273883    14A1     0.284839
       7B2     0.360163     7B1     0.360163    15A1     0.409681
      16A1     0.428563     2A2     0.428564    17A1     0.509829
       8B2     0.553348     8B1     0.553348    18A1     0.769944

    Final Occupation by Irrep:
             A1    A2    B1    B2
    DOCC [     8,    0,    2,    2 ]
    SOCC [     1,    0,    1,    1 ]
    NA   [     9,    0,    3,    3 ]
    NB   [     8,    0,    2,    2 ]

  @DF-UKS Final Energy:  -531.85765334397831

   => Energetics <=

    Nuclear Repulsion Energy =             39.2979110076201010
    One-Electron Energy =                -816.1417462356828310
    Two-Electron Energy =                 276.7805595418773805
    DFT Exchange-Correlation Energy =     -31.7943776577929746
    Empirical Dispersion Energy =           0.0000000000000000
    VV10 Nonlocal Energy =                  0.0000000000000000
    Total Energy =                       -531.8576533439783134

  UHF NO Occupations:
  HONO-2 :    3 B1 1.0000000
  HONO-1 :    3 B2 1.0000000
  HONO-0 :    9 A1 1.0000000
  LUNO+0 :   10 A1 0.0010939
  LUNO+1 :   11 A1 0.0000775
  LUNO+2 :   12 A1 0.0000001
  LUNO+3 :    4 B1 0.0000000

Computation Completed

Properties will be evaluated at   0.000000,   0.000000,   0.000000 [a0]

Properties computed using the SCF density matrix

 Multipole Moments:

 ------------------------------------------------------------------------------------
     Multipole            Electronic (a.u.)      Nuclear  (a.u.)        Total (a.u.)
 ------------------------------------------------------------------------------------

 L = 1.  Multiply by 2.5417464519 to convert [e a0] to [Debye]
 Dipole X            :          0.0000000            0.0000000            0.0000000
 Dipole Y            :          0.0000000            0.0000000            0.0000000
 Dipole Z            :          1.7098682           -1.1832613            0.5266069
 Magnitude           :                                                    0.5266069

 ------------------------------------------------------------------------------------

*** tstop() called on Joses-MacBook-Pro-2.local at Wed Jul 16 20:06:31 2025
Module time:
	user time   =       6.67 seconds =       0.11 minutes
	system time =       2.13 seconds =       0.04 minutes
	total time  =          1 seconds =       0.02 minutes
Total time:
	user time   =     197.48 seconds =       3.29 minutes
	system time =      51.50 seconds =       0.86 minutes
	total time  =         24 seconds =       0.40 minutes

*** tstart() called on Joses-MacBook-Pro-2.local
*** at Wed Jul 16 20:06:31 2025

         ------------------------------------------------------------
                                   SCF GRAD
                          Rob Parrish, Justin Turney,
                       Andy Simmonett, and Alex Sokolov
         ------------------------------------------------------------

  ==> Geometry <==

    Molecular point group: c2v
    Full point group: C_inf_v

    Geometry (in Angstrom), charge = 0, multiplicity = 4:

       Center              X                  Y                   Z               Mass
    ------------   -----------------  -----------------  -----------------  -----------------
         AL           0.000000000000     0.000000000000     1.247580171184    26.981538530000
         SI           0.000000000000     0.000000000000    -1.203192652930    27.976926534650

  Nuclear repulsion =   39.297911007620101

  ==> Basis Set <==

  Basis Set: CC-PVDZ
    Blend: CC-PVDZ
    Number of shells: 16
    Number of basis functions: 36
    Number of Cartesian functions: 38
    Spherical Harmonics?: true
    Max angular momentum: 2

  ==> DFJKGrad: Density-Fitted SCF Gradients <==

    Gradient:                    1
    J tasked:                  Yes
    K tasked:                  Yes
    wK tasked:                  No
    OpenMP threads:              1
    Integrals threads:           1
    Memory [MiB]:              375
    Schwarz Cutoff:          1E-12
    Fitting Condition:       1E-10

   => Auxiliary Basis Set <=

  Basis Set: (CC-PVDZ AUX)
    Blend: CC-PVDZ-JKFIT
    Number of shells: 72
    Number of basis functions: 224
    Number of Cartesian functions: 260
    Spherical Harmonics?: true
    Max angular momentum: 3

  ==> DFT Potential <==

   => LibXC <=

    Version 6.2.2
    S. Lehtola, C. Steigemann, M. J.T. Oliveira, and M. A.L. Marques.,  SoftwareX 7, 1â€“5 (2018) (10.1016/j.softx.2017.11.002)

   => Composite Functional: B3LYP <=

    B3LYP Hyb-GGA Exchange-Correlation Functional

    P. J. Stephens, F. J. Devlin, C. F. Chabalowski, and M. J. Frisch.,  J. Phys. Chem. 98, 11623 (1994) (10.1021/j100096a001)

    Deriv               =              1
    GGA                 =           TRUE
    Meta                =          FALSE

    Exchange Hybrid     =           TRUE
    MP2 Hybrid          =          FALSE

   => Exchange Functionals <=

    0.0800   Slater exchange
    0.7200         Becke 88

   => Exact (HF) Exchange <=

    0.2000               HF

   => Correlation Functionals <=

    0.1900   Vosko, Wilk & Nusair (VWN5_RPA)
    0.8100   Lee, Yang & Parr

   => LibXC Density Thresholds  <==

    XC_HYB_GGA_XC_B3LYP:  1.00E-15

   => Molecular Quadrature <=

    Radial Scheme          =       TREUTLER
    Pruning Scheme         =           NONE
    Nuclear Scheme         =       TREUTLER

    Blocking Scheme        =         OCTREE
    BS radius alpha        =              1
    Pruning alpha          =              1
    Radial Points          =             75
    Spherical Points       =            302
    Total Points           =          42411
    Total Blocks           =            401
    Max Points             =            256
    Max Functions          =             36
    Weights Tolerance      =       1.00E-15

  -Total Gradient:
     Atom            X                  Y                   Z
    ------   -----------------  -----------------  -----------------
       1       -0.000000000000     0.000000000000    -0.000009746453
       2        0.000000000000    -0.000000000000     0.000015048719

*** tstop() called on Joses-MacBook-Pro-2.local at Wed Jul 16 20:06:31 2025
Module time:
	user time   =       2.75 seconds =       0.05 minutes
	system time =       0.76 seconds =       0.01 minutes
	total time  =          0 seconds =       0.00 minutes
Total time:
	user time   =     200.23 seconds =       3.34 minutes
	system time =      52.26 seconds =       0.87 minutes
	total time  =         24 seconds =       0.40 minutes

    			-----------------------------------------

    			 OPTKING 3.0: for geometry optimizations

    			     By R.A. King, Bethel University

    			        with contributions from

    			    A.V. Copan, J. Cayton, A. Heide

    			-----------------------------------------

	                            ===> Fragment 1 <==

	 Z (Atomic Numbers)          Masses                          Geom
	      13.000000            26.981539          0.00000000  0.00000000  2.35758484
	      14.000000            27.976927          0.00000000  0.00000000 -2.27370459

	 - Coordinate -           - BOHR/RAD -       - ANG/DEG -
	 R(1,2)           =         4.631289           2.450773

	        --- Internal Coordinate Step in ANG or DEG, aJ/ANG or AJ/DEG ---
	-------------------------------------------------------------------------------
	           Coordinate      Previous         Force          Change          New
	           ----------      --------        ------          ------        ------
	               R(1,2)       2.45077        0.00010        0.00009       2.45087
	-------------------------------------------------------------------------------

	                                 ==> Convergence Check <==

	Measures of convergence in internal coordinates in au.

	Criteria marked as inactive (o), active & met (*), and active & unmet ( ).

	----------------------------------------------------------------------------------------------
	   Step    Total Energy     Delta E     Max Force     RMS Force      Max Disp      RMS Disp
	----------------------------------------------------------------------------------------------
	  Convergence Criteria     1.00e-06 *    3.00e-04 *             o    1.20e-03 *             o
	----------------------------------------------------------------------------------------------
	    16    -531.85765334   -7.32e-08 *    1.24e-05 *    1.24e-05 o    1.75e-04 *    1.75e-04 o  ~
	----------------------------------------------------------------------------------------------

Next Geometry in Ang
	Fragment 1 (Ang)

	   Al   0.0000000000   0.0000000000   1.2476263983
	   Si   0.0000000000   0.0000000000  -1.2032388800

    Final optimized geometry and variables:
    Molecular point group: c2v
    Full point group: C_inf_v

    Geometry (in Angstrom), charge = 0, multiplicity = 4:

    AL           0.000000000000     0.000000000000     1.247580171184
    SI           0.000000000000     0.000000000000    -1.203192652930

    Psi4 stopped on: Wednesday, 16 July 2025 08:06PM
    Psi4 wall time for execution: 0:00:24.92

*** Psi4 exiting successfully. Buy a developer a beer!
