                               Psi4 1.9.1 release

  ==> Input File <==

--------------------------------------------------------------------------
molecule {
0 4
Mg   0.00000        0.60000        0.00000
Cl   0.00000       -0.60000        0.00000
}

set {
basis              cc-pvdz
reference          uks
maxiter            500
geom_maxiter       500
DAMPING_PERCENTAGE 1
guess              SAP
}

optimize('b3lyp')
--------------------------------------------------------------------------

    Molecular point group: c2v
  Charge       = 0
  Multiplicity = 4
  Basis Set: CC-PVDZ
    Blend: CC-PVDZ
  Basis Set: (CC-PVDZ AUX)
    Blend: CC-PVDZ-JKFIT + DEF2-UNIVERSAL-JKFIT
  @DF-UKS Final Energy:  -658.93050900303456
    Total Energy =                       -658.9305090030345582
 Dipole X            :          0.0000000            0.0000000            0.0000000
 Dipole Y            :          0.0000000            0.0000000            0.0000000
 Dipole Z            :         -2.1783380            0.4569863           -1.7213517
 Magnitude           :                                                    1.7213517
    Molecular point group: c2v
  Basis Set: CC-PVDZ
    Blend: CC-PVDZ
  Basis Set: (CC-PVDZ AUX)
    Blend: CC-PVDZ-JKFIT + DEF2-UNIVERSAL-JKFIT
  Basis Set: CC-PVDZ
    Blend: CC-PVDZ
  Basis Set: (CC-PVDZ AUX)
    Blend: CC-PVDZ-JKFIT + DEF2-UNIVERSAL-JKFIT
  @DF-UKS Final Energy:  -658.95244105017753
    Total Energy =                       -658.9524410501774128
  Basis Set: CC-PVDZ
    Blend: CC-PVDZ
  Basis Set: (CC-PVDZ AUX)
    Blend: CC-PVDZ-JKFIT + DEF2-UNIVERSAL-JKFIT
  Basis Set: CC-PVDZ
    Blend: CC-PVDZ
  @DF-UKS Final Energy:  -658.99436092469864
    Total Energy =                       -658.9943609246987535
  @DF-UKS Final Energy:  -659.14208184140739
    Total Energy =                       -659.1420818414073892
  @DF-UKS Final Energy:  -659.66919753152354
    Total Energy =                       -659.6691975315235368
  @DF-UKS Final Energy:  -659.86063229491492
    Total Energy =                       -659.8606322949149217
  @DF-UKS Final Energy:  -659.97753327793487
    Total Energy =                       -659.9775332779348673
  @DF-UKS Final Energy:  -660.04491733736836
    Total Energy =                       -660.0449173373682470
  @DF-UKS Final Energy:  -660.08414195758610
    Total Energy =                       -660.0841419575862119
  @DF-UKS Final Energy:  -660.10776799053372
    Total Energy =                       -660.1077679905337163
  @DF-UKS Final Energy:  -660.12264920442090
    Total Energy =                       -660.1226492044208953
  @DF-UKS Final Energy:  -660.13216311103918
    Total Energy =                       -660.1321631110391763
  @DF-UKS Final Energy:  -660.13807693261367
    Total Energy =                       -660.1380769326136715
  @DF-UKS Final Energy:  -660.14160080765646
    Total Energy =                       -660.1416008076564594
  @DF-UKS Final Energy:  -660.14165154473744
    Total Energy =                       -660.1416515447373285
  @DF-UKS Final Energy:  -660.14390929204603
    Total Energy =                       -660.1439092920460325
  @DF-UKS Final Energy:  -660.14392530807379
    Total Energy =                       -660.1439253080737899
  @DF-UKS Final Energy:  -660.14394114257607
    Total Energy =                       -660.1439411425761818
  @DF-UKS Final Energy:  -660.14514481702361
    Total Energy =                       -660.1451448170236063
  @DF-UKS Final Energy:  -660.14514991529609
    Total Energy =                       -660.1451499152962015
  @DF-UKS Final Energy:  -660.14582447734688
    Total Energy =                       -660.1458244773468778
  @DF-UKS Final Energy:  -660.14582617121687
    Total Energy =                       -660.1458261712168678
  @DF-UKS Final Energy:  -660.14582785910500
    Total Energy =                       -660.1458278591049975
  @DF-UKS Final Energy:  -660.14582954102616
    Total Energy =                       -660.1458295410261599
  @DF-UKS Final Energy:  -660.14583121695739
    Total Energy =                       -660.1458312169572764
  @DF-UKS Final Energy:  -660.14583288689118
    Total Energy =                       -660.1458328868911849
  @DF-UKS Final Energy:  -660.14620850063147
    Total Energy =                       -660.1462085006314737
  @DF-UKS Final Energy:  -660.14620911343081
    Total Energy =                       -660.1462091134308139
  @DF-UKS Final Energy:  -660.14620972444141
    Total Energy =                       -660.1462097244415190
  @DF-UKS Final Energy:  -660.14621033411765
    Total Energy =                       -660.1462103341175407
  @DF-UKS Final Energy:  -660.14621094244831
    Total Energy =                       -660.1462109424483060
  @DF-UKS Final Energy:  -660.14621154963413
    Total Energy =                       -660.1462115496341312
  @DF-UKS Final Energy:  -660.14621215538887
    Total Energy =                       -660.1462121553887528
  @DF-UKS Final Energy:  -660.14621275976276
    Total Energy =                       -660.1462127597627614
  @DF-UKS Final Energy:  -660.14621336300115
    Total Energy =                       -660.1462133630011522
  @DF-UKS Final Energy:  -660.14621396486416
    Total Energy =                       -660.1462139648641596
  @DF-UKS Final Energy:  -660.14621456549821
    Total Energy =                       -660.1462145654982123
  @DF-UKS Final Energy:  -660.14621516472914
    Total Energy =                       -660.1462151647290284
  Basis Set: (CC-PVDZ AUX)
    Blend: CC-PVDZ-JKFIT + DEF2-UNIVERSAL-JKFIT
  Basis Set: CC-PVDZ
    Blend: CC-PVDZ
  Basis Set: (CC-PVDZ AUX)
    Blend: CC-PVDZ-JKFIT + DEF2-UNIVERSAL-JKFIT
  @DF-UKS Final Energy:  -660.14621576283264
    Total Energy =                       -660.1462157628326395
  Basis Set: CC-PVDZ
    Blend: CC-PVDZ
  Basis Set: (CC-PVDZ AUX)
    Blend: CC-PVDZ-JKFIT + DEF2-UNIVERSAL-JKFIT
  Charge       = 0
  Multiplicity = 4
  Basis Set: CC-PVDZ
    Blend: CC-PVDZ
  Basis Set: (CC-PVDZ AUX)
    Blend: CC-PVDZ-JKFIT + DEF2-UNIVERSAL-JKFIT

    Orbital Energies [Eh]
    ---------------------

    Alpha Occupied:

       1A1  -101.595537     2A1   -46.884733     3A1    -9.509621
       4A1    -7.283462     1B2    -7.259805     1B1    -7.259788
       5A1    -3.163672     6A1    -1.907958     2B2    -1.907931
       2B1    -1.904909     7A1    -0.846969     8A1    -0.409463
       3B2    -0.353481     3B1    -0.353285     9A1    -0.246193
       4B1    -0.107898

    Alpha Virtual:

      10A1    -0.058949     4B2    -0.058436    11A1     0.079416
       5B1     0.129571     5B2     0.139249    12A1     0.139275
       6B1     0.268935     1A2     0.269323    13A1     0.272471
      14A1     0.279947     6B2     0.280438    15A1     0.510529
       7B2     0.527163     7B1     0.527553    16A1     0.593718
      17A1     0.652316     8B2     0.663205     8B1     0.663320
       2A2     0.707548    18A1     0.707589

    Beta Occupied:

       1A1  -101.588826     2A1   -46.880491     3A1    -9.502992
       4A1    -7.261576     1B2    -7.255828     1B1    -7.255806
       5A1    -3.156551     6A1    -1.903695     2B2    -1.903670
       2B1    -1.896082     7A1    -0.793649     3B2    -0.337586
       3B1    -0.337377

    Beta Virtual:

       8A1    -0.248316     9A1    -0.140094     4B2    -0.018787
      10A1    -0.017230     4B1     0.000648    11A1     0.106988
      12A1     0.161211     5B2     0.161972     5B1     0.178541
      13A1     0.315728     6B2     0.315952     1A2     0.336672
       6B1     0.336859    14A1     0.343397     7B2     0.534415
       7B1     0.534824    15A1     0.554255    16A1     0.617407
       2A2     0.715852    17A1     0.715889     8B2     0.720796
       8B1     0.720925    18A1     0.730924

    Final Occupation by Irrep:
             A1    A2    B1    B2
    DOCC [     7,    0,    3,    3 ]
    SOCC [     2,    0,    1,    0 ]
    NA   [     9,    0,    4,    3 ]
    NB   [     7,    0,    3,    3 ]

  @DF-UKS Final Energy:  -660.14644263184823

   => Energetics <=

    Nuclear Repulsion Energy =             21.2140001350113785
    One-Electron Energy =                -956.0425268658993900
    Two-Electron Energy =                 310.6547061535864600
    DFT Exchange-Correlation Energy =     -35.9726220545466617
    Empirical Dispersion Energy =           0.0000000000000000
    VV10 Nonlocal Energy =                  0.0000000000000000
    Total Energy =                       -660.1464426318482310

  UHF NO Occupations:
  HONO-2 :    4 B1 1.0000000
  HONO-1 :    8 A1 1.0000000
  HONO-0 :    9 A1 1.0000000
  LUNO+0 :   10 A1 0.0008585
  LUNO+1 :    5 B1 0.0000267
  LUNO+2 :    4 B2 0.0000265
  LUNO+3 :   11 A1 0.0000009

Computation Completed

Properties will be evaluated at   0.000000,   0.000000,   0.000000 [a0]

Properties computed using the SCF density matrix

 Multipole Moments:

 ------------------------------------------------------------------------------------
     Multipole            Electronic (a.u.)      Nuclear  (a.u.)        Total (a.u.)
 ------------------------------------------------------------------------------------

 L = 1.  Multiply by 2.5417464519 to convert [e a0] to [Debye]
 Dipole X            :          0.0000000            0.0000000            0.0000000
 Dipole Y            :          0.0000000            0.0000000            0.0000000
 Dipole Z            :         -1.9379432            1.9378969           -0.0000462
 Magnitude           :                                                    0.0000462

 ------------------------------------------------------------------------------------

*** tstop() called on Joses-MacBook-Pro-2.local at Wed Jul 16 20:01:51 2025
Module time:
	user time   =       6.40 seconds =       0.11 minutes
	system time =       3.07 seconds =       0.05 minutes
	total time  =          1 seconds =       0.02 minutes
Total time:
	user time   =     416.20 seconds =       6.94 minutes
	system time =     177.71 seconds =       2.96 minutes
	total time  =         57 seconds =       0.95 minutes

*** tstart() called on Joses-MacBook-Pro-2.local
*** at Wed Jul 16 20:01:51 2025

         ------------------------------------------------------------
                                   SCF GRAD
                          Rob Parrish, Justin Turney,
                       Andy Simmonett, and Alex Sokolov
         ------------------------------------------------------------

  ==> Geometry <==

    Molecular point group: c2v
    Full point group: C_inf_v

    Geometry (in Angstrom), charge = 0, multiplicity = 4:

       Center              X                  Y                   Z               Mass
    ------------   -----------------  -----------------  -----------------  -----------------
         MG           0.000000000000     0.000000000000     3.018405735006    23.985041697000
         CL           0.000000000000     0.000000000000    -2.070316348979    34.968852682000

  Nuclear repulsion =   21.214000135011378

  ==> Basis Set <==

  Basis Set: CC-PVDZ
    Blend: CC-PVDZ
    Number of shells: 16
    Number of basis functions: 36
    Number of Cartesian functions: 38
    Spherical Harmonics?: true
    Max angular momentum: 2

  ==> DFJKGrad: Density-Fitted SCF Gradients <==

    Gradient:                    1
    J tasked:                  Yes
    K tasked:                  Yes
    wK tasked:                  No
    OpenMP threads:              1
    Integrals threads:           1
    Memory [MiB]:              375
    Schwarz Cutoff:          1E-12
    Fitting Condition:       1E-10

   => Auxiliary Basis Set <=

  Basis Set: (CC-PVDZ AUX)
    Blend: CC-PVDZ-JKFIT + DEF2-UNIVERSAL-JKFIT
    Number of shells: 70
    Number of basis functions: 224
    Number of Cartesian functions: 267
    Spherical Harmonics?: true
    Max angular momentum: 4

  ==> DFT Potential <==

   => LibXC <=

    Version 6.2.2
    S. Lehtola, C. Steigemann, M. J.T. Oliveira, and M. A.L. Marques.,  SoftwareX 7, 1â€“5 (2018) (10.1016/j.softx.2017.11.002)

   => Composite Functional: B3LYP <=

    B3LYP Hyb-GGA Exchange-Correlation Functional

    P. J. Stephens, F. J. Devlin, C. F. Chabalowski, and M. J. Frisch.,  J. Phys. Chem. 98, 11623 (1994) (10.1021/j100096a001)

    Deriv               =              1
    GGA                 =           TRUE
    Meta                =          FALSE

    Exchange Hybrid     =           TRUE
    MP2 Hybrid          =          FALSE

   => Exchange Functionals <=

    0.0800   Slater exchange
    0.7200         Becke 88

   => Exact (HF) Exchange <=

    0.2000               HF

   => Correlation Functionals <=

    0.1900   Vosko, Wilk & Nusair (VWN5_RPA)
    0.8100   Lee, Yang & Parr

   => LibXC Density Thresholds  <==

    XC_HYB_GGA_XC_B3LYP:  1.00E-15

   => Molecular Quadrature <=

    Radial Scheme          =       TREUTLER
    Pruning Scheme         =           NONE
    Nuclear Scheme         =       TREUTLER

    Blocking Scheme        =         OCTREE
    BS radius alpha        =              1
    Pruning alpha          =              1
    Radial Points          =             75
    Spherical Points       =            302
    Total Points           =          43159
    Total Blocks           =            449
    Max Points             =            256
    Max Functions          =             36
    Weights Tolerance      =       1.00E-15

  -Total Gradient:
     Atom            X                  Y                   Z
    ------   -----------------  -----------------  -----------------
       1        0.000000000000     0.000000000000    -0.000263496086
       2       -0.000000000000     0.000000000000     0.000255155279

*** tstop() called on Joses-MacBook-Pro-2.local at Wed Jul 16 20:01:51 2025
Module time:
	user time   =       2.15 seconds =       0.04 minutes
	system time =       1.58 seconds =       0.03 minutes
	total time  =          0 seconds =       0.00 minutes
Total time:
	user time   =     418.36 seconds =       6.97 minutes
	system time =     179.29 seconds =       2.99 minutes
	total time  =         57 seconds =       0.95 minutes

    			-----------------------------------------

    			 OPTKING 3.0: for geometry optimizations

    			     By R.A. King, Bethel University

    			        with contributions from

    			    A.V. Copan, J. Cayton, A. Heide

    			-----------------------------------------

	                            ===> Fragment 1 <==

	 Z (Atomic Numbers)          Masses                          Geom
	      12.000000            23.985042          0.00000000  0.00000000  5.70396017
	      17.000000            34.968853          0.00000000  0.00000000 -3.91233089

	 - Coordinate -           - BOHR/RAD -       - ANG/DEG -
	 R(1,2)           =         9.616291           5.088722

	        --- Internal Coordinate Step in ANG or DEG, aJ/ANG or AJ/DEG ---
	-------------------------------------------------------------------------------
	           Coordinate      Previous         Force          Change          New
	           ----------      --------        ------          ------        ------
	               R(1,2)       5.08872        0.00214        0.00046       5.08918
	-------------------------------------------------------------------------------

	                                 ==> Convergence Check <==

	Measures of convergence in internal coordinates in au.

	Criteria marked as inactive (o), active & met (*), and active & unmet ( ).

	----------------------------------------------------------------------------------------------
	   Step    Total Energy     Delta E     Max Force     RMS Force      Max Disp      RMS Disp
	----------------------------------------------------------------------------------------------
	  Convergence Criteria     1.00e-06 *    3.00e-04 *             o    1.20e-03 *             o
	----------------------------------------------------------------------------------------------
	    43    -660.14644263   -2.27e-04      2.59e-04 *    2.59e-04 o    8.68e-04 *    8.68e-04 o  ~
	----------------------------------------------------------------------------------------------

Next Geometry in Ang
	Fragment 1 (Ang)

	   Mg   0.0000000000   0.0000000000   3.0186354034
	   Cl   0.0000000000   0.0000000000  -2.0705460174

    Final optimized geometry and variables:
    Molecular point group: c2v
    Full point group: C_inf_v

    Geometry (in Angstrom), charge = 0, multiplicity = 4:

    MG           0.000000000000     0.000000000000     3.018405735006
    CL           0.000000000000     0.000000000000    -2.070316348979

    Psi4 stopped on: Wednesday, 16 July 2025 08:01PM
    Psi4 wall time for execution: 0:00:57.96

*** Psi4 exiting successfully. Buy a developer a beer!
