                               Psi4 1.9.1 release

  ==> Input File <==

--------------------------------------------------------------------------
molecule {
0 4
C   0.00000        0.60000        0.00000
P   0.00000       -0.60000        0.00000
}

set {
basis              cc-pvdz
reference          uks
maxiter            500
geom_maxiter       500
DAMPING_PERCENTAGE 1
guess              SAP
}

optimize('b3lyp')
--------------------------------------------------------------------------

    Molecular point group: c2v
  Charge       = 0
  Multiplicity = 4
  Basis Set: CC-PVDZ
    Blend: CC-PVDZ
  Basis Set: (CC-PVDZ AUX)
    Blend: CC-PVDZ-JKFIT
  @DF-UKS Final Energy:  -378.81236313965724
    Total Energy =                       -378.8123631396571795
 Dipole X            :          0.0000000            0.0000000            0.0000000
 Dipole Y            :          0.0000000            0.0000000            0.0000000
 Dipole Z            :         -0.0881877            0.3083052            0.2201175
 Magnitude           :                                                    0.2201175
    Molecular point group: c2v
  Basis Set: CC-PVDZ
    Blend: CC-PVDZ
  Basis Set: (CC-PVDZ AUX)
    Blend: CC-PVDZ-JKFIT
  Basis Set: CC-PVDZ
    Blend: CC-PVDZ
  Basis Set: (CC-PVDZ AUX)
    Blend: CC-PVDZ-JKFIT
  @DF-UKS Final Energy:  -379.05486928529757
    Total Energy =                       -379.0548692852975705
  Basis Set: CC-PVDZ
    Blend: CC-PVDZ
  Basis Set: (CC-PVDZ AUX)
    Blend: CC-PVDZ-JKFIT
  Basis Set: CC-PVDZ
    Blend: CC-PVDZ
  @DF-UKS Final Energy:  -379.15541745868171
    Total Energy =                       -379.1554174586817680
  @DF-UKS Final Energy:  -379.19626056164765
    Total Energy =                       -379.1962605616476480
  @DF-UKS Final Energy:  -379.20709050243306
    Total Energy =                       -379.2070905024330614
  @DF-UKS Final Energy:  -379.21152331955864
    Total Energy =                       -379.2115233195586370
  @DF-UKS Final Energy:  -379.21251568935043
    Total Energy =                       -379.2125156893504254
  @DF-UKS Final Energy:  -379.21276835372345
    Total Energy =                       -379.2127683537234475
  @DF-UKS Final Energy:  -379.21285156943833
    Total Energy =                       -379.2128515694383282
  Basis Set: (CC-PVDZ AUX)
    Blend: CC-PVDZ-JKFIT
  Basis Set: CC-PVDZ
    Blend: CC-PVDZ
  Basis Set: (CC-PVDZ AUX)
    Blend: CC-PVDZ-JKFIT
  @DF-UKS Final Energy:  -379.21286355620714
    Total Energy =                       -379.2128635562071395
  Basis Set: CC-PVDZ
    Blend: CC-PVDZ
  Basis Set: (CC-PVDZ AUX)
    Blend: CC-PVDZ-JKFIT
  Charge       = 0
  Multiplicity = 4
  Basis Set: CC-PVDZ
    Blend: CC-PVDZ
  Basis Set: (CC-PVDZ AUX)
    Blend: CC-PVDZ-JKFIT

    Orbital Energies [Eh]
    ---------------------

    Alpha Occupied:

       1A1   -77.136047     2A1   -10.279143     3A1    -6.602910
       1B2    -4.768025     4A1    -4.765907     1B1    -4.759970
       5A1    -0.728913     6A1    -0.499841     7A1    -0.335748
       2B2    -0.335311     2B1    -0.292171     3B2    -0.188647

    Alpha Virtual:

       3B1    -0.095762     8A1     0.063353     9A1     0.335619
       4B2     0.381240     4B1     0.400626    10A1     0.406232
      11A1     0.415326     1A2     0.439476    12A1     0.442130
       5B2     0.448942     5B1     0.479557     6B2     0.512402
       6B1     0.532555    13A1     0.816153    14A1     0.852424
       2A2     1.130879    15A1     1.132505     7B2     1.308727
       7B1     1.329382    16A1     1.697486

    Beta Occupied:

       1A1   -77.131032     2A1   -10.250076     3A1    -6.597615
       1B1    -4.759190     4A1    -4.758414     1B2    -4.752481
       5A1    -0.658466     6A1    -0.411262     2B1    -0.268697

    Beta Virtual:

       7A1    -0.173771     2B2    -0.173456     3B1    -0.061153
       3B2    -0.016075     8A1     0.102866     9A1     0.359731
       4B1     0.404192     4B2     0.426624    10A1     0.445129
      11A1     0.472290     1A2     0.481958    12A1     0.487653
       5B1     0.509503     5B2     0.542165     6B1     0.551383
       6B2     0.574190    13A1     0.862373    14A1     0.902882
       2A2     1.210941    15A1     1.213369     7B1     1.385866
       7B2     1.414063    16A1     1.772967

    Final Occupation by Irrep:
             A1    A2    B1    B2
    DOCC [     6,    0,    2,    1 ]
    SOCC [     1,    0,    0,    2 ]
    NA   [     7,    0,    2,    3 ]
    NB   [     6,    0,    2,    1 ]

  @DF-UKS Final Energy:  -379.21286434481402

   => Energetics <=

    Nuclear Repulsion Energy =             27.2990730983426495
    One-Electron Energy =                -576.3493877354428605
    Two-Electron Energy =                 192.8148137122302614
    DFT Exchange-Correlation Energy =     -22.9773634199441084
    Empirical Dispersion Energy =           0.0000000000000000
    VV10 Nonlocal Energy =                  0.0000000000000000
    Total Energy =                       -379.2128643448140224

  UHF NO Occupations:
  HONO-2 :    2 B2 1.0000000
  HONO-1 :    7 A1 1.0000000
  HONO-0 :    3 B2 1.0000000
  LUNO+0 :    3 B1 0.0148278
  LUNO+1 :    8 A1 0.0015784
  LUNO+2 :    9 A1 0.0006304
  LUNO+3 :   10 A1 0.0000002

Computation Completed

Properties will be evaluated at   0.000000,   0.000000,   0.000000 [a0]

Properties computed using the SCF density matrix

 Multipole Moments:

 ------------------------------------------------------------------------------------
     Multipole            Electronic (a.u.)      Nuclear  (a.u.)        Total (a.u.)
 ------------------------------------------------------------------------------------

 L = 1.  Multiply by 2.5417464519 to convert [e a0] to [Debye]
 Dipole X            :          0.0000000            0.0000000            0.0000000
 Dipole Y            :          0.0000000            0.0000000            0.0000000
 Dipole Z            :         -0.7067040            0.4482242           -0.2584798
 Magnitude           :                                                    0.2584798

 ------------------------------------------------------------------------------------

*** tstop() called on Joses-MacBook-Pro-2.local at Wed Jul 16 19:04:35 2025
Module time:
	user time   =       3.90 seconds =       0.06 minutes
	system time =       4.35 seconds =       0.07 minutes
	total time  =          1 seconds =       0.02 minutes
Total time:
	user time   =      59.23 seconds =       0.99 minutes
	system time =      72.35 seconds =       1.21 minutes
	total time  =         13 seconds =       0.22 minutes

*** tstart() called on Joses-MacBook-Pro-2.local
*** at Wed Jul 16 19:04:35 2025

         ------------------------------------------------------------
                                   SCF GRAD
                          Rob Parrish, Justin Turney,
                       Andy Simmonett, and Alex Sokolov
         ------------------------------------------------------------

  ==> Geometry <==

    Molecular point group: c2v
    Full point group: C_inf_v

    Geometry (in Angstrom), charge = 0, multiplicity = 4:

       Center              X                  Y                   Z               Mass
    ------------   -----------------  -----------------  -----------------  -----------------
         C            0.000000000000     0.000000000000     1.257437255255    12.000000000000
         P            0.000000000000     0.000000000000    -0.487162233113    30.973761998420

  Nuclear repulsion =   27.299073098342650

  ==> Basis Set <==

  Basis Set: CC-PVDZ
    Blend: CC-PVDZ
    Number of shells: 14
    Number of basis functions: 32
    Number of Cartesian functions: 34
    Spherical Harmonics?: true
    Max angular momentum: 2

  ==> DFJKGrad: Density-Fitted SCF Gradients <==

    Gradient:                    1
    J tasked:                  Yes
    K tasked:                  Yes
    wK tasked:                  No
    OpenMP threads:              1
    Integrals threads:           1
    Memory [MiB]:              375
    Schwarz Cutoff:          1E-12
    Fitting Condition:       1E-10

   => Auxiliary Basis Set <=

  Basis Set: (CC-PVDZ AUX)
    Blend: CC-PVDZ-JKFIT
    Number of shells: 60
    Number of basis functions: 182
    Number of Cartesian functions: 211
    Spherical Harmonics?: true
    Max angular momentum: 3

  ==> DFT Potential <==

   => LibXC <=

    Version 6.2.2
    S. Lehtola, C. Steigemann, M. J.T. Oliveira, and M. A.L. Marques.,  SoftwareX 7, 1â€“5 (2018) (10.1016/j.softx.2017.11.002)

   => Composite Functional: B3LYP <=

    B3LYP Hyb-GGA Exchange-Correlation Functional

    P. J. Stephens, F. J. Devlin, C. F. Chabalowski, and M. J. Frisch.,  J. Phys. Chem. 98, 11623 (1994) (10.1021/j100096a001)

    Deriv               =              1
    GGA                 =           TRUE
    Meta                =          FALSE

    Exchange Hybrid     =           TRUE
    MP2 Hybrid          =          FALSE

   => Exchange Functionals <=

    0.0800   Slater exchange
    0.7200         Becke 88

   => Exact (HF) Exchange <=

    0.2000               HF

   => Correlation Functionals <=

    0.1900   Vosko, Wilk & Nusair (VWN5_RPA)
    0.8100   Lee, Yang & Parr

   => LibXC Density Thresholds  <==

    XC_HYB_GGA_XC_B3LYP:  1.00E-15

   => Molecular Quadrature <=

    Radial Scheme          =       TREUTLER
    Pruning Scheme         =           NONE
    Nuclear Scheme         =       TREUTLER

    Blocking Scheme        =         OCTREE
    BS radius alpha        =              1
    Pruning alpha          =              1
    Radial Points          =             75
    Spherical Points       =            302
    Total Points           =          41911
    Total Blocks           =            378
    Max Points             =            256
    Max Functions          =             32
    Weights Tolerance      =       1.00E-15

  -Total Gradient:
     Atom            X                  Y                   Z
    ------   -----------------  -----------------  -----------------
       1        0.000000000000     0.000000000000    -0.000095277666
       2        0.000000000000    -0.000000000000     0.000080018707

*** tstop() called on Joses-MacBook-Pro-2.local at Wed Jul 16 19:04:36 2025
Module time:
	user time   =       1.32 seconds =       0.02 minutes
	system time =       1.49 seconds =       0.02 minutes
	total time  =          1 seconds =       0.02 minutes
Total time:
	user time   =      60.56 seconds =       1.01 minutes
	system time =      73.84 seconds =       1.23 minutes
	total time  =         14 seconds =       0.23 minutes

    			-----------------------------------------

    			 OPTKING 3.0: for geometry optimizations

    			     By R.A. King, Bethel University

    			        with contributions from

    			    A.V. Copan, J. Cayton, A. Heide

    			-----------------------------------------

	                            ===> Fragment 1 <==

	 Z (Atomic Numbers)          Masses                          Geom
	       6.000000            12.000000          0.00000000  0.00000000  2.37621203
	      15.000000            30.973762          0.00000000  0.00000000 -0.92060320

	 - Coordinate -           - BOHR/RAD -       - ANG/DEG -
	 R(1,2)           =         3.296815           1.744599

	        --- Internal Coordinate Step in ANG or DEG, aJ/ANG or AJ/DEG ---
	-------------------------------------------------------------------------------
	           Coordinate      Previous         Force          Change          New
	           ----------      --------        ------          ------        ------
	               R(1,2)       1.74460        0.00072        0.00017       1.74477
	-------------------------------------------------------------------------------

	                                 ==> Convergence Check <==

	Measures of convergence in internal coordinates in au.

	Criteria marked as inactive (o), active & met (*), and active & unmet ( ).

	----------------------------------------------------------------------------------------------
	   Step    Total Energy     Delta E     Max Force     RMS Force      Max Disp      RMS Disp
	----------------------------------------------------------------------------------------------
	  Convergence Criteria     1.00e-06 *    3.00e-04 *             o    1.20e-03 *             o
	----------------------------------------------------------------------------------------------
	    11    -379.21286434   -7.89e-07 *    8.76e-05 *    8.76e-05 o    3.24e-04 *    3.24e-04 o  ~
	----------------------------------------------------------------------------------------------

Next Geometry in Ang
	Fragment 1 (Ang)

	    C   0.0000000000   0.0000000000   1.2575228761
	    P   0.0000000000   0.0000000000  -0.4872478539

    Final optimized geometry and variables:
    Molecular point group: c2v
    Full point group: C_inf_v

    Geometry (in Angstrom), charge = 0, multiplicity = 4:

    C            0.000000000000     0.000000000000     1.257437255255
    P            0.000000000000     0.000000000000    -0.487162233113

    Psi4 stopped on: Wednesday, 16 July 2025 07:04PM
    Psi4 wall time for execution: 0:00:14.23

*** Psi4 exiting successfully. Buy a developer a beer!
