                               Psi4 1.9.1 release

  ==> Input File <==

--------------------------------------------------------------------------
molecule {
0 4
Ne   0.00000        0.60000        0.00000
Al   0.00000       -0.60000        0.00000
}

set {
basis              cc-pvdz
reference          uks
maxiter            500
geom_maxiter       500
DAMPING_PERCENTAGE 1
guess              SAP
}

optimize('b3lyp')
--------------------------------------------------------------------------

    Molecular point group: c2v
  Charge       = 0
  Multiplicity = 4
  Basis Set: CC-PVDZ
    Blend: CC-PVDZ
  Basis Set: (CC-PVDZ AUX)
    Blend: CC-PVDZ-JKFIT
  @DF-UKS Final Energy:  -370.70929304544677
    Total Energy =                       -370.7092930454467705
 Dipole X            :          0.0000000            0.0000000            0.0000000
 Dipole Y            :          0.0000000            0.0000000            0.0000000
 Dipole Z            :          0.4882097            0.4785826            0.9667923
 Magnitude           :                                                    0.9667923
    Molecular point group: c2v
  Basis Set: CC-PVDZ
    Blend: CC-PVDZ
  Basis Set: (CC-PVDZ AUX)
    Blend: CC-PVDZ-JKFIT
  Basis Set: CC-PVDZ
    Blend: CC-PVDZ
  Basis Set: (CC-PVDZ AUX)
    Blend: CC-PVDZ-JKFIT
  @DF-UKS Final Energy:  -370.92313715638107
    Total Energy =                       -370.9231371563810171
  Basis Set: CC-PVDZ
    Blend: CC-PVDZ
  Basis Set: (CC-PVDZ AUX)
    Blend: CC-PVDZ-JKFIT
  Basis Set: CC-PVDZ
    Blend: CC-PVDZ
  @DF-UKS Final Energy:  -371.03443764525650
    Total Energy =                       -371.0344376452565029
  @DF-UKS Final Energy:  -371.09676212750844
    Total Energy =                       -371.0967621275084412
  @DF-UKS Final Energy:  -371.12930704690757
    Total Energy =                       -371.1293070469075133
  @DF-UKS Final Energy:  -371.14568899564682
    Total Energy =                       -371.1456889956467649
  @DF-UKS Final Energy:  -371.15360696748894
    Total Energy =                       -371.1536069674889404
  @DF-UKS Final Energy:  -371.15722255755219
    Total Energy =                       -371.1572225575521884
  @DF-UKS Final Energy:  -371.15840745788950
    Total Energy =                       -371.1584074578894956
  @DF-UKS Final Energy:  -371.15903729548205
    Total Energy =                       -371.1590372954821078
  @DF-UKS Final Energy:  -371.15928592701943
    Total Energy =                       -371.1592859270194253
  @DF-UKS Final Energy:  -371.15934137275030
    Total Energy =                       -371.1593413727503048
  @DF-UKS Final Energy:  -371.15935542779994
    Total Energy =                       -371.1593554277999374
  Basis Set: (CC-PVDZ AUX)
    Blend: CC-PVDZ-JKFIT
  Basis Set: CC-PVDZ
    Blend: CC-PVDZ
  Basis Set: (CC-PVDZ AUX)
    Blend: CC-PVDZ-JKFIT
  @DF-UKS Final Energy:  -371.15935957107433
    Total Energy =                       -371.1593595710742761
  Basis Set: CC-PVDZ
    Blend: CC-PVDZ
  Basis Set: (CC-PVDZ AUX)
    Blend: CC-PVDZ-JKFIT
  Charge       = 0
  Multiplicity = 4
  Basis Set: CC-PVDZ
    Blend: CC-PVDZ
  Basis Set: (CC-PVDZ AUX)
    Blend: CC-PVDZ-JKFIT

    Orbital Energies [Eh]
    ---------------------

    Alpha Occupied:

       1A1   -56.114490     2A1   -31.044721     3A1    -4.194749
       4A1    -2.750207     1B2    -2.746290     1B1    -2.746290
       5A1    -1.506089     6A1    -0.625015     2B2    -0.610705
       2B1    -0.610705     7A1    -0.359210     3B1    -0.157253
       3B2    -0.157253

    Alpha Virtual:

       8A1    -0.080486     9A1     0.145934     4B1     0.192324
       4B2     0.192324    10A1     0.197526     1A2     0.224512
      11A1     0.224515     5B2     0.230663     5B1     0.230663
      12A1     0.280292     6B2     1.337351     6B1     1.337351
      13A1     1.405511    14A1     2.031498     7B1     4.652286
       7B2     4.652286     2A2     4.655068    15A1     4.655105
      16A1     4.657907

    Beta Occupied:

       1A1   -56.105436     2A1   -31.043464     3A1    -4.181581
       4A1    -2.742489     1B2    -2.731226     1B1    -2.731226
       5A1    -1.503771     6A1    -0.620498     2B2    -0.608941
       2B1    -0.608941

    Beta Virtual:

       7A1    -0.200129     8A1    -0.029562     3B1    -0.016565
       3B2    -0.016565     9A1     0.187857    10A1     0.226474
       4B1     0.251870     4B2     0.251870     5B2     0.309409
       5B1     0.309409    11A1     0.336901     1A2     0.339581
      12A1     0.339594     6B2     1.339800     6B1     1.339800
      13A1     1.409299    14A1     2.037379     7B1     4.654485
       7B2     4.654485     2A2     4.656366    15A1     4.656403
      16A1     4.660440

    Final Occupation by Irrep:
             A1    A2    B1    B2
    DOCC [     6,    0,    2,    2 ]
    SOCC [     1,    0,    1,    1 ]
    NA   [     7,    0,    3,    3 ]
    NB   [     6,    0,    2,    2 ]

  @DF-UKS Final Energy:  -371.15936017883735

   => Energetics <=

    Nuclear Repulsion Energy =             28.1442210344797097
    One-Electron Energy =                -574.1965036259848603
    Two-Electron Energy =                 199.9708310699290905
    DFT Exchange-Correlation Energy =     -25.0779086572613288
    Empirical Dispersion Energy =           0.0000000000000000
    VV10 Nonlocal Energy =                  0.0000000000000000
    Total Energy =                       -371.1593601788373462

  UHF NO Occupations:
  HONO-2 :    3 B1 1.0000000
  HONO-1 :    3 B2 1.0000000
  HONO-0 :    7 A1 1.0000000
  LUNO+0 :    8 A1 0.0000224
  LUNO+1 :    4 B2 0.0000022
  LUNO+2 :    4 B1 0.0000022
  LUNO+3 :    9 A1 0.0000008

Computation Completed

Properties will be evaluated at   0.000000,   0.000000,   0.000000 [a0]

Properties computed using the SCF density matrix

 Multipole Moments:

 ------------------------------------------------------------------------------------
     Multipole            Electronic (a.u.)      Nuclear  (a.u.)        Total (a.u.)
 ------------------------------------------------------------------------------------

 L = 1.  Multiply by 2.5417464519 to convert [e a0] to [Debye]
 Dipole X            :          0.0000000            0.0000000            0.0000000
 Dipole Y            :          0.0000000            0.0000000            0.0000000
 Dipole Z            :         -0.6748458            0.9748346            0.2999888
 Magnitude           :                                                    0.2999888

 ------------------------------------------------------------------------------------

*** tstop() called on Joses-MacBook-Pro-2.local at Wed Jul 16 19:34:39 2025
Module time:
	user time   =       3.17 seconds =       0.05 minutes
	system time =       2.66 seconds =       0.04 minutes
	total time  =          0 seconds =       0.00 minutes
Total time:
	user time   =      69.36 seconds =       1.16 minutes
	system time =      75.20 seconds =       1.25 minutes
	total time  =         14 seconds =       0.23 minutes

*** tstart() called on Joses-MacBook-Pro-2.local
*** at Wed Jul 16 19:34:39 2025

         ------------------------------------------------------------
                                   SCF GRAD
                          Rob Parrish, Justin Turney,
                       Andy Simmonett, and Alex Sokolov
         ------------------------------------------------------------

  ==> Geometry <==

    Molecular point group: c2v
    Full point group: C_inf_v

    Geometry (in Angstrom), charge = 0, multiplicity = 4:

       Center              X                  Y                   Z               Mass
    ------------   -----------------  -----------------  -----------------  -----------------
         NE           0.000000000000     0.000000000000     1.403991943768    19.992440176200
         AL           0.000000000000     0.000000000000    -1.040312245814    26.981538530000

  Nuclear repulsion =   28.144221034479710

  ==> Basis Set <==

  Basis Set: CC-PVDZ
    Blend: CC-PVDZ
    Number of shells: 14
    Number of basis functions: 32
    Number of Cartesian functions: 34
    Spherical Harmonics?: true
    Max angular momentum: 2

  ==> DFJKGrad: Density-Fitted SCF Gradients <==

    Gradient:                    1
    J tasked:                  Yes
    K tasked:                  Yes
    wK tasked:                  No
    OpenMP threads:              1
    Integrals threads:           1
    Memory [MiB]:              375
    Schwarz Cutoff:          1E-12
    Fitting Condition:       1E-10

   => Auxiliary Basis Set <=

  Basis Set: (CC-PVDZ AUX)
    Blend: CC-PVDZ-JKFIT
    Number of shells: 60
    Number of basis functions: 182
    Number of Cartesian functions: 211
    Spherical Harmonics?: true
    Max angular momentum: 3

  ==> DFT Potential <==

   => LibXC <=

    Version 6.2.2
    S. Lehtola, C. Steigemann, M. J.T. Oliveira, and M. A.L. Marques.,  SoftwareX 7, 1â€“5 (2018) (10.1016/j.softx.2017.11.002)

   => Composite Functional: B3LYP <=

    B3LYP Hyb-GGA Exchange-Correlation Functional

    P. J. Stephens, F. J. Devlin, C. F. Chabalowski, and M. J. Frisch.,  J. Phys. Chem. 98, 11623 (1994) (10.1021/j100096a001)

    Deriv               =              1
    GGA                 =           TRUE
    Meta                =          FALSE

    Exchange Hybrid     =           TRUE
    MP2 Hybrid          =          FALSE

   => Exchange Functionals <=

    0.0800   Slater exchange
    0.7200         Becke 88

   => Exact (HF) Exchange <=

    0.2000               HF

   => Correlation Functionals <=

    0.1900   Vosko, Wilk & Nusair (VWN5_RPA)
    0.8100   Lee, Yang & Parr

   => LibXC Density Thresholds  <==

    XC_HYB_GGA_XC_B3LYP:  1.00E-15

   => Molecular Quadrature <=

    Radial Scheme          =       TREUTLER
    Pruning Scheme         =           NONE
    Nuclear Scheme         =       TREUTLER

    Blocking Scheme        =         OCTREE
    BS radius alpha        =              1
    Pruning alpha          =              1
    Radial Points          =             75
    Spherical Points       =            302
    Total Points           =          43492
    Total Blocks           =            398
    Max Points             =            255
    Max Functions          =             32
    Weights Tolerance      =       1.00E-15

  -Total Gradient:
     Atom            X                  Y                   Z
    ------   -----------------  -----------------  -----------------
       1        0.000000000000     0.000000000000    -0.000036137860
       2        0.000000000000     0.000000000000     0.000037031497

*** tstop() called on Joses-MacBook-Pro-2.local at Wed Jul 16 19:34:40 2025
Module time:
	user time   =       1.36 seconds =       0.02 minutes
	system time =       0.89 seconds =       0.01 minutes
	total time  =          1 seconds =       0.02 minutes
Total time:
	user time   =      70.72 seconds =       1.18 minutes
	system time =      76.09 seconds =       1.27 minutes
	total time  =         15 seconds =       0.25 minutes

    			-----------------------------------------

    			 OPTKING 3.0: for geometry optimizations

    			     By R.A. King, Bethel University

    			        with contributions from

    			    A.V. Copan, J. Cayton, A. Heide

    			-----------------------------------------

	                            ===> Fragment 1 <==

	 Z (Atomic Numbers)          Masses                          Geom
	      10.000000            19.992440          0.00000000  0.00000000  2.65316026
	      13.000000            26.981539          0.00000000  0.00000000 -1.96590523

	 - Coordinate -           - BOHR/RAD -       - ANG/DEG -
	 R(1,2)           =         4.619065           2.444304

	        --- Internal Coordinate Step in ANG or DEG, aJ/ANG or AJ/DEG ---
	-------------------------------------------------------------------------------
	           Coordinate      Previous         Force          Change          New
	           ----------      --------        ------          ------        ------
	               R(1,2)       2.44430        0.00030        0.00191       2.44621
	-------------------------------------------------------------------------------

	                                 ==> Convergence Check <==

	Measures of convergence in internal coordinates in au.

	Criteria marked as inactive (o), active & met (*), and active & unmet ( ).

	----------------------------------------------------------------------------------------------
	   Step    Total Energy     Delta E     Max Force     RMS Force      Max Disp      RMS Disp
	----------------------------------------------------------------------------------------------
	  Convergence Criteria     1.00e-06 *    3.00e-04 *             o    1.20e-03 *             o
	----------------------------------------------------------------------------------------------
	    15    -371.15936018   -6.08e-07 *    3.66e-05 *    3.66e-05 o    3.60e-03      3.60e-03 o  ~
	----------------------------------------------------------------------------------------------

Next Geometry in Ang
	Fragment 1 (Ang)

	   Ne   0.0000000000   0.0000000000   1.4049447888
	   Al   0.0000000000   0.0000000000  -1.0412650908

    Final optimized geometry and variables:
    Molecular point group: c2v
    Full point group: C_inf_v

    Geometry (in Angstrom), charge = 0, multiplicity = 4:

    NE           0.000000000000     0.000000000000     1.403991943768
    AL           0.000000000000     0.000000000000    -1.040312245814

    Psi4 stopped on: Wednesday, 16 July 2025 07:34PM
    Psi4 wall time for execution: 0:00:14.79

*** Psi4 exiting successfully. Buy a developer a beer!
