                               Psi4 1.9.1 release

  ==> Input File <==

--------------------------------------------------------------------------
molecule {
0 4
Be   0.00000        0.60000        0.00000
Cl   0.00000       -0.60000        0.00000
}

set {
basis              cc-pvdz
reference          uks
maxiter            500
geom_maxiter       500
DAMPING_PERCENTAGE 1
guess              SAP
}

optimize('b3lyp')
--------------------------------------------------------------------------

    Molecular point group: c2v
  Charge       = 0
  Multiplicity = 4
  Basis Set: CC-PVDZ
    Blend: CC-PVDZ
  Basis Set: (CC-PVDZ AUX)
    Blend: CC-PVDZ-JKFIT + DEF2-UNIVERSAL-JKFIT
  @DF-UKS Final Energy:  -474.19983885316566
    Total Energy =                       -474.1998388531656587
 Dipole X            :          0.0000000            0.0000000            0.0000000
 Dipole Y            :          0.0000000            0.0000000            0.0000000
 Dipole Z            :         -1.2548889           -0.6873853           -1.9422742
 Magnitude           :                                                    1.9422742
    Molecular point group: c2v
  Basis Set: CC-PVDZ
    Blend: CC-PVDZ
  Basis Set: (CC-PVDZ AUX)
    Blend: CC-PVDZ-JKFIT + DEF2-UNIVERSAL-JKFIT
  Basis Set: CC-PVDZ
    Blend: CC-PVDZ
  Basis Set: (CC-PVDZ AUX)
    Blend: CC-PVDZ-JKFIT + DEF2-UNIVERSAL-JKFIT
  @DF-UKS Final Energy:  -474.39832733510411
    Total Energy =                       -474.3983273351041134
  Basis Set: CC-PVDZ
    Blend: CC-PVDZ
  Basis Set: (CC-PVDZ AUX)
    Blend: CC-PVDZ-JKFIT + DEF2-UNIVERSAL-JKFIT
  Basis Set: CC-PVDZ
    Blend: CC-PVDZ
  @DF-UKS Final Energy:  -474.53241092081106
    Total Energy =                       -474.5324109208110599
  @DF-UKS Final Energy:  -474.61166360212627
    Total Energy =                       -474.6116636021262707
  @DF-UKS Final Energy:  -474.65676658625381
    Total Energy =                       -474.6567665862537524
  @DF-UKS Final Energy:  -474.68455121382550
    Total Energy =                       -474.6845512138255572
  @DF-UKS Final Energy:  -474.70354900111795
    Total Energy =                       -474.7035490011179490
  @DF-UKS Final Energy:  -474.71725901396064
    Total Energy =                       -474.7172590139606427
  @DF-UKS Final Energy:  -474.72642175038118
    Total Energy =                       -474.7264217503811778
  @DF-UKS Final Energy:  -474.72688049601612
    Total Energy =                       -474.7268804960160651
  @DF-UKS Final Energy:  -474.73243311129033
    Total Energy =                       -474.7324331112903337
  @DF-UKS Final Energy:  -474.73257436402690
    Total Energy =                       -474.7325743640269025
  @DF-UKS Final Energy:  -474.73529487173721
    Total Energy =                       -474.7352948717372669
  @DF-UKS Final Energy:  -474.73533656471591
    Total Energy =                       -474.7353365647159080
  @DF-UKS Final Energy:  -474.73669055068956
    Total Energy =                       -474.7366905506895591
  @DF-UKS Final Energy:  -474.73670283693968
    Total Energy =                       -474.7367028369396849
  @DF-UKS Final Energy:  -474.73740233651779
    Total Energy =                       -474.7374023365177322
  @DF-UKS Final Energy:  -474.73740603969554
    Total Energy =                       -474.7374060396955429
  @DF-UKS Final Energy:  -474.73740970971460
    Total Energy =                       -474.7374097097145977
  @DF-UKS Final Energy:  -474.73741334798723
    Total Energy =                       -474.7374133479872285
  @DF-UKS Final Energy:  -474.73778268552360
    Total Energy =                       -474.7377826855235412
  @DF-UKS Final Energy:  -474.73778384436724
    Total Energy =                       -474.7377838443672431
  @DF-UKS Final Energy:  -474.73778499786658
    Total Energy =                       -474.7377849978665267
  @DF-UKS Final Energy:  -474.73778614587417
    Total Energy =                       -474.7377861458741677
  @DF-UKS Final Energy:  -474.73778728842444
    Total Energy =                       -474.7377872884244425
  @DF-UKS Final Energy:  -474.73778842555515
    Total Energy =                       -474.7377884255552090
  @DF-UKS Final Energy:  -474.73778955728920
    Total Energy =                       -474.7377895572892044
  Basis Set: (CC-PVDZ AUX)
    Blend: CC-PVDZ-JKFIT + DEF2-UNIVERSAL-JKFIT
  Basis Set: CC-PVDZ
    Blend: CC-PVDZ
  Basis Set: (CC-PVDZ AUX)
    Blend: CC-PVDZ-JKFIT + DEF2-UNIVERSAL-JKFIT
  @DF-UKS Final Energy:  -474.73799886682980
    Total Energy =                       -474.7379988668297415
  Basis Set: CC-PVDZ
    Blend: CC-PVDZ
  Basis Set: (CC-PVDZ AUX)
    Blend: CC-PVDZ-JKFIT + DEF2-UNIVERSAL-JKFIT
  Charge       = 0
  Multiplicity = 4
  Basis Set: CC-PVDZ
    Blend: CC-PVDZ
  Basis Set: (CC-PVDZ AUX)
    Blend: CC-PVDZ-JKFIT + DEF2-UNIVERSAL-JKFIT

    Orbital Energies [Eh]
    ---------------------

    Alpha Occupied:

       1A1  -101.594185     2A1    -9.508269     3A1    -7.282106
       1B1    -7.258454     1B2    -7.258440     4A1    -4.117250
       5A1    -0.845608     6A1    -0.408062     2B1    -0.352141
       2B2    -0.351977     7A1    -0.271157     3B2    -0.140214

    Alpha Virtual:

       8A1    -0.068479     3B1    -0.067918     4B2     0.164246
       9A1     0.174772    10A1     0.182256     4B1     0.183645
       5B2     0.439460     1A2     0.440040    11A1     0.444392
      12A1     0.454435     5B1     0.457860    13A1     0.520631
       6B1     0.528547     6B2     0.528839    14A1     0.593881
      15A1     0.654784     7B1     0.664600     7B2     0.664702
       2A2     0.708880    16A1     0.708880

    Beta Occupied:

       1A1  -101.587473     2A1    -9.501638     3A1    -7.260216
       1B1    -7.254475     1B2    -7.254458     4A1    -4.098648
       5A1    -0.792290     2B1    -0.336251     2B2    -0.336077

    Beta Virtual:

       6A1    -0.246933     7A1    -0.119744     3B1    -0.006709
       8A1    -0.004777     3B2     0.022922     9A1     0.206266
       4B1     0.210543    10A1     0.225804     4B2     0.236340
      11A1     0.518186     5B1     0.524253     5B2     0.535498
       6B1     0.536499     1A2     0.551751    12A1     0.553451
       6B2     0.554514    13A1     0.569598    14A1     0.620199
      15A1     0.717179     2A2     0.717179     7B1     0.722191
       7B2     0.722304    16A1     0.733094

    Final Occupation by Irrep:
             A1    A2    B1    B2
    DOCC [     5,    0,    2,    2 ]
    SOCC [     2,    0,    0,    1 ]
    NA   [     7,    0,    2,    3 ]
    NB   [     5,    0,    2,    2 ]

  @DF-UKS Final Energy:  -474.73799926135473

   => Energetics <=

    Nuclear Repulsion Energy =              7.7067639650264477
    One-Electron Energy =                -669.3055031547696672
    Two-Electron Energy =                 211.8306216574334542
    DFT Exchange-Correlation Energy =     -24.9698817290449711
    Empirical Dispersion Energy =           0.0000000000000000
    VV10 Nonlocal Energy =                  0.0000000000000000
    Total Energy =                       -474.7379992613547870

  UHF NO Occupations:
  HONO-2 :    3 B2 1.0000000
  HONO-1 :    6 A1 1.0000000
  HONO-0 :    7 A1 1.0000000
  LUNO+0 :    8 A1 0.0008588
  LUNO+1 :    4 B2 0.0000267
  LUNO+2 :    3 B1 0.0000266
  LUNO+3 :    9 A1 0.0000007

Computation Completed

Properties will be evaluated at   0.000000,   0.000000,   0.000000 [a0]

Properties computed using the SCF density matrix

 Multipole Moments:

 ------------------------------------------------------------------------------------
     Multipole            Electronic (a.u.)      Nuclear  (a.u.)        Total (a.u.)
 ------------------------------------------------------------------------------------

 L = 1.  Multiply by 2.5417464519 to convert [e a0] to [Debye]
 Dipole X            :          0.0000000            0.0000000            0.0000000
 Dipole Y            :          0.0000000            0.0000000            0.0000000
 Dipole Z            :          2.6755845           -2.6745885            0.0009959
 Magnitude           :                                                    0.0009959

 ------------------------------------------------------------------------------------

*** tstop() called on Joses-MacBook-Pro-2.local at Wed Jul 16 18:47:20 2025
Module time:
	user time   =       1.50 seconds =       0.03 minutes
	system time =       2.92 seconds =       0.05 minutes
	total time  =          0 seconds =       0.00 minutes
Total time:
	user time   =     116.00 seconds =       1.93 minutes
	system time =     142.51 seconds =       2.38 minutes
	total time  =         25 seconds =       0.42 minutes

*** tstart() called on Joses-MacBook-Pro-2.local
*** at Wed Jul 16 18:47:20 2025

         ------------------------------------------------------------
                                   SCF GRAD
                          Rob Parrish, Justin Turney,
                       Andy Simmonett, and Alex Sokolov
         ------------------------------------------------------------

  ==> Geometry <==

    Molecular point group: c2v
    Full point group: C_inf_v

    Geometry (in Angstrom), charge = 0, multiplicity = 4:

       Center              X                  Y                   Z               Mass
    ------------   -----------------  -----------------  -----------------  -----------------
         BE           0.000000000000     0.000000000000     3.712392769726     9.012183065000
         CL           0.000000000000     0.000000000000    -0.956758963590    34.968852682000

  Nuclear repulsion =    7.706763965026448

  ==> Basis Set <==

  Basis Set: CC-PVDZ
    Blend: CC-PVDZ
    Number of shells: 14
    Number of basis functions: 32
    Number of Cartesian functions: 34
    Spherical Harmonics?: true
    Max angular momentum: 2

  ==> DFJKGrad: Density-Fitted SCF Gradients <==

    Gradient:                    1
    J tasked:                  Yes
    K tasked:                  Yes
    wK tasked:                  No
    OpenMP threads:              1
    Integrals threads:           1
    Memory [MiB]:              375
    Schwarz Cutoff:          1E-12
    Fitting Condition:       1E-10

   => Auxiliary Basis Set <=

  Basis Set: (CC-PVDZ AUX)
    Blend: CC-PVDZ-JKFIT + DEF2-UNIVERSAL-JKFIT
    Number of shells: 53
    Number of basis functions: 163
    Number of Cartesian functions: 190
    Spherical Harmonics?: true
    Max angular momentum: 3

  ==> DFT Potential <==

   => LibXC <=

    Version 6.2.2
    S. Lehtola, C. Steigemann, M. J.T. Oliveira, and M. A.L. Marques.,  SoftwareX 7, 1â€“5 (2018) (10.1016/j.softx.2017.11.002)

   => Composite Functional: B3LYP <=

    B3LYP Hyb-GGA Exchange-Correlation Functional

    P. J. Stephens, F. J. Devlin, C. F. Chabalowski, and M. J. Frisch.,  J. Phys. Chem. 98, 11623 (1994) (10.1021/j100096a001)

    Deriv               =              1
    GGA                 =           TRUE
    Meta                =          FALSE

    Exchange Hybrid     =           TRUE
    MP2 Hybrid          =          FALSE

   => Exchange Functionals <=

    0.0800   Slater exchange
    0.7200         Becke 88

   => Exact (HF) Exchange <=

    0.2000               HF

   => Correlation Functionals <=

    0.1900   Vosko, Wilk & Nusair (VWN5_RPA)
    0.8100   Lee, Yang & Parr

   => LibXC Density Thresholds  <==

    XC_HYB_GGA_XC_B3LYP:  1.00E-15

   => Molecular Quadrature <=

    Radial Scheme          =       TREUTLER
    Pruning Scheme         =           NONE
    Nuclear Scheme         =       TREUTLER

    Blocking Scheme        =         OCTREE
    BS radius alpha        =              1
    Pruning alpha          =              1
    Radial Points          =             75
    Spherical Points       =            302
    Total Points           =          42926
    Total Blocks           =            448
    Max Points             =            253
    Max Functions          =             32
    Weights Tolerance      =       1.00E-15

  -Total Gradient:
     Atom            X                  Y                   Z
    ------   -----------------  -----------------  -----------------
       1        0.000000000000     0.000000000000    -0.000254161730
       2        0.000000000000    -0.000000000000     0.000253568712

*** tstop() called on Joses-MacBook-Pro-2.local at Wed Jul 16 18:47:20 2025
Module time:
	user time   =       0.70 seconds =       0.01 minutes
	system time =       1.62 seconds =       0.03 minutes
	total time  =          0 seconds =       0.00 minutes
Total time:
	user time   =     116.70 seconds =       1.94 minutes
	system time =     144.13 seconds =       2.40 minutes
	total time  =         25 seconds =       0.42 minutes

    			-----------------------------------------

    			 OPTKING 3.0: for geometry optimizations

    			     By R.A. King, Bethel University

    			        with contributions from

    			    A.V. Copan, J. Cayton, A. Heide

    			-----------------------------------------

	                            ===> Fragment 1 <==

	 Z (Atomic Numbers)          Masses                          Geom
	       4.000000             9.012183          0.00000000  0.00000000  7.01540560
	      17.000000            34.968853          0.00000000  0.00000000 -1.80801241

	 - Coordinate -           - BOHR/RAD -       - ANG/DEG -
	 R(1,2)           =         8.823418           4.669152

	        --- Internal Coordinate Step in ANG or DEG, aJ/ANG or AJ/DEG ---
	-------------------------------------------------------------------------------
	           Coordinate      Previous         Force          Change          New
	           ----------      --------        ------          ------        ------
	               R(1,2)       4.66915        0.00209        0.00083       4.66998
	-------------------------------------------------------------------------------

	                                 ==> Convergence Check <==

	Measures of convergence in internal coordinates in au.

	Criteria marked as inactive (o), active & met (*), and active & unmet ( ).

	----------------------------------------------------------------------------------------------
	   Step    Total Energy     Delta E     Max Force     RMS Force      Max Disp      RMS Disp
	----------------------------------------------------------------------------------------------
	  Convergence Criteria     1.00e-06 *    3.00e-04 *             o    1.20e-03 *             o
	----------------------------------------------------------------------------------------------
	    29    -474.73799926   -3.95e-07 *    2.54e-04 *    2.54e-04 o    1.57e-03      1.57e-03 o  ~
	----------------------------------------------------------------------------------------------

Next Geometry in Ang
	Fragment 1 (Ang)

	   Be   0.0000000000   0.0000000000   3.7128081650
	   Cl   0.0000000000   0.0000000000  -0.9571743589

    Final optimized geometry and variables:
    Molecular point group: c2v
    Full point group: C_inf_v

    Geometry (in Angstrom), charge = 0, multiplicity = 4:

    BE           0.000000000000     0.000000000000     3.712392769726
    CL           0.000000000000     0.000000000000    -0.956758963590

    Psi4 stopped on: Wednesday, 16 July 2025 06:47PM
    Psi4 wall time for execution: 0:00:25.84

*** Psi4 exiting successfully. Buy a developer a beer!
