                               Psi4 1.9.1 release

  ==> Input File <==

--------------------------------------------------------------------------
molecule {
0 4
Na   0.00000        0.60000        0.00000
Ar   0.00000       -0.60000        0.00000
}

set {
basis              cc-pvdz
reference          uks
maxiter            500
geom_maxiter       500
DAMPING_PERCENTAGE 1
guess              SAP
}

optimize('b3lyp')
--------------------------------------------------------------------------

    Molecular point group: c2v
  Charge       = 0
  Multiplicity = 4
  Basis Set: CC-PVDZ
    Blend: CC-PVDZ
  Basis Set: (CC-PVDZ AUX)
    Blend: CC-PVDZ-JKFIT + DEF2-UNIVERSAL-JKFIT
  @DF-UKS Final Energy:  -688.31796442290943
    Total Energy =                       -688.3179644229094265
 Dipole X            :          0.0000000            0.0000000            0.0000000
 Dipole Y            :          0.0000000            0.0000000            0.0000000
 Dipole Z            :         -2.5554897            0.9283038           -1.6271858
 Magnitude           :                                                    1.6271858
    Molecular point group: c2v
  Basis Set: CC-PVDZ
    Blend: CC-PVDZ
  Basis Set: (CC-PVDZ AUX)
    Blend: CC-PVDZ-JKFIT + DEF2-UNIVERSAL-JKFIT
  Basis Set: CC-PVDZ
    Blend: CC-PVDZ
  Basis Set: (CC-PVDZ AUX)
    Blend: CC-PVDZ-JKFIT + DEF2-UNIVERSAL-JKFIT
  @DF-UKS Final Energy:  -688.33596319899232
    Total Energy =                       -688.3359631989923173
  Basis Set: CC-PVDZ
    Blend: CC-PVDZ
  Basis Set: (CC-PVDZ AUX)
    Blend: CC-PVDZ-JKFIT + DEF2-UNIVERSAL-JKFIT
  Basis Set: CC-PVDZ
    Blend: CC-PVDZ
  @DF-UKS Final Energy:  -688.37035518935352
    Total Energy =                       -688.3703551893535177
  @DF-UKS Final Energy:  -688.49155197697326
    Total Energy =                       -688.4915519769732555
  @DF-UKS Final Energy:  -688.93134531918054
    Total Energy =                       -688.9313453191805365
  @DF-UKS Final Energy:  -689.09071175934969
    Total Energy =                       -689.0907117593496878
  @DF-UKS Final Energy:  -689.19484158308467
    Total Energy =                       -689.1948415830846670
  @DF-UKS Final Energy:  -689.26032478853358
    Total Energy =                       -689.2603247885334667
  @DF-UKS Final Energy:  -689.30102619237789
    Total Energy =                       -689.3010261923778899
  @DF-UKS Final Energy:  -689.32886379280501
    Total Energy =                       -689.3288637928050093
  @DF-UKS Final Energy:  -689.34798354523718
    Total Energy =                       -689.3479835452372981
  @DF-UKS Final Energy:  -689.35955246422850
    Total Energy =                       -689.3595524642285000
  @DF-UKS Final Energy:  -689.35994802156142
    Total Energy =                       -689.3599480215613085
  @DF-UKS Final Energy:  -689.36520173583199
    Total Energy =                       -689.3652017358321018
  @DF-UKS Final Energy:  -689.36526511970226
    Total Energy =                       -689.3652651197022578
  @DF-UKS Final Energy:  -689.36637238180413
    Total Energy =                       -689.3663723818041262
  @DF-UKS Final Energy:  -689.36642651218142
    Total Energy =                       -689.3664265121814196
  Basis Set: (CC-PVDZ AUX)
    Blend: CC-PVDZ-JKFIT + DEF2-UNIVERSAL-JKFIT
  Basis Set: CC-PVDZ
    Blend: CC-PVDZ
  Basis Set: (CC-PVDZ AUX)
    Blend: CC-PVDZ-JKFIT + DEF2-UNIVERSAL-JKFIT
  @DF-UKS Final Energy:  -689.36642763272698
    Total Energy =                       -689.3664276327270954
  Basis Set: CC-PVDZ
    Blend: CC-PVDZ
  Basis Set: (CC-PVDZ AUX)
    Blend: CC-PVDZ-JKFIT + DEF2-UNIVERSAL-JKFIT
  Charge       = 0
  Multiplicity = 4
  Basis Set: CC-PVDZ
    Blend: CC-PVDZ
  Basis Set: (CC-PVDZ AUX)
    Blend: CC-PVDZ-JKFIT + DEF2-UNIVERSAL-JKFIT

    Orbital Energies [Eh]
    ---------------------

    Alpha Occupied:

       1A1  -115.462410     2A1   -38.466636     3A1   -11.488711
       4A1    -9.061362     1B1    -9.031346     1B2    -9.031192
       5A1    -2.213599     6A1    -1.286492     7A1    -1.145944
       2B1    -1.144808     2B2    -1.143251     8A1    -0.764957
       3B1    -0.699578     3B2    -0.698453     9A1    -0.142558
       4B2    -0.058151

    Alpha Virtual:

      10A1    -0.031002     4B1    -0.020612    11A1     0.021565
       5B2     0.066940    12A1     0.075279     5B1     0.078715
       6B2     0.147093     6B1     0.155787    13A1     0.160610
       1A2     0.166563    14A1     0.173843    15A1     0.404012
       7B1     0.408518     7B2     0.410187    16A1     0.506912
       8B1     0.517417     8B2     0.517933    17A1     0.557638
       2A2     0.557739    18A1     0.704209

    Beta Occupied:

       1A1  -115.453026     2A1   -38.465031     3A1   -11.479645
       4A1    -9.032650     1B1    -9.025818     1B2    -9.025442
       5A1    -2.210627     6A1    -1.222198     7A1    -1.143758
       2B1    -1.143158     2B2    -1.140178     3B1    -0.679120
       3B2    -0.677393

    Beta Virtual:

       8A1    -0.572730     9A1    -0.067310    10A1    -0.018886
       4B1     0.004121     4B2     0.010837    11A1     0.056023
      12A1     0.087301     5B1     0.095894     5B2     0.104904
       6B1     0.171183     6B2     0.181101    13A1     0.183044
       1A2     0.204746    14A1     0.207724     7B1     0.417940
       7B2     0.421364    15A1     0.446906    16A1     0.568813
       2A2     0.568938     8B1     0.583348     8B2     0.584846
      17A1     0.593716    18A1     0.735867

    Final Occupation by Irrep:
             A1    A2    B1    B2
    DOCC [     7,    0,    3,    3 ]
    SOCC [     2,    0,    0,    1 ]
    NA   [     9,    0,    3,    4 ]
    NB   [     7,    0,    3,    3 ]

  @DF-UKS Final Energy:  -689.36642761448411

   => Energetics <=

    Nuclear Repulsion Energy =             30.3634016893169374
    One-Electron Energy =               -1011.0800014969333915
    Two-Electron Energy =                 327.6657053045502153
    DFT Exchange-Correlation Energy =     -36.3155331114178068
    Empirical Dispersion Energy =           0.0000000000000000
    VV10 Nonlocal Energy =                  0.0000000000000000
    Total Energy =                       -689.3664276144841097

  UHF NO Occupations:
  HONO-2 :    4 B2 1.0000000
  HONO-1 :    8 A1 1.0000000
  HONO-0 :    9 A1 1.0000000
  LUNO+0 :   10 A1 0.0008177
  LUNO+1 :    5 B2 0.0000353
  LUNO+2 :    4 B1 0.0000326
  LUNO+3 :   11 A1 0.0000007

Computation Completed

Properties will be evaluated at   0.000000,   0.000000,   0.000000 [a0]

Properties computed using the SCF density matrix

 Multipole Moments:

 ------------------------------------------------------------------------------------
     Multipole            Electronic (a.u.)      Nuclear  (a.u.)        Total (a.u.)
 ------------------------------------------------------------------------------------

 L = 1.  Multiply by 2.5417464519 to convert [e a0] to [Debye]
 Dipole X            :          0.0000000            0.0000000            0.0000000
 Dipole Y            :          0.0000000            0.0000000            0.0000000
 Dipole Z            :         -6.6579174            2.6694684           -3.9884490
 Magnitude           :                                                    3.9884490

 ------------------------------------------------------------------------------------

*** tstop() called on Joses-MacBook-Pro-2.local at Wed Jul 16 19:52:50 2025
Module time:
	user time   =       5.56 seconds =       0.09 minutes
	system time =       2.42 seconds =       0.04 minutes
	total time  =          1 seconds =       0.02 minutes
Total time:
	user time   =     221.28 seconds =       3.69 minutes
	system time =      75.41 seconds =       1.26 minutes
	total time  =         29 seconds =       0.48 minutes

*** tstart() called on Joses-MacBook-Pro-2.local
*** at Wed Jul 16 19:52:50 2025

         ------------------------------------------------------------
                                   SCF GRAD
                          Rob Parrish, Justin Turney,
                       Andy Simmonett, and Alex Sokolov
         ------------------------------------------------------------

  ==> Geometry <==

    Molecular point group: c2v
    Full point group: C_inf_v

    Geometry (in Angstrom), charge = 0, multiplicity = 4:

       Center              X                  Y                   Z               Mass
    ------------   -----------------  -----------------  -----------------  -----------------
         NA           0.000000000000     0.000000000000     2.190567768947    22.989769282000
         AR           0.000000000000     0.000000000000    -1.260201311038    39.962383123700

  Nuclear repulsion =   30.363401689316937

  ==> Basis Set <==

  Basis Set: CC-PVDZ
    Blend: CC-PVDZ
    Number of shells: 16
    Number of basis functions: 36
    Number of Cartesian functions: 38
    Spherical Harmonics?: true
    Max angular momentum: 2

  ==> DFJKGrad: Density-Fitted SCF Gradients <==

    Gradient:                    1
    J tasked:                  Yes
    K tasked:                  Yes
    wK tasked:                  No
    OpenMP threads:              1
    Integrals threads:           1
    Memory [MiB]:              375
    Schwarz Cutoff:          1E-12
    Fitting Condition:       1E-10

   => Auxiliary Basis Set <=

  Basis Set: (CC-PVDZ AUX)
    Blend: CC-PVDZ-JKFIT + DEF2-UNIVERSAL-JKFIT
    Number of shells: 70
    Number of basis functions: 224
    Number of Cartesian functions: 267
    Spherical Harmonics?: true
    Max angular momentum: 4

  ==> DFT Potential <==

   => LibXC <=

    Version 6.2.2
    S. Lehtola, C. Steigemann, M. J.T. Oliveira, and M. A.L. Marques.,  SoftwareX 7, 1â€“5 (2018) (10.1016/j.softx.2017.11.002)

   => Composite Functional: B3LYP <=

    B3LYP Hyb-GGA Exchange-Correlation Functional

    P. J. Stephens, F. J. Devlin, C. F. Chabalowski, and M. J. Frisch.,  J. Phys. Chem. 98, 11623 (1994) (10.1021/j100096a001)

    Deriv               =              1
    GGA                 =           TRUE
    Meta                =          FALSE

    Exchange Hybrid     =           TRUE
    MP2 Hybrid          =          FALSE

   => Exchange Functionals <=

    0.0800   Slater exchange
    0.7200         Becke 88

   => Exact (HF) Exchange <=

    0.2000               HF

   => Correlation Functionals <=

    0.1900   Vosko, Wilk & Nusair (VWN5_RPA)
    0.8100   Lee, Yang & Parr

   => LibXC Density Thresholds  <==

    XC_HYB_GGA_XC_B3LYP:  1.00E-15

   => Molecular Quadrature <=

    Radial Scheme          =       TREUTLER
    Pruning Scheme         =           NONE
    Nuclear Scheme         =       TREUTLER

    Blocking Scheme        =         OCTREE
    BS radius alpha        =              1
    Pruning alpha          =              1
    Radial Points          =             75
    Spherical Points       =            302
    Total Points           =          43888
    Total Blocks           =            448
    Max Points             =            255
    Max Functions          =             36
    Weights Tolerance      =       1.00E-15

  -Total Gradient:
     Atom            X                  Y                   Z
    ------   -----------------  -----------------  -----------------
       1        0.000000000000     0.000000000000     0.000022541658
       2        0.000000000000     0.000000000000     0.000031910294

*** tstop() called on Joses-MacBook-Pro-2.local at Wed Jul 16 19:52:50 2025
Module time:
	user time   =       2.49 seconds =       0.04 minutes
	system time =       1.02 seconds =       0.02 minutes
	total time  =          0 seconds =       0.00 minutes
Total time:
	user time   =     223.77 seconds =       3.73 minutes
	system time =      76.43 seconds =       1.27 minutes
	total time  =         29 seconds =       0.48 minutes

    			-----------------------------------------

    			 OPTKING 3.0: for geometry optimizations

    			     By R.A. King, Bethel University

    			        with contributions from

    			    A.V. Copan, J. Cayton, A. Heide

    			-----------------------------------------

	                            ===> Fragment 1 <==

	 Z (Atomic Numbers)          Masses                          Geom
	      11.000000            22.989769          0.00000000  0.00000000  4.13957314
	      18.000000            39.962383          0.00000000  0.00000000 -2.38143534

	 - Coordinate -           - BOHR/RAD -       - ANG/DEG -
	 R(1,2)           =         6.521008           3.450769

	        --- Internal Coordinate Step in ANG or DEG, aJ/ANG or AJ/DEG ---
	-------------------------------------------------------------------------------
	           Coordinate      Previous         Force          Change          New
	           ----------      --------        ------          ------        ------
	               R(1,2)       3.45077        0.00004        0.00019       3.45096
	-------------------------------------------------------------------------------

	                                 ==> Convergence Check <==

	Measures of convergence in internal coordinates in au.

	Criteria marked as inactive (o), active & met (*), and active & unmet ( ).

	----------------------------------------------------------------------------------------------
	   Step    Total Energy     Delta E     Max Force     RMS Force      Max Disp      RMS Disp
	----------------------------------------------------------------------------------------------
	  Convergence Criteria     1.00e-06 *    3.00e-04 *             o    1.20e-03 *             o
	----------------------------------------------------------------------------------------------
	    19    -689.36642761    1.82e-08 *    4.68e-06 *    4.68e-06 o    3.62e-04 *    3.62e-04 o  ~
	----------------------------------------------------------------------------------------------

Next Geometry in Ang
	Fragment 1 (Ang)

	   Na   0.0000000000   0.0000000000   2.1906635767
	   Ar   0.0000000000   0.0000000000  -1.2602971188

    Final optimized geometry and variables:
    Molecular point group: c2v
    Full point group: C_inf_v

    Geometry (in Angstrom), charge = 0, multiplicity = 4:

    NA           0.000000000000     0.000000000000     2.190567768947
    AR           0.000000000000     0.000000000000    -1.260201311038

    Psi4 stopped on: Wednesday, 16 July 2025 07:52PM
    Psi4 wall time for execution: 0:00:29.59

*** Psi4 exiting successfully. Buy a developer a beer!
