                               Psi4 1.9.1 release

  ==> Input File <==

--------------------------------------------------------------------------
molecule {
0 5
Ne   0.00000        0.60000        0.00000
Si   0.00000       -0.60000        0.00000
}

set {
basis              cc-pvdz
reference          uks
maxiter            500
geom_maxiter       500
DAMPING_PERCENTAGE 1
guess              SAP
}

optimize('b3lyp')
--------------------------------------------------------------------------

    Molecular point group: c2v
  Charge       = 0
  Multiplicity = 5
  Basis Set: CC-PVDZ
    Blend: CC-PVDZ
  Basis Set: (CC-PVDZ AUX)
    Blend: CC-PVDZ-JKFIT
  @DF-UKS Final Energy:  -417.57160241867803
    Total Energy =                       -417.5716024186779691
 Dipole X            :          0.0000000            0.0000000            0.0000000
 Dipole Y            :          0.0000000            0.0000000            0.0000000
 Dipole Z            :          0.7809926           -0.0059043            0.7750883
 Magnitude           :                                                    0.7750883
    Molecular point group: c2v
  Basis Set: CC-PVDZ
    Blend: CC-PVDZ
  Basis Set: (CC-PVDZ AUX)
    Blend: CC-PVDZ-JKFIT
  Basis Set: CC-PVDZ
    Blend: CC-PVDZ
  Basis Set: (CC-PVDZ AUX)
    Blend: CC-PVDZ-JKFIT
  @DF-UKS Final Energy:  -417.79369847326547
    Total Energy =                       -417.7936984732654651
  Basis Set: CC-PVDZ
    Blend: CC-PVDZ
  Basis Set: (CC-PVDZ AUX)
    Blend: CC-PVDZ-JKFIT
  Basis Set: CC-PVDZ
    Blend: CC-PVDZ
  @DF-UKS Final Energy:  -417.92613280639654
    Total Energy =                       -417.9261328063965379
  @DF-UKS Final Energy:  -418.00745492166845
    Total Energy =                       -418.0074549216684545
  @DF-UKS Final Energy:  -418.06166757772365
    Total Energy =                       -418.0616675777235969
  @DF-UKS Final Energy:  -418.09495019429789
    Total Energy =                       -418.0949501942978372
  @DF-UKS Final Energy:  -418.11368296847127
    Total Energy =                       -418.1136829684712666
  @DF-UKS Final Energy:  -418.12374037611829
    Total Energy =                       -418.1237403761182918
  @DF-UKS Final Energy:  -418.12897463959740
    Total Energy =                       -418.1289746395974021
  @DF-UKS Final Energy:  -418.13152102898545
    Total Energy =                       -418.1315210289854463
  @DF-UKS Final Energy:  -418.13264272691902
    Total Energy =                       -418.1326427269190162
  @DF-UKS Final Energy:  -418.13306907449470
    Total Energy =                       -418.1330690744946992
  @DF-UKS Final Energy:  -418.13319884688809
    Total Energy =                       -418.1331988468880922
  @DF-UKS Final Energy:  -418.13322174739892
    Total Energy =                       -418.1332217473989203
  @DF-UKS Final Energy:  -418.13322818865151
    Total Energy =                       -418.1332281886515148
  Basis Set: (CC-PVDZ AUX)
    Blend: CC-PVDZ-JKFIT
  Basis Set: CC-PVDZ
    Blend: CC-PVDZ
  Basis Set: (CC-PVDZ AUX)
    Blend: CC-PVDZ-JKFIT
  @DF-UKS Final Energy:  -418.13322921426726
    Total Energy =                       -418.1332292142672600
  Basis Set: CC-PVDZ
    Blend: CC-PVDZ
  Basis Set: (CC-PVDZ AUX)
    Blend: CC-PVDZ-JKFIT
  Charge       = 0
  Multiplicity = 5
  Basis Set: CC-PVDZ
    Blend: CC-PVDZ
  Basis Set: (CC-PVDZ AUX)
    Blend: CC-PVDZ-JKFIT

    Orbital Energies [Eh]
    ---------------------

    Alpha Occupied:

       1A1   -66.206730     2A1   -30.965873     3A1    -5.351000
       1B1    -3.710904     1B2    -3.710904     4A1    -3.710874
       5A1    -1.430537     6A1    -0.541402     2B2    -0.538534
       2B1    -0.538534     7A1    -0.504078     3B2    -0.223065
       3B1    -0.223065     8A1    -0.221509

    Alpha Virtual:

       9A1     0.221127     4B2     0.279482     4B1     0.279482
      10A1     0.287282    11A1     0.304804     5B1     0.305367
       5B2     0.305367    12A1     0.305405     1A2     0.305405
       6B2     1.363180     6B1     1.363180    13A1     1.398493
      14A1     1.854588     7B2     4.726407     7B1     4.726407
       2A2     4.726894    15A1     4.726949    16A1     4.727137

    Beta Occupied:

       1A1   -66.190624     2A1   -30.965530     3A1    -5.329955
       1B1    -3.688354     1B2    -3.688354     4A1    -3.688192
       5A1    -1.429891     6A1    -0.539219     2B2    -0.538251
       2B1    -0.538251

    Beta Virtual:

       7A1    -0.276281     8A1    -0.037690     3B1    -0.037057
       3B2    -0.037057     9A1     0.290617    10A1     0.353846
       4B1     0.353984     4B2     0.353984    11A1     0.448821
       5B1     0.449365     5B2     0.449365    12A1     0.449520
       1A2     0.449522     6B2     1.363211     6B1     1.363211
      13A1     1.400362    14A1     1.856134     7B2     4.727061
       7B1     4.727061     2A2     4.727112    15A1     4.727354
      16A1     4.727749

    Final Occupation by Irrep:
             A1    A2    B1    B2
    DOCC [     6,    0,    2,    2 ]
    SOCC [     2,    0,    1,    1 ]
    NA   [     8,    0,    3,    3 ]
    NB   [     6,    0,    2,    2 ]

  @DF-UKS Final Energy:  -418.13322944534531

   => Energetics <=

    Nuclear Repulsion Energy =             22.0199310102819510
    One-Electron Energy =                -626.6329746949279524
    Two-Electron Energy =                 213.3894297757567529
    DFT Exchange-Correlation Energy =     -26.9096155364561156
    Empirical Dispersion Energy =           0.0000000000000000
    VV10 Nonlocal Energy =                  0.0000000000000000
    Total Energy =                       -418.1332294453453073

  UHF NO Occupations:
  HONO-2 :    3 B2 1.0000000
  HONO-1 :    7 A1 1.0000000
  HONO-0 :    8 A1 1.0000000
  LUNO+0 :    9 A1 0.0000038
  LUNO+1 :    4 B1 0.0000002
  LUNO+2 :    4 B2 0.0000002
  LUNO+3 :    5 B1 0.0000001

Computation Completed

Properties will be evaluated at   0.000000,   0.000000,   0.000000 [a0]

Properties computed using the SCF density matrix

 Multipole Moments:

 ------------------------------------------------------------------------------------
     Multipole            Electronic (a.u.)      Nuclear  (a.u.)        Total (a.u.)
 ------------------------------------------------------------------------------------

 L = 1.  Multiply by 2.5417464519 to convert [e a0] to [Debye]
 Dipole X            :          0.0000000            0.0000000            0.0000000
 Dipole Y            :          0.0000000            0.0000000            0.0000000
 Dipole Z            :          0.0754935           -0.0165539            0.0589396
 Magnitude           :                                                    0.0589396

 ------------------------------------------------------------------------------------

*** tstop() called on Joses-MacBook-Pro-2.local at Wed Jul 16 19:35:42 2025
Module time:
	user time   =       2.67 seconds =       0.04 minutes
	system time =       2.90 seconds =       0.05 minutes
	total time  =          0 seconds =       0.00 minutes
Total time:
	user time   =      78.94 seconds =       1.32 minutes
	system time =      79.74 seconds =       1.33 minutes
	total time  =         15 seconds =       0.25 minutes

*** tstart() called on Joses-MacBook-Pro-2.local
*** at Wed Jul 16 19:35:42 2025

         ------------------------------------------------------------
                                   SCF GRAD
                          Rob Parrish, Justin Turney,
                       Andy Simmonett, and Alex Sokolov
         ------------------------------------------------------------

  ==> Geometry <==

    Molecular point group: c2v
    Full point group: C_inf_v

    Geometry (in Angstrom), charge = 0, multiplicity = 5:

       Center              X                  Y                   Z               Mass
    ------------   -----------------  -----------------  -----------------  -----------------
         NE           0.000000000000     0.000000000000     1.962226930764    19.992440176200
         SI           0.000000000000     0.000000000000    -1.402216375585    27.976926534650

  Nuclear repulsion =   22.019931010281951

  ==> Basis Set <==

  Basis Set: CC-PVDZ
    Blend: CC-PVDZ
    Number of shells: 14
    Number of basis functions: 32
    Number of Cartesian functions: 34
    Spherical Harmonics?: true
    Max angular momentum: 2

  ==> DFJKGrad: Density-Fitted SCF Gradients <==

    Gradient:                    1
    J tasked:                  Yes
    K tasked:                  Yes
    wK tasked:                  No
    OpenMP threads:              1
    Integrals threads:           1
    Memory [MiB]:              375
    Schwarz Cutoff:          1E-12
    Fitting Condition:       1E-10

   => Auxiliary Basis Set <=

  Basis Set: (CC-PVDZ AUX)
    Blend: CC-PVDZ-JKFIT
    Number of shells: 60
    Number of basis functions: 182
    Number of Cartesian functions: 211
    Spherical Harmonics?: true
    Max angular momentum: 3

  ==> DFT Potential <==

   => LibXC <=

    Version 6.2.2
    S. Lehtola, C. Steigemann, M. J.T. Oliveira, and M. A.L. Marques.,  SoftwareX 7, 1â€“5 (2018) (10.1016/j.softx.2017.11.002)

   => Composite Functional: B3LYP <=

    B3LYP Hyb-GGA Exchange-Correlation Functional

    P. J. Stephens, F. J. Devlin, C. F. Chabalowski, and M. J. Frisch.,  J. Phys. Chem. 98, 11623 (1994) (10.1021/j100096a001)

    Deriv               =              1
    GGA                 =           TRUE
    Meta                =          FALSE

    Exchange Hybrid     =           TRUE
    MP2 Hybrid          =          FALSE

   => Exchange Functionals <=

    0.0800   Slater exchange
    0.7200         Becke 88

   => Exact (HF) Exchange <=

    0.2000               HF

   => Correlation Functionals <=

    0.1900   Vosko, Wilk & Nusair (VWN5_RPA)
    0.8100   Lee, Yang & Parr

   => LibXC Density Thresholds  <==

    XC_HYB_GGA_XC_B3LYP:  1.00E-15

   => Molecular Quadrature <=

    Radial Scheme          =       TREUTLER
    Pruning Scheme         =           NONE
    Nuclear Scheme         =       TREUTLER

    Blocking Scheme        =         OCTREE
    BS radius alpha        =              1
    Pruning alpha          =              1
    Radial Points          =             75
    Spherical Points       =            302
    Total Points           =          43051
    Total Blocks           =            390
    Max Points             =            256
    Max Functions          =             32
    Weights Tolerance      =       1.00E-15

  -Total Gradient:
     Atom            X                  Y                   Z
    ------   -----------------  -----------------  -----------------
       1        0.000000000000     0.000000000000     0.000007870932
       2        0.000000000000     0.000000000000     0.000014039541

*** tstop() called on Joses-MacBook-Pro-2.local at Wed Jul 16 19:35:42 2025
Module time:
	user time   =       0.75 seconds =       0.01 minutes
	system time =       1.38 seconds =       0.02 minutes
	total time  =          0 seconds =       0.00 minutes
Total time:
	user time   =      79.70 seconds =       1.33 minutes
	system time =      81.12 seconds =       1.35 minutes
	total time  =         15 seconds =       0.25 minutes

    			-----------------------------------------

    			 OPTKING 3.0: for geometry optimizations

    			     By R.A. King, Bethel University

    			        with contributions from

    			    A.V. Copan, J. Cayton, A. Heide

    			-----------------------------------------

	                            ===> Fragment 1 <==

	 Z (Atomic Numbers)          Masses                          Geom
	      10.000000            19.992440          0.00000000  0.00000000  3.70807150
	      14.000000            27.976927          0.00000000  0.00000000 -2.64980492

	 - Coordinate -           - BOHR/RAD -       - ANG/DEG -
	 R(1,2)           =         6.357876           3.364443

	        --- Internal Coordinate Step in ANG or DEG, aJ/ANG or AJ/DEG ---
	-------------------------------------------------------------------------------
	           Coordinate      Previous         Force          Change          New
	           ----------      --------        ------          ------        ------
	               R(1,2)       3.36444        0.00003        0.00059       3.36503
	-------------------------------------------------------------------------------

	                                 ==> Convergence Check <==

	Measures of convergence in internal coordinates in au.

	Criteria marked as inactive (o), active & met (*), and active & unmet ( ).

	----------------------------------------------------------------------------------------------
	   Step    Total Energy     Delta E     Max Force     RMS Force      Max Disp      RMS Disp
	----------------------------------------------------------------------------------------------
	  Convergence Criteria     1.00e-06 *    3.00e-04 *             o    1.20e-03 *             o
	----------------------------------------------------------------------------------------------
	    17    -418.13322945   -2.31e-07 *    3.08e-06 *    3.08e-06 o    1.11e-03 *    1.11e-03 o  ~
	----------------------------------------------------------------------------------------------

Next Geometry in Ang
	Fragment 1 (Ang)

	   Ne   0.0000000000   0.0000000000   1.9625200863
	   Si   0.0000000000   0.0000000000  -1.4025095311

    Final optimized geometry and variables:
    Molecular point group: c2v
    Full point group: C_inf_v

    Geometry (in Angstrom), charge = 0, multiplicity = 5:

    NE           0.000000000000     0.000000000000     1.962226930764
    SI           0.000000000000     0.000000000000    -1.402216375585

    Psi4 stopped on: Wednesday, 16 July 2025 07:35PM
    Psi4 wall time for execution: 0:00:16.30

*** Psi4 exiting successfully. Buy a developer a beer!
