                               Psi4 1.9.1 release

  ==> Input File <==

--------------------------------------------------------------------------
molecule {
0 5
B   0.00000        0.60000        0.00000
F   0.00000       -0.60000        0.00000
}

set {
basis              cc-pvdz
reference          uks
maxiter            500
geom_maxiter       500
DAMPING_PERCENTAGE 1
guess              SAP
}

optimize('b3lyp')
--------------------------------------------------------------------------

    Molecular point group: c2v
  Charge       = 0
  Multiplicity = 5
  Basis Set: CC-PVDZ
    Blend: CC-PVDZ
  Basis Set: (CC-PVDZ AUX)
    Blend: CC-PVDZ-JKFIT
  @DF-UKS Final Energy:  -124.12364985988889
    Total Energy =                       -124.1236498598888858
 Dipole X            :          0.0000000            0.0000000            0.0000000
 Dipole Y            :          0.0000000            0.0000000            0.0000000
 Dipole Z            :         -0.9734862           -0.3092107           -1.2826969
 Magnitude           :                                                    1.2826969
    Molecular point group: c2v
  Basis Set: CC-PVDZ
    Blend: CC-PVDZ
  Basis Set: (CC-PVDZ AUX)
    Blend: CC-PVDZ-JKFIT
  Basis Set: CC-PVDZ
    Blend: CC-PVDZ
  Basis Set: (CC-PVDZ AUX)
    Blend: CC-PVDZ-JKFIT
  @DF-UKS Final Energy:  -124.21950497678112
    Total Energy =                       -124.2195049767811241
  Basis Set: CC-PVDZ
    Blend: CC-PVDZ
  Basis Set: (CC-PVDZ AUX)
    Blend: CC-PVDZ-JKFIT
  Basis Set: CC-PVDZ
    Blend: CC-PVDZ
  @DF-UKS Final Energy:  -124.24427687592596
    Total Energy =                       -124.2442768759259621
  @DF-UKS Final Energy:  -124.25959635412472
    Total Energy =                       -124.2595963541247244
  @DF-UKS Final Energy:  -124.26467334252389
    Total Energy =                       -124.2646733425238921
  @DF-UKS Final Energy:  -124.26733729680075
    Total Energy =                       -124.2673372968007470
  @DF-UKS Final Energy:  -124.26857340518892
    Total Energy =                       -124.2685734051889170
  @DF-UKS Final Energy:  -124.26889720510513
    Total Energy =                       -124.2688972051051337
  @DF-UKS Final Energy:  -124.26901396033023
    Total Energy =                       -124.2690139603302271
  @DF-UKS Final Energy:  -124.26903962584102
    Total Energy =                       -124.2690396258410175
  @DF-UKS Final Energy:  -124.26904665345613
    Total Energy =                       -124.2690466534561295
  Basis Set: (CC-PVDZ AUX)
    Blend: CC-PVDZ-JKFIT
  Basis Set: CC-PVDZ
    Blend: CC-PVDZ
  Basis Set: (CC-PVDZ AUX)
    Blend: CC-PVDZ-JKFIT
  @DF-UKS Final Energy:  -124.26904775299843
    Total Energy =                       -124.2690477529984321
  Basis Set: CC-PVDZ
    Blend: CC-PVDZ
  Basis Set: (CC-PVDZ AUX)
    Blend: CC-PVDZ-JKFIT
  Charge       = 0
  Multiplicity = 5
  Basis Set: CC-PVDZ
    Blend: CC-PVDZ
  Basis Set: (CC-PVDZ AUX)
    Blend: CC-PVDZ-JKFIT

    Orbital Energies [Eh]
    ---------------------

    Alpha Occupied:

       1A1   -24.899567     2A1    -6.842323     3A1    -1.322880
       1B1    -0.641783     4A1    -0.592109     1B2    -0.552733
       5A1    -0.386084     2B1    -0.187413     2B2    -0.184447

    Alpha Virtual:

       6A1    -0.046008     3B1     0.277515     3B2     0.279759
       7A1     0.293954     8A1     0.346313     4B1     0.653766
       4B2     0.663196     1A2     0.671230     9A1     0.671239
      10A1     0.784398     5B1     1.065662     5B2     1.114098
      11A1     1.117355    12A1     1.869732    13A1     3.350051
       2A2     3.360799     6B1     3.372184     6B2     3.441041
      14A1     3.493076

    Beta Occupied:

       1A1   -24.864673     2A1    -6.804636     3A1    -1.224551
       4A1    -0.542306     1B2    -0.515274

    Beta Virtual:

       1B1    -0.341474     5A1    -0.159017     2B2     0.018272
       2B1     0.020576     6A1     0.033090     7A1     0.327736
       3B2     0.373750     3B1     0.374162     8A1     0.430564
       4B2     0.760897     4B1     0.766132     1A2     0.823955
       9A1     0.824012    10A1     0.875745    11A1     1.144305
       5B2     1.147003     5B1     1.176301    12A1     1.924650
       2A2     3.459785     6B2     3.463932    13A1     3.469340
       6B1     3.475622    14A1     3.539639

    Final Occupation by Irrep:
             A1    A2    B1    B2
    DOCC [     4,    0,    0,    1 ]
    SOCC [     1,    0,    2,    1 ]
    NA   [     5,    0,    2,    2 ]
    NB   [     4,    0,    0,    1 ]

  @DF-UKS Final Energy:  -124.26904783316857

   => Energetics <=

    Nuclear Repulsion Energy =             12.2389824660392907
    One-Electron Energy =                -195.1488931471628518
    Two-Electron Energy =                  70.1998102285819954
    DFT Exchange-Correlation Energy =     -11.5589473806270018
    Empirical Dispersion Energy =           0.0000000000000000
    VV10 Nonlocal Energy =                  0.0000000000000000
    Total Energy =                       -124.2690478331685711

  UHF NO Occupations:
  HONO-2 :    2 B2 1.0000000
  HONO-1 :    2 B1 1.0000000
  HONO-0 :    5 A1 1.0000000
  LUNO+0 :    6 A1 0.0004517
  LUNO+1 :    7 A1 0.0002255
  LUNO+2 :    3 B2 0.0001260
  LUNO+3 :    8 A1 0.0000003

Computation Completed

Properties will be evaluated at   0.000000,   0.000000,   0.000000 [a0]

Properties computed using the SCF density matrix

 Multipole Moments:

 ------------------------------------------------------------------------------------
     Multipole            Electronic (a.u.)      Nuclear  (a.u.)        Total (a.u.)
 ------------------------------------------------------------------------------------

 L = 1.  Multiply by 2.5417464519 to convert [e a0] to [Debye]
 Dipole X            :          0.0000000            0.0000000            0.0000000
 Dipole Y            :          0.0000000            0.0000000            0.0000000
 Dipole Z            :         -0.1200015           -0.5013507           -0.6213522
 Magnitude           :                                                    0.6213522

 ------------------------------------------------------------------------------------

*** tstop() called on Joses-MacBook-Pro-2.local at Wed Jul 16 18:51:04 2025
Module time:
	user time   =       2.18 seconds =       0.04 minutes
	system time =       4.02 seconds =       0.07 minutes
	total time  =          0 seconds =       0.00 minutes
Total time:
	user time   =      49.36 seconds =       0.82 minutes
	system time =      76.82 seconds =       1.28 minutes
	total time  =         14 seconds =       0.23 minutes

*** tstart() called on Joses-MacBook-Pro-2.local
*** at Wed Jul 16 18:51:04 2025

         ------------------------------------------------------------
                                   SCF GRAD
                          Rob Parrish, Justin Turney,
                       Andy Simmonett, and Alex Sokolov
         ------------------------------------------------------------

  ==> Geometry <==

    Molecular point group: c2v
    Full point group: C_inf_v

    Geometry (in Angstrom), charge = 0, multiplicity = 5:

       Center              X                  Y                   Z               Mass
    ------------   -----------------  -----------------  -----------------  -----------------
         B            0.000000000000     0.000000000000     1.231835173909    11.009305360000
         F            0.000000000000     0.000000000000    -0.713831023933    18.998403162730

  Nuclear repulsion =   12.238982466039291

  ==> Basis Set <==

  Basis Set: CC-PVDZ
    Blend: CC-PVDZ
    Number of shells: 12
    Number of basis functions: 28
    Number of Cartesian functions: 30
    Spherical Harmonics?: true
    Max angular momentum: 2

  ==> DFJKGrad: Density-Fitted SCF Gradients <==

    Gradient:                    1
    J tasked:                  Yes
    K tasked:                  Yes
    wK tasked:                  No
    OpenMP threads:              1
    Integrals threads:           1
    Memory [MiB]:              375
    Schwarz Cutoff:          1E-12
    Fitting Condition:       1E-10

   => Auxiliary Basis Set <=

  Basis Set: (CC-PVDZ AUX)
    Blend: CC-PVDZ-JKFIT
    Number of shells: 48
    Number of basis functions: 140
    Number of Cartesian functions: 162
    Spherical Harmonics?: true
    Max angular momentum: 3

  ==> DFT Potential <==

   => LibXC <=

    Version 6.2.2
    S. Lehtola, C. Steigemann, M. J.T. Oliveira, and M. A.L. Marques.,  SoftwareX 7, 1â€“5 (2018) (10.1016/j.softx.2017.11.002)

   => Composite Functional: B3LYP <=

    B3LYP Hyb-GGA Exchange-Correlation Functional

    P. J. Stephens, F. J. Devlin, C. F. Chabalowski, and M. J. Frisch.,  J. Phys. Chem. 98, 11623 (1994) (10.1021/j100096a001)

    Deriv               =              1
    GGA                 =           TRUE
    Meta                =          FALSE

    Exchange Hybrid     =           TRUE
    MP2 Hybrid          =          FALSE

   => Exchange Functionals <=

    0.0800   Slater exchange
    0.7200         Becke 88

   => Exact (HF) Exchange <=

    0.2000               HF

   => Correlation Functionals <=

    0.1900   Vosko, Wilk & Nusair (VWN5_RPA)
    0.8100   Lee, Yang & Parr

   => LibXC Density Thresholds  <==

    XC_HYB_GGA_XC_B3LYP:  1.00E-15

   => Molecular Quadrature <=

    Radial Scheme          =       TREUTLER
    Pruning Scheme         =           NONE
    Nuclear Scheme         =       TREUTLER

    Blocking Scheme        =         OCTREE
    BS radius alpha        =              1
    Pruning alpha          =              1
    Radial Points          =             75
    Spherical Points       =            302
    Total Points           =          43607
    Total Blocks           =            397
    Max Points             =            256
    Max Functions          =             28
    Weights Tolerance      =       1.00E-15

  -Total Gradient:
     Atom            X                  Y                   Z
    ------   -----------------  -----------------  -----------------
       1       -0.000000000000     0.000000000000     0.000001697811
       2        0.000000000000     0.000000000000     0.000017014576

*** tstop() called on Joses-MacBook-Pro-2.local at Wed Jul 16 18:51:05 2025
Module time:
	user time   =       0.52 seconds =       0.01 minutes
	system time =       1.49 seconds =       0.02 minutes
	total time  =          1 seconds =       0.02 minutes
Total time:
	user time   =      49.88 seconds =       0.83 minutes
	system time =      78.32 seconds =       1.31 minutes
	total time  =         15 seconds =       0.25 minutes

    			-----------------------------------------

    			 OPTKING 3.0: for geometry optimizations

    			     By R.A. King, Bethel University

    			        with contributions from

    			    A.V. Copan, J. Cayton, A. Heide

    			-----------------------------------------

	                            ===> Fragment 1 <==

	 Z (Atomic Numbers)          Masses                          Geom
	       5.000000            11.009305          0.00000000  0.00000000  2.32783111
	       9.000000            18.998403          0.00000000  0.00000000 -1.34894514

	 - Coordinate -           - BOHR/RAD -       - ANG/DEG -
	 R(1,2)           =         3.676776           1.945666

	        --- Internal Coordinate Step in ANG or DEG, aJ/ANG or AJ/DEG ---
	-------------------------------------------------------------------------------
	           Coordinate      Previous         Force          Change          New
	           ----------      --------        ------          ------        ------
	               R(1,2)       1.94567        0.00006        0.00013       1.94580
	-------------------------------------------------------------------------------

	                                 ==> Convergence Check <==

	Measures of convergence in internal coordinates in au.

	Criteria marked as inactive (o), active & met (*), and active & unmet ( ).

	----------------------------------------------------------------------------------------------
	   Step    Total Energy     Delta E     Max Force     RMS Force      Max Disp      RMS Disp
	----------------------------------------------------------------------------------------------
	  Convergence Criteria     1.00e-06 *    3.00e-04 *             o    1.20e-03 *             o
	----------------------------------------------------------------------------------------------
	    13    -124.26904783   -8.02e-08 *    7.66e-06 *    7.66e-06 o    2.46e-04 *    2.46e-04 o  ~
	----------------------------------------------------------------------------------------------

Next Geometry in Ang
	Fragment 1 (Ang)

	    B   0.0000000000   0.0000000000   1.2319003288
	    F   0.0000000000   0.0000000000  -0.7138961789

    Final optimized geometry and variables:
    Molecular point group: c2v
    Full point group: C_inf_v

    Geometry (in Angstrom), charge = 0, multiplicity = 5:

    B            0.000000000000     0.000000000000     1.231835173909
    F            0.000000000000     0.000000000000    -0.713831023933

    Psi4 stopped on: Wednesday, 16 July 2025 06:51PM
    Psi4 wall time for execution: 0:00:15.18

*** Psi4 exiting successfully. Buy a developer a beer!
