                               Psi4 1.9.1 release

  ==> Input File <==

--------------------------------------------------------------------------
molecule {
0 5
Al   0.00000        0.60000        0.00000
Cl   0.00000       -0.60000        0.00000
}

set {
basis              cc-pvdz
reference          uks
maxiter            500
geom_maxiter       500
DAMPING_PERCENTAGE 1
guess              SAP
}

optimize('b3lyp')
--------------------------------------------------------------------------

    Molecular point group: c2v
  Charge       = 0
  Multiplicity = 5
  Basis Set: CC-PVDZ
    Blend: CC-PVDZ
  Basis Set: (CC-PVDZ AUX)
    Blend: CC-PVDZ-JKFIT
  @DF-UKS Final Energy:  -701.04582492594261
    Total Energy =                       -701.0458249259426111
 Dipole X            :          0.0000000            0.0000000            0.0000000
 Dipole Y            :          0.0000000            0.0000000            0.0000000
 Dipole Z            :         -2.0463130           -0.1497521           -2.1960652
 Magnitude           :                                                    2.1960652
    Molecular point group: c2v
  Basis Set: CC-PVDZ
    Blend: CC-PVDZ
  Basis Set: (CC-PVDZ AUX)
    Blend: CC-PVDZ-JKFIT
  Basis Set: CC-PVDZ
    Blend: CC-PVDZ
  Basis Set: (CC-PVDZ AUX)
    Blend: CC-PVDZ-JKFIT
  @DF-UKS Final Energy:  -701.07513104898726
    Total Energy =                       -701.0751310489872594
  Basis Set: CC-PVDZ
    Blend: CC-PVDZ
  Basis Set: (CC-PVDZ AUX)
    Blend: CC-PVDZ-JKFIT
  Basis Set: CC-PVDZ
    Blend: CC-PVDZ
  @DF-UKS Final Energy:  -701.13066941005081
    Total Energy =                       -701.1306694100508139
  @DF-UKS Final Energy:  -701.32168082899830
    Total Energy =                       -701.3216808289982964
  @DF-UKS Final Energy:  -701.88466169747267
    Total Energy =                       -701.8846616974726658
  @DF-UKS Final Energy:  -702.08821124385122
    Total Energy =                       -702.0882112438512195
  @DF-UKS Final Energy:  -702.21706271804521
    Total Energy =                       -702.2170627180452129
  @DF-UKS Final Energy:  -702.29335396660156
    Total Energy =                       -702.2933539666016713
  @DF-UKS Final Energy:  -702.33722992191917
    Total Energy =                       -702.3372299219191746
  @DF-UKS Final Energy:  -702.36331745777500
    Total Energy =                       -702.3633174577749969
  @DF-UKS Final Energy:  -702.37878827278314
    Total Energy =                       -702.3787882727831402
  @DF-UKS Final Energy:  -702.38787070752005
    Total Energy =                       -702.3878707075201646
  @DF-UKS Final Energy:  -702.39318002284836
    Total Energy =                       -702.3931800228482416
  @DF-UKS Final Energy:  -702.39630262898390
    Total Energy =                       -702.3963026289839036
  @DF-UKS Final Energy:  -702.39815628488543
    Total Energy =                       -702.3981562848854310
  @DF-UKS Final Energy:  -702.39928099157464
    Total Energy =                       -702.3992809915745283
  @DF-UKS Final Energy:  -702.39998930176807
    Total Energy =                       -702.3999893017680733
  @DF-UKS Final Energy:  -702.39999171444197
    Total Energy =                       -702.3999917144419669
  @DF-UKS Final Energy:  -702.39999411426390
    Total Energy =                       -702.3999941142639045
  @DF-UKS Final Energy:  -702.39999650549794
    Total Energy =                       -702.3999965054977110
  @DF-UKS Final Energy:  -702.40086978422357
    Total Energy =                       -702.4008697842235733
  @DF-UKS Final Energy:  -702.40087017464316
    Total Energy =                       -702.4008701746431598
  @DF-UKS Final Energy:  -702.40087056458344
    Total Energy =                       -702.4008705645835562
  @DF-UKS Final Energy:  -702.40087095405408
    Total Energy =                       -702.4008709540540849
  @DF-UKS Final Energy:  -702.40087134308260
    Total Energy =                       -702.4008713430825992
  @DF-UKS Final Energy:  -702.40087173167171
    Total Energy =                       -702.4008717316716002
  @DF-UKS Final Energy:  -702.40087211976390
    Total Energy =                       -702.4008721197637897
  @DF-UKS Final Energy:  -702.40087250741340
    Total Energy =                       -702.4008725074133963
  @DF-UKS Final Energy:  -702.40087289464395
    Total Energy =                       -702.4008728946439533
  @DF-UKS Final Energy:  -702.40087328140476
    Total Energy =                       -702.4008732814048699
  @DF-UKS Final Energy:  -702.40087366768239
    Total Energy =                       -702.4008736676822764
  @DF-UKS Final Energy:  -702.40087405353768
    Total Energy =                       -702.4008740535377910
  @DF-UKS Final Energy:  -702.40087443894970
    Total Energy =                       -702.4008744389496997
  @DF-UKS Final Energy:  -702.40087482391016
    Total Energy =                       -702.4008748239101578
  @DF-UKS Final Energy:  -702.40087520842599
    Total Energy =                       -702.4008752084261005
  @DF-UKS Final Energy:  -702.40087559249935
    Total Energy =                       -702.4008755924993466
  @DF-UKS Final Energy:  -702.40087597613478
    Total Energy =                       -702.4008759761346710
  @DF-UKS Final Energy:  -702.40087635932571
    Total Energy =                       -702.4008763593257072
  Basis Set: (CC-PVDZ AUX)
    Blend: CC-PVDZ-JKFIT
  Basis Set: CC-PVDZ
    Blend: CC-PVDZ
  Basis Set: (CC-PVDZ AUX)
    Blend: CC-PVDZ-JKFIT
  @DF-UKS Final Energy:  -702.40087674208803
    Total Energy =                       -702.4008767420880304
  Basis Set: CC-PVDZ
    Blend: CC-PVDZ
  Basis Set: (CC-PVDZ AUX)
    Blend: CC-PVDZ-JKFIT
  Charge       = 0
  Multiplicity = 5
  Basis Set: CC-PVDZ
    Blend: CC-PVDZ
  Basis Set: (CC-PVDZ AUX)
    Blend: CC-PVDZ-JKFIT

    Orbital Energies [Eh]
    ---------------------

    Alpha Occupied:

       1A1  -101.596135     2A1   -56.124086     3A1    -9.510234
       4A1    -7.284077     1B2    -7.260408     1B1    -7.260408
       5A1    -4.204231     6A1    -2.759772     2B1    -2.755758
       2B2    -2.755758     7A1    -0.847621     8A1    -0.410191
       9A1    -0.373731     3B2    -0.354017     3B1    -0.354017
       4B1    -0.164101     4B2    -0.164101

    Alpha Virtual:

      10A1    -0.107209    11A1     0.138896     5B2     0.187714
       5B1     0.187714    12A1     0.192582     1A2     0.218696
      13A1     0.218699     6B1     0.222922     6B2     0.222922
      14A1     0.232466    15A1     0.504628     7B1     0.525932
       7B2     0.525932    16A1     0.577812    17A1     0.650095
       8B2     0.662494     8B1     0.662494     2A2     0.706926
      18A1     0.706954

    Beta Occupied:

       1A1  -101.589430     2A1   -56.114966     3A1    -9.503611
       4A1    -7.262201     1B2    -7.256435     1B1    -7.256435
       5A1    -4.190967     6A1    -2.752029     2B1    -2.740565
       2B2    -2.740565     7A1    -0.794300     3B2    -0.338113
       3B1    -0.338113

    Beta Virtual:

       8A1    -0.248801     9A1    -0.212161    10A1    -0.045671
       4B2    -0.017065     4B1    -0.017065    11A1     0.191635
      12A1     0.224501     5B2     0.250871     5B1     0.250871
      13A1     0.301829     6B1     0.311289     6B2     0.311289
      14A1     0.334916     1A2     0.334921     7B1     0.533224
       7B2     0.533224    15A1     0.550127    16A1     0.599403
       2A2     0.715219    17A1     0.715245     8B2     0.720102
       8B1     0.720102    18A1     0.729526

    Final Occupation by Irrep:
             A1    A2    B1    B2
    DOCC [     7,    0,    3,    3 ]
    SOCC [     2,    0,    1,    1 ]
    NA   [     9,    0,    4,    4 ]
    NB   [     7,    0,    3,    3 ]

  @DF-UKS Final Energy:  -702.40110018010046

   => Energetics <=

    Nuclear Repulsion Energy =             22.5003533098124215
    One-Electron Energy =               -1015.9242246885121403
    Two-Electron Energy =                 328.7132548744974088
    DFT Exchange-Correlation Energy =     -37.6904836758981077
    Empirical Dispersion Energy =           0.0000000000000000
    VV10 Nonlocal Energy =                  0.0000000000000000
    Total Energy =                       -702.4011001801004568

  UHF NO Occupations:
  HONO-2 :    4 B2 1.0000000
  HONO-1 :    4 B1 1.0000000
  HONO-0 :    9 A1 1.0000000
  LUNO+0 :   10 A1 0.0008591
  LUNO+1 :    5 B2 0.0000261
  LUNO+2 :    5 B1 0.0000261
  LUNO+3 :   11 A1 0.0000008

Computation Completed

Properties will be evaluated at   0.000000,   0.000000,   0.000000 [a0]

Properties computed using the SCF density matrix

 Multipole Moments:

 ------------------------------------------------------------------------------------
     Multipole            Electronic (a.u.)      Nuclear  (a.u.)        Total (a.u.)
 ------------------------------------------------------------------------------------

 L = 1.  Multiply by 2.5417464519 to convert [e a0] to [Debye]
 Dipole X            :          0.0000000            0.0000000            0.0000000
 Dipole Y            :          0.0000000            0.0000000            0.0000000
 Dipole Z            :          0.6456651           -0.6486282           -0.0029630
 Magnitude           :                                                    0.0029630

 ------------------------------------------------------------------------------------

*** tstop() called on Joses-MacBook-Pro-2.local at Wed Jul 16 20:11:11 2025
Module time:
	user time   =       6.30 seconds =       0.11 minutes
	system time =       2.64 seconds =       0.04 minutes
	total time  =          1 seconds =       0.02 minutes
Total time:
	user time   =     484.77 seconds =       8.08 minutes
	system time =     184.17 seconds =       3.07 minutes
	total time  =         64 seconds =       1.07 minutes

*** tstart() called on Joses-MacBook-Pro-2.local
*** at Wed Jul 16 20:11:11 2025

         ------------------------------------------------------------
                                   SCF GRAD
                          Rob Parrish, Justin Turney,
                       Andy Simmonett, and Alex Sokolov
         ------------------------------------------------------------

  ==> Geometry <==

    Molecular point group: c2v
    Full point group: C_inf_v

    Geometry (in Angstrom), charge = 0, multiplicity = 5:

       Center              X                  Y                   Z               Mass
    ------------   -----------------  -----------------  -----------------  -----------------
         AL           0.000000000000     0.000000000000     2.933873598748    26.981538530000
         CL           0.000000000000     0.000000000000    -2.263740943023    34.968852682000

  Nuclear repulsion =   22.500353309812422

  ==> Basis Set <==

  Basis Set: CC-PVDZ
    Blend: CC-PVDZ
    Number of shells: 16
    Number of basis functions: 36
    Number of Cartesian functions: 38
    Spherical Harmonics?: true
    Max angular momentum: 2

  ==> DFJKGrad: Density-Fitted SCF Gradients <==

    Gradient:                    1
    J tasked:                  Yes
    K tasked:                  Yes
    wK tasked:                  No
    OpenMP threads:              1
    Integrals threads:           1
    Memory [MiB]:              375
    Schwarz Cutoff:          1E-12
    Fitting Condition:       1E-10

   => Auxiliary Basis Set <=

  Basis Set: (CC-PVDZ AUX)
    Blend: CC-PVDZ-JKFIT
    Number of shells: 72
    Number of basis functions: 224
    Number of Cartesian functions: 260
    Spherical Harmonics?: true
    Max angular momentum: 3

  ==> DFT Potential <==

   => LibXC <=

    Version 6.2.2
    S. Lehtola, C. Steigemann, M. J.T. Oliveira, and M. A.L. Marques.,  SoftwareX 7, 1â€“5 (2018) (10.1016/j.softx.2017.11.002)

   => Composite Functional: B3LYP <=

    B3LYP Hyb-GGA Exchange-Correlation Functional

    P. J. Stephens, F. J. Devlin, C. F. Chabalowski, and M. J. Frisch.,  J. Phys. Chem. 98, 11623 (1994) (10.1021/j100096a001)

    Deriv               =              1
    GGA                 =           TRUE
    Meta                =          FALSE

    Exchange Hybrid     =           TRUE
    MP2 Hybrid          =          FALSE

   => Exchange Functionals <=

    0.0800   Slater exchange
    0.7200         Becke 88

   => Exact (HF) Exchange <=

    0.2000               HF

   => Correlation Functionals <=

    0.1900   Vosko, Wilk & Nusair (VWN5_RPA)
    0.8100   Lee, Yang & Parr

   => LibXC Density Thresholds  <==

    XC_HYB_GGA_XC_B3LYP:  1.00E-15

   => Molecular Quadrature <=

    Radial Scheme          =       TREUTLER
    Pruning Scheme         =           NONE
    Nuclear Scheme         =       TREUTLER

    Blocking Scheme        =         OCTREE
    BS radius alpha        =              1
    Pruning alpha          =              1
    Radial Points          =             75
    Spherical Points       =            302
    Total Points           =          42849
    Total Blocks           =            451
    Max Points             =            254
    Max Functions          =             36
    Weights Tolerance      =       1.00E-15

  -Total Gradient:
     Atom            X                  Y                   Z
    ------   -----------------  -----------------  -----------------
       1        0.000000000000    -0.000000000000    -0.000243826548
       2        0.000000000000    -0.000000000000     0.000243591230

*** tstop() called on Joses-MacBook-Pro-2.local at Wed Jul 16 20:11:11 2025
Module time:
	user time   =       1.80 seconds =       0.03 minutes
	system time =       1.39 seconds =       0.02 minutes
	total time  =          0 seconds =       0.00 minutes
Total time:
	user time   =     486.57 seconds =       8.11 minutes
	system time =     185.56 seconds =       3.09 minutes
	total time  =         64 seconds =       1.07 minutes

    			-----------------------------------------

    			 OPTKING 3.0: for geometry optimizations

    			     By R.A. King, Bethel University

    			        with contributions from

    			    A.V. Copan, J. Cayton, A. Heide

    			-----------------------------------------

	                            ===> Fragment 1 <==

	 Z (Atomic Numbers)          Masses                          Geom
	      13.000000            26.981539          0.00000000  0.00000000  5.54421759
	      17.000000            34.968853          0.00000000  0.00000000 -4.27785040

	 - Coordinate -           - BOHR/RAD -       - ANG/DEG -
	 R(1,2)           =         9.822068           5.197615

	        --- Internal Coordinate Step in ANG or DEG, aJ/ANG or AJ/DEG ---
	-------------------------------------------------------------------------------
	           Coordinate      Previous         Force          Change          New
	           ----------      --------        ------          ------        ------
	               R(1,2)       5.19761        0.00201        0.00038       5.19800
	-------------------------------------------------------------------------------

	                                 ==> Convergence Check <==

	Measures of convergence in internal coordinates in au.

	Criteria marked as inactive (o), active & met (*), and active & unmet ( ).

	----------------------------------------------------------------------------------------------
	   Step    Total Energy     Delta E     Max Force     RMS Force      Max Disp      RMS Disp
	----------------------------------------------------------------------------------------------
	  Convergence Criteria     1.00e-06 *    3.00e-04 *             o    1.20e-03 *             o
	----------------------------------------------------------------------------------------------
	    55    -702.40110018   -2.23e-04      2.44e-04 *    2.44e-04 o    7.25e-04 *    7.25e-04 o  ~
	----------------------------------------------------------------------------------------------

Next Geometry in Ang
	Fragment 1 (Ang)

	   Al   0.0000000000   0.0000000000   2.9340653736
	   Cl   0.0000000000   0.0000000000  -2.2639327179

    Final optimized geometry and variables:
    Molecular point group: c2v
    Full point group: C_inf_v

    Geometry (in Angstrom), charge = 0, multiplicity = 5:

    AL           0.000000000000     0.000000000000     2.933873598748
    CL           0.000000000000     0.000000000000    -2.263740943023

    Psi4 stopped on: Wednesday, 16 July 2025 08:11PM
    Psi4 wall time for execution: 0:01:05.43

*** Psi4 exiting successfully. Buy a developer a beer!
