                               Psi4 1.9.1 release

  ==> Input File <==

--------------------------------------------------------------------------
molecule {
0 5
H   0.00000        0.60000        0.00000
Li   0.00000       -0.60000        0.00000
}

set {
basis              cc-pvdz
reference          uks
maxiter            500
geom_maxiter       500
DAMPING_PERCENTAGE 1
guess              SAP
}

optimize('b3lyp')
--------------------------------------------------------------------------

    Molecular point group: c2v
  Charge       = 0
  Multiplicity = 5
  Basis Set: CC-PVDZ
    Blend: CC-PVDZ
  Basis Set: (CC-PVDZ AUX)
    Blend: CC-PVDZ-JKFIT + DEF2-UNIVERSAL-JKFIT
  @DF-UKS Final Energy:    -5.72117680243231
    Total Energy =                         -5.7211768024323106
 Dipole X            :          0.0000000            0.0000000            0.0000000
 Dipole Y            :          0.0000000            0.0000000            0.0000000
 Dipole Z            :         -0.0181164            1.1283569            1.1102405
 Magnitude           :                                                    1.1102405
    Molecular point group: c2v
  Basis Set: CC-PVDZ
    Blend: CC-PVDZ
  Basis Set: (CC-PVDZ AUX)
    Blend: CC-PVDZ-JKFIT + DEF2-UNIVERSAL-JKFIT
  Basis Set: CC-PVDZ
    Blend: CC-PVDZ
  Basis Set: (CC-PVDZ AUX)
    Blend: CC-PVDZ-JKFIT + DEF2-UNIVERSAL-JKFIT
  @DF-UKS Final Energy:    -5.73477331328534
    Total Energy =                         -5.7347733132853351
  Basis Set: CC-PVDZ
    Blend: CC-PVDZ
  Basis Set: (CC-PVDZ AUX)
    Blend: CC-PVDZ-JKFIT + DEF2-UNIVERSAL-JKFIT
  Basis Set: CC-PVDZ
    Blend: CC-PVDZ
  @DF-UKS Final Energy:    -5.73825435208440
    Total Energy =                         -5.7382543520843985
  @DF-UKS Final Energy:    -5.74106724531158
    Total Energy =                         -5.7410672453115765
  @DF-UKS Final Energy:    -5.74820304422984
    Total Energy =                         -5.7482030442298386
  @DF-UKS Final Energy:    -5.75540500808217
    Total Energy =                         -5.7554050080821710
  @DF-UKS Final Energy:    -5.75647304254897
    Total Energy =                         -5.7564730425489685
  @DF-UKS Final Energy:    -5.75895706933187
    Total Energy =                         -5.7589570693318670
  @DF-UKS Final Energy:    -5.75924954295793
    Total Energy =                         -5.7592495429579289
  @DF-UKS Final Energy:    -5.76037773310369
    Total Energy =                         -5.7603777331036934
  @DF-UKS Final Energy:    -5.76046028729912
    Total Energy =                         -5.7604602872991197
  @DF-UKS Final Energy:    -5.76104799330034
    Total Energy =                         -5.7610479933003402
  @DF-UKS Final Energy:    -5.76107523091529
    Total Energy =                         -5.7610752309152939
  @DF-UKS Final Energy:    -5.76144012829432
    Total Energy =                         -5.7614401282943151
  @DF-UKS Final Energy:    -5.76145154514209
    Total Energy =                         -5.7614515451420854
  @DF-UKS Final Energy:    -5.76171320225614
    Total Energy =                         -5.7617132022561357
  @DF-UKS Final Energy:    -5.76171884340234
    Total Energy =                         -5.7617188434023383
  @DF-UKS Final Energy:    -5.76172438716497
    Total Energy =                         -5.7617243871649748
  @DF-UKS Final Energy:    -5.76189934707447
    Total Energy =                         -5.7618993470744666
  @DF-UKS Final Energy:    -5.76190188394800
    Total Energy =                         -5.7619018839480036
  @DF-UKS Final Energy:    -5.76190437961928
    Total Energy =                         -5.7619043796192821
  @DF-UKS Final Energy:    -5.76190683353786
    Total Energy =                         -5.7619068335378651
  Basis Set: (CC-PVDZ AUX)
    Blend: CC-PVDZ-JKFIT + DEF2-UNIVERSAL-JKFIT
  Basis Set: CC-PVDZ
    Blend: CC-PVDZ
  Basis Set: (CC-PVDZ AUX)
    Blend: CC-PVDZ-JKFIT + DEF2-UNIVERSAL-JKFIT
  @DF-UKS Final Energy:    -5.76200347163377
    Total Energy =                         -5.7620034716337702
  Basis Set: CC-PVDZ
    Blend: CC-PVDZ
  Basis Set: (CC-PVDZ AUX)
    Blend: CC-PVDZ-JKFIT + DEF2-UNIVERSAL-JKFIT
  Charge       = 0
  Multiplicity = 5
  Basis Set: CC-PVDZ
    Blend: CC-PVDZ
  Basis Set: (CC-PVDZ AUX)
    Blend: CC-PVDZ-JKFIT + DEF2-UNIVERSAL-JKFIT

    Orbital Energies [Eh]
    ---------------------

    Alpha Occupied:

       1A1    -3.246742     2A1    -0.324018     3A1    -0.238062
       1B1    -0.163430

    Alpha Virtual:

       1B2    -0.102294     4A1    -0.101981     2B2     0.036055
       2B1     0.036123     5A1     0.039986     6A1     0.061995
       1A2     0.160249     3B1     0.160340     7A1     0.165388
       8A1     0.172724     3B2     0.173445     9A1     0.448123
       4B2     1.205803     4B1     1.205895    10A1     1.209332

    Beta Occupied:

    Beta Virtual:

       1A1    -2.241677     2A1    -0.075012     3A1    -0.032734
       1B2    -0.014819     4A1    -0.004940     1B1     0.009463
       2B2     0.063444     5A1     0.073941     2B1     0.077827
       6A1     0.108584     3B2     0.246529     7A1     0.246820
       3B1     0.266295     1A2     0.266380     8A1     0.273321
       9A1     0.685314     4B2     1.454417     4B1     1.454510
      10A1     1.457644

    Final Occupation by Irrep:
             A1    A2    B1    B2
    DOCC [     0,    0,    0,    0 ]
    SOCC [     3,    0,    1,    0 ]
    NA   [     3,    0,    1,    0 ]
    NB   [     0,    0,    0,    0 ]

  @DF-UKS Final Energy:    -5.76200434756742

   => Energetics <=

    Nuclear Repulsion Energy =              0.3301539392286063
    One-Electron Energy =                  -7.3257138883767148
    Two-Electron Energy =                   2.4536362320839116
    DFT Exchange-Correlation Energy =      -1.2200806305032270
    Empirical Dispersion Energy =           0.0000000000000000
    VV10 Nonlocal Energy =                  0.0000000000000000
    Total Energy =                         -5.7620043475674239

  UHF NO Occupations:
  HONO-2 :    2 A1 1.0000000
  HONO-1 :    1 B1 1.0000000
  HONO-0 :    3 A1 1.0000000
  LUNO+0 :    4 A1 0.0000000
  LUNO+1 :    2 B1 0.0000000
  LUNO+2 :    5 A1 0.0000000
  LUNO+3 :    6 A1 0.0000000

Computation Completed

Properties will be evaluated at   0.000000,   0.000000,   0.000000 [a0]

Properties computed using the SCF density matrix

 Multipole Moments:

 ------------------------------------------------------------------------------------
     Multipole            Electronic (a.u.)      Nuclear  (a.u.)        Total (a.u.)
 ------------------------------------------------------------------------------------

 L = 1.  Multiply by 2.5417464519 to convert [e a0] to [Debye]
 Dipole X            :          0.0000000            0.0000000            0.0000000
 Dipole Y            :          0.0000000            0.0000000            0.0000000
 Dipole Z            :         -4.4980656            4.5213814            0.0233158
 Magnitude           :                                                    0.0233158

 ------------------------------------------------------------------------------------

*** tstop() called on Joses-MacBook-Pro-2.local at Wed Jul 16 18:12:17 2025
Module time:
	user time   =       0.49 seconds =       0.01 minutes
	system time =       2.33 seconds =       0.04 minutes
	total time  =          0 seconds =       0.00 minutes
Total time:
	user time   =      24.83 seconds =       0.41 minutes
	system time =      95.81 seconds =       1.60 minutes
	total time  =         12 seconds =       0.20 minutes

*** tstart() called on Joses-MacBook-Pro-2.local
*** at Wed Jul 16 18:12:17 2025

         ------------------------------------------------------------
                                   SCF GRAD
                          Rob Parrish, Justin Turney,
                       Andy Simmonett, and Alex Sokolov
         ------------------------------------------------------------

  ==> Geometry <==

    Molecular point group: c2v
    Full point group: C_inf_v

    Geometry (in Angstrom), charge = 0, multiplicity = 5:

       Center              X                  Y                   Z               Mass
    ------------   -----------------  -----------------  -----------------  -----------------
         H            0.000000000000     0.000000000000     4.204497138743     1.007825032230
         LI           0.000000000000     0.000000000000    -0.603961714480     7.016003436600

  Nuclear repulsion =    0.330153939228606

  ==> Basis Set <==

  Basis Set: CC-PVDZ
    Blend: CC-PVDZ
    Number of shells: 9
    Number of basis functions: 19
    Number of Cartesian functions: 20
    Spherical Harmonics?: true
    Max angular momentum: 2

  ==> DFJKGrad: Density-Fitted SCF Gradients <==

    Gradient:                    1
    J tasked:                  Yes
    K tasked:                  Yes
    wK tasked:                  No
    OpenMP threads:              1
    Integrals threads:           1
    Memory [MiB]:              375
    Schwarz Cutoff:          1E-12
    Fitting Condition:       1E-10

   => Auxiliary Basis Set <=

  Basis Set: (CC-PVDZ AUX)
    Blend: CC-PVDZ-JKFIT + DEF2-UNIVERSAL-JKFIT
    Number of shells: 26
    Number of basis functions: 74
    Number of Cartesian functions: 85
    Spherical Harmonics?: true
    Max angular momentum: 3

  ==> DFT Potential <==

   => LibXC <=

    Version 6.2.2
    S. Lehtola, C. Steigemann, M. J.T. Oliveira, and M. A.L. Marques.,  SoftwareX 7, 1â€“5 (2018) (10.1016/j.softx.2017.11.002)

   => Composite Functional: B3LYP <=

    B3LYP Hyb-GGA Exchange-Correlation Functional

    P. J. Stephens, F. J. Devlin, C. F. Chabalowski, and M. J. Frisch.,  J. Phys. Chem. 98, 11623 (1994) (10.1021/j100096a001)

    Deriv               =              1
    GGA                 =           TRUE
    Meta                =          FALSE

    Exchange Hybrid     =           TRUE
    MP2 Hybrid          =          FALSE

   => Exchange Functionals <=

    0.0800   Slater exchange
    0.7200         Becke 88

   => Exact (HF) Exchange <=

    0.2000               HF

   => Correlation Functionals <=

    0.1900   Vosko, Wilk & Nusair (VWN5_RPA)
    0.8100   Lee, Yang & Parr

   => LibXC Density Thresholds  <==

    XC_HYB_GGA_XC_B3LYP:  1.00E-15

   => Molecular Quadrature <=

    Radial Scheme          =       TREUTLER
    Pruning Scheme         =           NONE
    Nuclear Scheme         =       TREUTLER

    Blocking Scheme        =         OCTREE
    BS radius alpha        =              1
    Pruning alpha          =              1
    Radial Points          =             75
    Spherical Points       =            302
    Total Points           =          44423
    Total Blocks           =            437
    Max Points             =            255
    Max Functions          =             19
    Weights Tolerance      =       1.00E-15

  -Total Gradient:
     Atom            X                  Y                   Z
    ------   -----------------  -----------------  -----------------
       1        0.000000000000    -0.000000000000    -0.000101448101
       2        0.000000000000     0.000000000000     0.000099115055

*** tstop() called on Joses-MacBook-Pro-2.local at Wed Jul 16 18:12:17 2025
Module time:
	user time   =       0.23 seconds =       0.00 minutes
	system time =       0.94 seconds =       0.02 minutes
	total time  =          0 seconds =       0.00 minutes
Total time:
	user time   =      25.07 seconds =       0.42 minutes
	system time =      96.75 seconds =       1.61 minutes
	total time  =         12 seconds =       0.20 minutes

    			-----------------------------------------

    			 OPTKING 3.0: for geometry optimizations

    			     By R.A. King, Bethel University

    			        with contributions from

    			    A.V. Copan, J. Cayton, A. Heide

    			-----------------------------------------

	                            ===> Fragment 1 <==

	 Z (Atomic Numbers)          Masses                          Geom
	       1.000000             1.007825          0.00000000  0.00000000  7.94534809
	       3.000000             7.016003          0.00000000  0.00000000 -1.14132223

	 - Coordinate -           - BOHR/RAD -       - ANG/DEG -
	 R(1,2)           =         9.086670           4.808459

	        --- Internal Coordinate Step in ANG or DEG, aJ/ANG or AJ/DEG ---
	-------------------------------------------------------------------------------
	           Coordinate      Previous         Force          Change          New
	           ----------      --------        ------          ------        ------
	               R(1,2)       4.80846        0.00083        0.00465       4.81311
	-------------------------------------------------------------------------------

	                                 ==> Convergence Check <==

	Measures of convergence in internal coordinates in au.

	Criteria marked as inactive (o), active & met (*), and active & unmet ( ).

	----------------------------------------------------------------------------------------------
	   Step    Total Energy     Delta E     Max Force     RMS Force      Max Disp      RMS Disp
	----------------------------------------------------------------------------------------------
	  Convergence Criteria     1.00e-06 *    3.00e-04 *             o    1.20e-03 *             o
	----------------------------------------------------------------------------------------------
	    24      -5.76200435   -8.76e-07 *    1.00e-04 *    1.00e-04 o    8.79e-03      8.79e-03 o  ~
	----------------------------------------------------------------------------------------------

Next Geometry in Ang
	Fragment 1 (Ang)

	    H   0.0000000000   0.0000000000   4.2068238341
	   Li   0.0000000000   0.0000000000  -0.6062884098

    Final optimized geometry and variables:
    Molecular point group: c2v
    Full point group: C_inf_v

    Geometry (in Angstrom), charge = 0, multiplicity = 5:

    H            0.000000000000     0.000000000000     4.204497138743
    LI           0.000000000000     0.000000000000    -0.603961714480

    Psi4 stopped on: Wednesday, 16 July 2025 06:12PM
    Psi4 wall time for execution: 0:00:12.76

*** Psi4 exiting successfully. Buy a developer a beer!
