                               Psi4 1.9.1 release

  ==> Input File <==

--------------------------------------------------------------------------
molecule {
0 5
Si   0.00000        0.60000        0.00000
Ar   0.00000       -0.60000        0.00000
}

set {
basis              cc-pvdz
reference          uks
maxiter            500
geom_maxiter       500
DAMPING_PERCENTAGE 1
guess              SAP
}

optimize('b3lyp')
--------------------------------------------------------------------------

    Molecular point group: c2v
  Charge       = 0
  Multiplicity = 5
  Basis Set: CC-PVDZ
    Blend: CC-PVDZ
  Basis Set: (CC-PVDZ AUX)
    Blend: CC-PVDZ-JKFIT
  @DF-UKS Final Energy:  -815.29744670176865
    Total Energy =                       -815.2974467017686493
 Dipole X            :          0.0000000            0.0000000            0.0000000
 Dipole Y            :          0.0000000            0.0000000            0.0000000
 Dipole Z            :         -3.3029586            1.8654469           -1.4375118
 Magnitude           :                                                    1.4375118
    Molecular point group: c2v
  Basis Set: CC-PVDZ
    Blend: CC-PVDZ
  Basis Set: (CC-PVDZ AUX)
    Blend: CC-PVDZ-JKFIT
  Basis Set: CC-PVDZ
    Blend: CC-PVDZ
  Basis Set: (CC-PVDZ AUX)
    Blend: CC-PVDZ-JKFIT
  @DF-UKS Final Energy:  -815.33798300333933
    Total Energy =                       -815.3379830033393318
  Basis Set: CC-PVDZ
    Blend: CC-PVDZ
  Basis Set: (CC-PVDZ AUX)
    Blend: CC-PVDZ-JKFIT
  Basis Set: CC-PVDZ
    Blend: CC-PVDZ
  @DF-UKS Final Energy:  -815.41317043018239
    Total Energy =                       -815.4131704301822765
  @DF-UKS Final Energy:  -815.65778370249666
    Total Energy =                       -815.6577837024966584
  @DF-UKS Final Energy:  -816.18029851289282
    Total Energy =                       -816.1802985128928185
  @DF-UKS Final Energy:  -816.37471791260259
    Total Energy =                       -816.3747179126027049
  @DF-UKS Final Energy:  -816.51410488629460
    Total Energy =                       -816.5141048862946036
  @DF-UKS Final Energy:  -816.61217966901518
    Total Energy =                       -816.6121796690151768
  @DF-UKS Final Energy:  -816.68427159477471
    Total Energy =                       -816.6842715947747138
  @DF-UKS Final Energy:  -816.72303433769378
    Total Energy =                       -816.7230343376937753
  @DF-UKS Final Energy:  -816.74296175683571
    Total Energy =                       -816.7429617568358253
  @DF-UKS Final Energy:  -816.75333934828552
    Total Energy =                       -816.7533393482855217
  @DF-UKS Final Energy:  -816.75893200687915
    Total Energy =                       -816.7589320068791494
  @DF-UKS Final Energy:  -816.76198055465295
    Total Energy =                       -816.7619805546529506
  @DF-UKS Final Energy:  -816.76360310965163
    Total Energy =                       -816.7636031096516263
  @DF-UKS Final Energy:  -816.76441921791411
    Total Energy =                       -816.7644192179141100
  @DF-UKS Final Energy:  -816.76479992520706
    Total Energy =                       -816.7647999252069440
  @DF-UKS Final Energy:  -816.76496261809950
    Total Energy =                       -816.7649626180995028
  @DF-UKS Final Energy:  -816.76502495272939
    Total Energy =                       -816.7650249527293909
  @DF-UKS Final Energy:  -816.76504497616588
    Total Energy =                       -816.7650449761658820
  @DF-UKS Final Energy:  -816.76504893056278
    Total Energy =                       -816.7650489305627843
  Basis Set: (CC-PVDZ AUX)
    Blend: CC-PVDZ-JKFIT
  Basis Set: CC-PVDZ
    Blend: CC-PVDZ
  Basis Set: (CC-PVDZ AUX)
    Blend: CC-PVDZ-JKFIT
  @DF-UKS Final Energy:  -816.76505005249601
    Total Energy =                       -816.7650500524961217
  Basis Set: CC-PVDZ
    Blend: CC-PVDZ
  Basis Set: (CC-PVDZ AUX)
    Blend: CC-PVDZ-JKFIT
  Charge       = 0
  Multiplicity = 5
  Basis Set: CC-PVDZ
    Blend: CC-PVDZ
  Basis Set: (CC-PVDZ AUX)
    Blend: CC-PVDZ-JKFIT

    Orbital Energies [Eh]
    ---------------------

    Alpha Occupied:

       1A1  -115.099267     2A1   -66.208492     3A1   -11.135322
       4A1    -8.685281     1B1    -8.685164     1B2    -8.685164
       5A1    -5.352610     2B2    -3.712512     2B1    -3.712512
       6A1    -3.712501     7A1    -0.963541     8A1    -0.506271
       9A1    -0.421525     3B2    -0.421070     3B1    -0.421070
       4B2    -0.223981     4B1    -0.223981    10A1    -0.223539

    Alpha Virtual:

      11A1     0.216869    12A1     0.274656     5B1     0.278447
       5B2     0.278447    13A1     0.303009     6B2     0.304440
       6B1     0.304440     1A2     0.304480    14A1     0.304484
       7B1     0.584130     7B2     0.584130    15A1     0.615253
      16A1     0.743257     8B2     0.836706     8B1     0.836706
       2A2     0.836815    17A1     0.836819    18A1     0.838628

    Beta Occupied:

       1A1  -115.099203     2A1   -66.192408     3A1   -11.135258
       4A1    -8.685117     1B1    -8.685114     1B2    -8.685114
       5A1    -5.331590     2B2    -3.689962     2B1    -3.689962
       6A1    -3.689919     7A1    -0.963268     8A1    -0.421343
       3B2    -0.421002     3B1    -0.421002

    Beta Virtual:

       9A1    -0.277779     4B2    -0.038250     4B1    -0.038250
      10A1    -0.037977    11A1     0.286855    12A1     0.343680
       5B1     0.354438     5B2     0.354438    13A1     0.445610
       1A2     0.446653    14A1     0.446659     6B2     0.448245
       6B1     0.448245     7B1     0.584136     7B2     0.584136
      15A1     0.619980    16A1     0.745571     2A2     0.836903
      17A1     0.836907     8B2     0.836988     8B1     0.836988
      18A1     0.839225

    Final Occupation by Irrep:
             A1    A2    B1    B2
    DOCC [     8,    0,    3,    3 ]
    SOCC [     2,    0,    1,    1 ]
    NA   [    10,    0,    4,    4 ]
    NB   [     8,    0,    3,    3 ]

  @DF-UKS Final Energy:  -816.76505020039201

   => Energetics <=

    Nuclear Repulsion Energy =             31.3301473664572292
    One-Electron Energy =               -1191.0555813776595642
    Two-Electron Energy =                 384.6443825289961183
    DFT Exchange-Correlation Energy =     -41.6839987181856202
    Empirical Dispersion Energy =           0.0000000000000000
    VV10 Nonlocal Energy =                  0.0000000000000000
    Total Energy =                       -816.7650502003918973

  UHF NO Occupations:
  HONO-2 :    4 B1 1.0000000
  HONO-1 :   10 A1 1.0000000
  HONO-0 :    4 B2 1.0000000
  LUNO+0 :   11 A1 0.0000029
  LUNO+1 :    5 B2 0.0000002
  LUNO+2 :    5 B1 0.0000002
  LUNO+3 :   12 A1 0.0000001

Computation Completed

Properties will be evaluated at   0.000000,   0.000000,   0.000000 [a0]

Properties computed using the SCF density matrix

 Multipole Moments:

 ------------------------------------------------------------------------------------
     Multipole            Electronic (a.u.)      Nuclear  (a.u.)        Total (a.u.)
 ------------------------------------------------------------------------------------

 L = 1.  Multiply by 2.5417464519 to convert [e a0] to [Debye]
 Dipole X            :          0.0000000            0.0000000            0.0000000
 Dipole Y            :          0.0000000            0.0000000            0.0000000
 Dipole Z            :         -6.6437216            6.6166913           -0.0270303
 Magnitude           :                                                    0.0270303

 ------------------------------------------------------------------------------------

*** tstop() called on Joses-MacBook-Pro-2.local at Wed Jul 16 20:20:47 2025
Module time:
	user time   =       5.78 seconds =       0.10 minutes
	system time =       2.32 seconds =       0.04 minutes
	total time  =          1 seconds =       0.02 minutes
Total time:
	user time   =     362.21 seconds =       6.04 minutes
	system time =      78.71 seconds =       1.31 minutes
	total time  =         44 seconds =       0.73 minutes

*** tstart() called on Joses-MacBook-Pro-2.local
*** at Wed Jul 16 20:20:47 2025

         ------------------------------------------------------------
                                   SCF GRAD
                          Rob Parrish, Justin Turney,
                       Andy Simmonett, and Alex Sokolov
         ------------------------------------------------------------

  ==> Geometry <==

    Molecular point group: c2v
    Full point group: C_inf_v

    Geometry (in Angstrom), charge = 0, multiplicity = 5:

       Center              X                  Y                   Z               Mass
    ------------   -----------------  -----------------  -----------------  -----------------
         SI           0.000000000000     0.000000000000     2.503626186538    27.976926534650
         AR           0.000000000000     0.000000000000    -1.752742464687    39.962383123700

  Nuclear repulsion =   31.330147366457229

  ==> Basis Set <==

  Basis Set: CC-PVDZ
    Blend: CC-PVDZ
    Number of shells: 16
    Number of basis functions: 36
    Number of Cartesian functions: 38
    Spherical Harmonics?: true
    Max angular momentum: 2

  ==> DFJKGrad: Density-Fitted SCF Gradients <==

    Gradient:                    1
    J tasked:                  Yes
    K tasked:                  Yes
    wK tasked:                  No
    OpenMP threads:              1
    Integrals threads:           1
    Memory [MiB]:              375
    Schwarz Cutoff:          1E-12
    Fitting Condition:       1E-10

   => Auxiliary Basis Set <=

  Basis Set: (CC-PVDZ AUX)
    Blend: CC-PVDZ-JKFIT
    Number of shells: 72
    Number of basis functions: 224
    Number of Cartesian functions: 260
    Spherical Harmonics?: true
    Max angular momentum: 3

  ==> DFT Potential <==

   => LibXC <=

    Version 6.2.2
    S. Lehtola, C. Steigemann, M. J.T. Oliveira, and M. A.L. Marques.,  SoftwareX 7, 1â€“5 (2018) (10.1016/j.softx.2017.11.002)

   => Composite Functional: B3LYP <=

    B3LYP Hyb-GGA Exchange-Correlation Functional

    P. J. Stephens, F. J. Devlin, C. F. Chabalowski, and M. J. Frisch.,  J. Phys. Chem. 98, 11623 (1994) (10.1021/j100096a001)

    Deriv               =              1
    GGA                 =           TRUE
    Meta                =          FALSE

    Exchange Hybrid     =           TRUE
    MP2 Hybrid          =          FALSE

   => Exchange Functionals <=

    0.0800   Slater exchange
    0.7200         Becke 88

   => Exact (HF) Exchange <=

    0.2000               HF

   => Correlation Functionals <=

    0.1900   Vosko, Wilk & Nusair (VWN5_RPA)
    0.8100   Lee, Yang & Parr

   => LibXC Density Thresholds  <==

    XC_HYB_GGA_XC_B3LYP:  1.00E-15

   => Molecular Quadrature <=

    Radial Scheme          =       TREUTLER
    Pruning Scheme         =           NONE
    Nuclear Scheme         =       TREUTLER

    Blocking Scheme        =         OCTREE
    BS radius alpha        =              1
    Pruning alpha          =              1
    Radial Points          =             75
    Spherical Points       =            302
    Total Points           =          41786
    Total Blocks           =            429
    Max Points             =            256
    Max Functions          =             36
    Weights Tolerance      =       1.00E-15

  -Total Gradient:
     Atom            X                  Y                   Z
    ------   -----------------  -----------------  -----------------
       1       -0.000000000000     0.000000000000    -0.000007055969
       2        0.000000000000     0.000000000000     0.000001175265

*** tstop() called on Joses-MacBook-Pro-2.local at Wed Jul 16 20:20:47 2025
Module time:
	user time   =       1.78 seconds =       0.03 minutes
	system time =       1.64 seconds =       0.03 minutes
	total time  =          0 seconds =       0.00 minutes
Total time:
	user time   =     364.00 seconds =       6.07 minutes
	system time =      80.35 seconds =       1.34 minutes
	total time  =         44 seconds =       0.73 minutes

    			-----------------------------------------

    			 OPTKING 3.0: for geometry optimizations

    			     By R.A. King, Bethel University

    			        with contributions from

    			    A.V. Copan, J. Cayton, A. Heide

    			-----------------------------------------

	                            ===> Fragment 1 <==

	 Z (Atomic Numbers)          Masses                          Geom
	      14.000000            27.976927          0.00000000  0.00000000  4.73116781
	      18.000000            39.962383          0.00000000  0.00000000 -3.31220323

	 - Coordinate -           - BOHR/RAD -       - ANG/DEG -
	 R(1,2)           =         8.043371           4.256369

	        --- Internal Coordinate Step in ANG or DEG, aJ/ANG or AJ/DEG ---
	-------------------------------------------------------------------------------
	           Coordinate      Previous         Force          Change          New
	           ----------      --------        ------          ------        ------
	               R(1,2)       4.25637        0.00003        0.00532       4.26169
	-------------------------------------------------------------------------------

	                                 ==> Convergence Check <==

	Measures of convergence in internal coordinates in au.

	Criteria marked as inactive (o), active & met (*), and active & unmet ( ).

	----------------------------------------------------------------------------------------------
	   Step    Total Energy     Delta E     Max Force     RMS Force      Max Disp      RMS Disp
	----------------------------------------------------------------------------------------------
	  Convergence Criteria     1.00e-06 *    3.00e-04 *             o    1.20e-03 *             o
	----------------------------------------------------------------------------------------------
	    23    -816.76505020   -1.48e-07 *    4.12e-06 *    4.12e-06 o    1.00e-02      1.00e-02 o  ~
	----------------------------------------------------------------------------------------------

Next Geometry in Ang
	Fragment 1 (Ang)

	   Si   0.0000000000   0.0000000000   2.5062846978
	   Ar   0.0000000000   0.0000000000  -1.7554009760

    Final optimized geometry and variables:
    Molecular point group: c2v
    Full point group: C_inf_v

    Geometry (in Angstrom), charge = 0, multiplicity = 5:

    SI           0.000000000000     0.000000000000     2.503626186538
    AR           0.000000000000     0.000000000000    -1.752742464687

    Psi4 stopped on: Wednesday, 16 July 2025 08:20PM
    Psi4 wall time for execution: 0:00:45.14

*** Psi4 exiting successfully. Buy a developer a beer!
