                               Psi4 1.9.1 release

  ==> Input File <==

--------------------------------------------------------------------------
molecule {
0 5
C   0.00000        0.60000        0.00000
Ne   0.00000       -0.60000        0.00000
}

set {
basis              cc-pvdz
reference          uks
maxiter            500
geom_maxiter       500
DAMPING_PERCENTAGE 1
guess              SAP
}

optimize('b3lyp')
--------------------------------------------------------------------------

    Molecular point group: c2v
  Charge       = 0
  Multiplicity = 5
  Basis Set: CC-PVDZ
    Blend: CC-PVDZ
  Basis Set: (CC-PVDZ AUX)
    Blend: CC-PVDZ-JKFIT
  @DF-UKS Final Energy:  -166.22814108728664
    Total Energy =                       -166.2281410872866445
 Dipole X            :          0.0000000            0.0000000            0.0000000
 Dipole Y            :          0.0000000            0.0000000            0.0000000
 Dipole Z            :         -0.8174389           -0.0032151           -0.8206540
 Magnitude           :                                                    0.8206540
    Molecular point group: c2v
  Basis Set: CC-PVDZ
    Blend: CC-PVDZ
  Basis Set: (CC-PVDZ AUX)
    Blend: CC-PVDZ-JKFIT
  Basis Set: CC-PVDZ
    Blend: CC-PVDZ
  Basis Set: (CC-PVDZ AUX)
    Blend: CC-PVDZ-JKFIT
  @DF-UKS Final Energy:  -166.43571002679911
    Total Energy =                       -166.4357100267991143
  Basis Set: CC-PVDZ
    Blend: CC-PVDZ
  Basis Set: (CC-PVDZ AUX)
    Blend: CC-PVDZ-JKFIT
  Basis Set: CC-PVDZ
    Blend: CC-PVDZ
  @DF-UKS Final Energy:  -166.52381201319375
    Total Energy =                       -166.5238120131937194
  @DF-UKS Final Energy:  -166.55565198266356
    Total Energy =                       -166.5556519826635622
  @DF-UKS Final Energy:  -166.57310891346359
    Total Energy =                       -166.5731089134635852
  @DF-UKS Final Energy:  -166.58207068269914
    Total Energy =                       -166.5820706826991682
  @DF-UKS Final Energy:  -166.58672664523999
    Total Energy =                       -166.5867266452399917
  @DF-UKS Final Energy:  -166.58895684567989
    Total Energy =                       -166.5889568456798600
  @DF-UKS Final Energy:  -166.58987263172992
    Total Energy =                       -166.5898726317299179
  @DF-UKS Final Energy:  -166.59017268077309
    Total Energy =                       -166.5901726807730654
  @DF-UKS Final Energy:  -166.59023289012748
    Total Energy =                       -166.5902328901274814
  @DF-UKS Final Energy:  -166.59025024336961
    Total Energy =                       -166.5902502433696384
  Basis Set: (CC-PVDZ AUX)
    Blend: CC-PVDZ-JKFIT
  Basis Set: CC-PVDZ
    Blend: CC-PVDZ
  Basis Set: (CC-PVDZ AUX)
    Blend: CC-PVDZ-JKFIT
  @DF-UKS Final Energy:  -166.59025241172094
    Total Energy =                       -166.5902524117209396
  Basis Set: CC-PVDZ
    Blend: CC-PVDZ
  Basis Set: (CC-PVDZ AUX)
    Blend: CC-PVDZ-JKFIT
  Charge       = 0
  Multiplicity = 5
  Basis Set: CC-PVDZ
    Blend: CC-PVDZ
  Basis Set: (CC-PVDZ AUX)
    Blend: CC-PVDZ-JKFIT

    Orbital Energies [Eh]
    ---------------------

    Alpha Occupied:

       1A1   -30.966601     2A1   -10.307494     3A1    -1.431062
       4A1    -0.630883     5A1    -0.540461     1B2    -0.538942
       1B1    -0.538942     2B1    -0.284266     2B2    -0.284266
       6A1    -0.282241

    Alpha Virtual:

       3B1     0.440051     3B2     0.440051     7A1     0.448071
       8A1     0.521543     9A1     1.075195     4B2     1.086200
       4B1     1.086200     1A2     1.086599    10A1     1.086599
       5B1     1.364614     5B2     1.364614    11A1     1.434126
      12A1     1.864748     6B2     4.725910     6B1     4.725910
       2A2     4.726575    13A1     4.726662    14A1     4.727343

    Beta Occupied:

       1A1   -30.966068     2A1   -10.238476     3A1    -1.430060
       4A1    -0.539492     1B2    -0.538508     1B1    -0.538508

    Beta Virtual:

       5A1    -0.265381     6A1     0.018772     2B2     0.018828
       2B1     0.018828     7A1     0.571938     3B2     0.575509
       3B1     0.575509     8A1     0.664787     9A1     1.287756
       4B2     1.316211     4B1     1.316211    10A1     1.319141
       1A2     1.319141     5B1     1.367109     5B2     1.367109
      11A1     1.456281    12A1     1.868741     2A2     4.726891
      13A1     4.726978     6B2     4.726988     6B1     4.726988
      14A1     4.728685

    Final Occupation by Irrep:
             A1    A2    B1    B2
    DOCC [     4,    0,    1,    1 ]
    SOCC [     2,    0,    1,    1 ]
    NA   [     6,    0,    2,    2 ]
    NB   [     4,    0,    1,    1 ]

  @DF-UKS Final Energy:  -166.59025266185841

   => Energetics <=

    Nuclear Repulsion Energy =             11.2868445499054566
    One-Electron Energy =                -255.3764130852089806
    Two-Electron Energy =                  91.9032560781205490
    DFT Exchange-Correlation Energy =     -14.4039402046754130
    Empirical Dispersion Energy =           0.0000000000000000
    VV10 Nonlocal Energy =                  0.0000000000000000
    Total Energy =                       -166.5902526618583863

  UHF NO Occupations:
  HONO-2 :    5 A1 1.0000000
  HONO-1 :    2 B1 1.0000000
  HONO-0 :    6 A1 1.0000000
  LUNO+0 :    7 A1 0.0000127
  LUNO+1 :    8 A1 0.0000007
  LUNO+2 :    3 B2 0.0000001
  LUNO+3 :    3 B1 0.0000001

Computation Completed

Properties will be evaluated at   0.000000,   0.000000,   0.000000 [a0]

Properties computed using the SCF density matrix

 Multipole Moments:

 ------------------------------------------------------------------------------------
     Multipole            Electronic (a.u.)      Nuclear  (a.u.)        Total (a.u.)
 ------------------------------------------------------------------------------------

 L = 1.  Multiply by 2.5417464519 to convert [e a0] to [Debye]
 Dipole X            :          0.0000000            0.0000000            0.0000000
 Dipole Y            :          0.0000000            0.0000000            0.0000000
 Dipole Z            :         -0.0455035           -0.0075369           -0.0530404
 Magnitude           :                                                    0.0530404

 ------------------------------------------------------------------------------------

*** tstop() called on Joses-MacBook-Pro-2.local at Wed Jul 16 19:01:02 2025
Module time:
	user time   =       2.37 seconds =       0.04 minutes
	system time =       3.06 seconds =       0.05 minutes
	total time  =          0 seconds =       0.00 minutes
Total time:
	user time   =      51.85 seconds =       0.86 minutes
	system time =      58.97 seconds =       0.98 minutes
	total time  =         10 seconds =       0.17 minutes

*** tstart() called on Joses-MacBook-Pro-2.local
*** at Wed Jul 16 19:01:02 2025

         ------------------------------------------------------------
                                   SCF GRAD
                          Rob Parrish, Justin Turney,
                       Andy Simmonett, and Alex Sokolov
         ------------------------------------------------------------

  ==> Geometry <==

    Molecular point group: c2v
    Full point group: C_inf_v

    Geometry (in Angstrom), charge = 0, multiplicity = 5:

       Center              X                  Y                   Z               Mass
    ------------   -----------------  -----------------  -----------------  -----------------
         C            0.000000000000     0.000000000000     1.757916644078    12.000000000000
         NE           0.000000000000     0.000000000000    -1.055148823406    19.992440176200

  Nuclear repulsion =   11.286844549905457

  ==> Basis Set <==

  Basis Set: CC-PVDZ
    Blend: CC-PVDZ
    Number of shells: 12
    Number of basis functions: 28
    Number of Cartesian functions: 30
    Spherical Harmonics?: true
    Max angular momentum: 2

  ==> DFJKGrad: Density-Fitted SCF Gradients <==

    Gradient:                    1
    J tasked:                  Yes
    K tasked:                  Yes
    wK tasked:                  No
    OpenMP threads:              1
    Integrals threads:           1
    Memory [MiB]:              375
    Schwarz Cutoff:          1E-12
    Fitting Condition:       1E-10

   => Auxiliary Basis Set <=

  Basis Set: (CC-PVDZ AUX)
    Blend: CC-PVDZ-JKFIT
    Number of shells: 48
    Number of basis functions: 140
    Number of Cartesian functions: 162
    Spherical Harmonics?: true
    Max angular momentum: 3

  ==> DFT Potential <==

   => LibXC <=

    Version 6.2.2
    S. Lehtola, C. Steigemann, M. J.T. Oliveira, and M. A.L. Marques.,  SoftwareX 7, 1â€“5 (2018) (10.1016/j.softx.2017.11.002)

   => Composite Functional: B3LYP <=

    B3LYP Hyb-GGA Exchange-Correlation Functional

    P. J. Stephens, F. J. Devlin, C. F. Chabalowski, and M. J. Frisch.,  J. Phys. Chem. 98, 11623 (1994) (10.1021/j100096a001)

    Deriv               =              1
    GGA                 =           TRUE
    Meta                =          FALSE

    Exchange Hybrid     =           TRUE
    MP2 Hybrid          =          FALSE

   => Exchange Functionals <=

    0.0800   Slater exchange
    0.7200         Becke 88

   => Exact (HF) Exchange <=

    0.2000               HF

   => Correlation Functionals <=

    0.1900   Vosko, Wilk & Nusair (VWN5_RPA)
    0.8100   Lee, Yang & Parr

   => LibXC Density Thresholds  <==

    XC_HYB_GGA_XC_B3LYP:  1.00E-15

   => Molecular Quadrature <=

    Radial Scheme          =       TREUTLER
    Pruning Scheme         =           NONE
    Nuclear Scheme         =       TREUTLER

    Blocking Scheme        =         OCTREE
    BS radius alpha        =              1
    Pruning alpha          =              1
    Radial Points          =             75
    Spherical Points       =            302
    Total Points           =          43409
    Total Blocks           =            388
    Max Points             =            256
    Max Functions          =             28
    Weights Tolerance      =       1.00E-15

  -Total Gradient:
     Atom            X                  Y                   Z
    ------   -----------------  -----------------  -----------------
       1       -0.000000000000     0.000000000000    -0.000021484760
       2        0.000000000000    -0.000000000000     0.000021410608

*** tstop() called on Joses-MacBook-Pro-2.local at Wed Jul 16 19:01:03 2025
Module time:
	user time   =       0.37 seconds =       0.01 minutes
	system time =       0.97 seconds =       0.02 minutes
	total time  =          1 seconds =       0.02 minutes
Total time:
	user time   =      52.22 seconds =       0.87 minutes
	system time =      59.94 seconds =       1.00 minutes
	total time  =         11 seconds =       0.18 minutes

    			-----------------------------------------

    			 OPTKING 3.0: for geometry optimizations

    			     By R.A. King, Bethel University

    			        with contributions from

    			    A.V. Copan, J. Cayton, A. Heide

    			-----------------------------------------

	                            ===> Fragment 1 <==

	 Z (Atomic Numbers)          Masses                          Geom
	       6.000000            12.000000          0.00000000  0.00000000  3.32198101
	      10.000000            19.992440          0.00000000  0.00000000 -1.99394230

	 - Coordinate -           - BOHR/RAD -       - ANG/DEG -
	 R(1,2)           =         5.315923           2.813065

	        --- Internal Coordinate Step in ANG or DEG, aJ/ANG or AJ/DEG ---
	-------------------------------------------------------------------------------
	           Coordinate      Previous         Force          Change          New
	           ----------      --------        ------          ------        ------
	               R(1,2)       2.81307        0.00018        0.00256       2.81563
	-------------------------------------------------------------------------------

	                                 ==> Convergence Check <==

	Measures of convergence in internal coordinates in au.

	Criteria marked as inactive (o), active & met (*), and active & unmet ( ).

	----------------------------------------------------------------------------------------------
	   Step    Total Energy     Delta E     Max Force     RMS Force      Max Disp      RMS Disp
	----------------------------------------------------------------------------------------------
	  Convergence Criteria     1.00e-06 *    3.00e-04 *             o    1.20e-03 *             o
	----------------------------------------------------------------------------------------------
	    14    -166.59025266   -2.50e-07 *    2.14e-05 *    2.14e-05 o    4.84e-03      4.84e-03 o  ~
	----------------------------------------------------------------------------------------------

Next Geometry in Ang
	Fragment 1 (Ang)

	    C   0.0000000000   0.0000000000   1.7591966403
	   Ne   0.0000000000   0.0000000000  -1.0564288196

    Final optimized geometry and variables:
    Molecular point group: c2v
    Full point group: C_inf_v

    Geometry (in Angstrom), charge = 0, multiplicity = 5:

    C            0.000000000000     0.000000000000     1.757916644078
    NE           0.000000000000     0.000000000000    -1.055148823406

    Psi4 stopped on: Wednesday, 16 July 2025 07:01PM
    Psi4 wall time for execution: 0:00:11.19

*** Psi4 exiting successfully. Buy a developer a beer!
