                               Psi4 1.9.1 release

  ==> Input File <==

--------------------------------------------------------------------------
molecule {
0 5
C   0.00000        0.60000        0.00000
Ar   0.00000       -0.60000        0.00000
}

set {
basis              cc-pvdz
reference          uks
maxiter            500
geom_maxiter       500
DAMPING_PERCENTAGE 1
guess              SAP
}

optimize('b3lyp')
--------------------------------------------------------------------------

    Molecular point group: c2v
  Charge       = 0
  Multiplicity = 5
  Basis Set: CC-PVDZ
    Blend: CC-PVDZ
  Basis Set: (CC-PVDZ AUX)
    Blend: CC-PVDZ-JKFIT
  @DF-UKS Final Energy:  -564.55611576974638
    Total Energy =                       -564.5561157697463841
 Dipole X            :          0.0000000            0.0000000            0.0000000
 Dipole Y            :          0.0000000            0.0000000            0.0000000
 Dipole Z            :         -1.1066701            1.0375255           -0.0691446
 Magnitude           :                                                    0.0691446
    Molecular point group: c2v
  Basis Set: CC-PVDZ
    Blend: CC-PVDZ
  Basis Set: (CC-PVDZ AUX)
    Blend: CC-PVDZ-JKFIT
  Basis Set: CC-PVDZ
    Blend: CC-PVDZ
  Basis Set: (CC-PVDZ AUX)
    Blend: CC-PVDZ-JKFIT
  @DF-UKS Final Energy:  -564.80619037632437
    Total Energy =                       -564.8061903763243663
  Basis Set: CC-PVDZ
    Blend: CC-PVDZ
  Basis Set: (CC-PVDZ AUX)
    Blend: CC-PVDZ-JKFIT
  Basis Set: CC-PVDZ
    Blend: CC-PVDZ
  @DF-UKS Final Energy:  -564.98279540449619
    Total Energy =                       -564.9827954044961871
  @DF-UKS Final Energy:  -565.10147265451303
    Total Energy =                       -565.1014726545130316
  @DF-UKS Final Energy:  -565.16731863479822
    Total Energy =                       -565.1673186347981073
  @DF-UKS Final Energy:  -565.19632242829618
    Total Energy =                       -565.1963224282961846
  @DF-UKS Final Energy:  -565.20993412179189
    Total Energy =                       -565.2099341217920028
  @DF-UKS Final Energy:  -565.21639479819669
    Total Energy =                       -565.2163947981966885
  @DF-UKS Final Energy:  -565.21948493329023
    Total Energy =                       -565.2194849332903459
  @DF-UKS Final Energy:  -565.22093978067187
    Total Energy =                       -565.2209397806717561
  @DF-UKS Final Energy:  -565.22160894845433
    Total Energy =                       -565.2216089484543318
  @DF-UKS Final Energy:  -565.22190813224802
    Total Energy =                       -565.2219081322479042
  @DF-UKS Final Energy:  -565.22200802278951
    Total Energy =                       -565.2220080227896233
  @DF-UKS Final Energy:  -565.22206401652249
    Total Energy =                       -565.2220640165226087
  @DF-UKS Final Energy:  -565.22208848495245
    Total Energy =                       -565.2220884849523372
  @DF-UKS Final Energy:  -565.22209462520993
    Total Energy =                       -565.2220946252098202
  Basis Set: (CC-PVDZ AUX)
    Blend: CC-PVDZ-JKFIT
  Basis Set: CC-PVDZ
    Blend: CC-PVDZ
  Basis Set: (CC-PVDZ AUX)
    Blend: CC-PVDZ-JKFIT
  @DF-UKS Final Energy:  -565.22209640941105
    Total Energy =                       -565.2220964094109377
  Basis Set: CC-PVDZ
    Blend: CC-PVDZ
  Basis Set: (CC-PVDZ AUX)
    Blend: CC-PVDZ-JKFIT
  Charge       = 0
  Multiplicity = 5
  Basis Set: CC-PVDZ
    Blend: CC-PVDZ
  Basis Set: (CC-PVDZ AUX)
    Blend: CC-PVDZ-JKFIT

    Orbital Energies [Eh]
    ---------------------

    Alpha Occupied:

       1A1  -115.104363     2A1   -11.140292     3A1   -10.305597
       4A1    -8.690678     1B2    -8.690010     1B1    -8.690010
       5A1    -0.968420     6A1    -0.628332     7A1    -0.427724
       2B1    -0.425123     2B2    -0.425123     3B1    -0.282259
       3B2    -0.282259     8A1    -0.279530

    Alpha Virtual:

       9A1     0.419134     4B1     0.436457     4B2     0.436457
      10A1     0.498190     5B1     0.588069     5B2     0.588069
      11A1     0.644660    12A1     0.785417     6B1     0.832531
       6B2     0.832531    13A1     0.832742     1A2     0.832744
      14A1     0.869787     2A2     1.088622    15A1     1.088643
       7B1     1.089621     7B2     1.089621    16A1     1.119711

    Beta Occupied:

       1A1  -115.104022     2A1   -11.139962     3A1   -10.236983
       1B2    -8.689773     1B1    -8.689773     4A1    -8.689748
       5A1    -0.966749     6A1    -0.425631     2B1    -0.424533
       2B2    -0.424533

    Beta Virtual:

       7A1    -0.276517     8A1     0.007593     3B2     0.008870
       3B1     0.008870     9A1     0.506596     4B1     0.547982
       4B2     0.547982     5B1     0.607844     5B2     0.607844
      10A1     0.615242    11A1     0.674201    12A1     0.801826
      13A1     0.833211     1A2     0.833213     6B1     0.834591
       6B2     0.834591    14A1     0.901161     2A2     1.303214
      15A1     1.303246     7B1     1.304633     7B2     1.304633
      16A1     1.321526

    Final Occupation by Irrep:
             A1    A2    B1    B2
    DOCC [     6,    0,    2,    2 ]
    SOCC [     2,    0,    1,    1 ]
    NA   [     8,    0,    3,    3 ]
    NB   [     6,    0,    2,    2 ]

  @DF-UKS Final Energy:  -565.22209707575860

   => Energetics <=

    Nuclear Repulsion Energy =             17.8552830752296785
    One-Electron Energy =                -814.2710541402482249
    Two-Electron Energy =                 260.3716744001636130
    DFT Exchange-Correlation Energy =     -29.1780004109035751
    Empirical Dispersion Energy =           0.0000000000000000
    VV10 Nonlocal Energy =                  0.0000000000000000
    Total Energy =                       -565.2220970757585974

  UHF NO Occupations:
  HONO-2 :    3 B2 1.0000000
  HONO-1 :    8 A1 1.0000000
  HONO-0 :    3 B1 1.0000000
  LUNO+0 :    9 A1 0.0000703
  LUNO+1 :   10 A1 0.0000009
  LUNO+2 :    4 B2 0.0000006
  LUNO+3 :    4 B1 0.0000006

Computation Completed

Properties will be evaluated at   0.000000,   0.000000,   0.000000 [a0]

Properties computed using the SCF density matrix

 Multipole Moments:

 ------------------------------------------------------------------------------------
     Multipole            Electronic (a.u.)      Nuclear  (a.u.)        Total (a.u.)
 ------------------------------------------------------------------------------------

 L = 1.  Multiply by 2.5417464519 to convert [e a0] to [Debye]
 Dipole X            :          0.0000000            0.0000000            0.0000000
 Dipole Y            :          0.0000000            0.0000000            0.0000000
 Dipole Z            :         -2.8698244            2.7674238           -0.1024006
 Magnitude           :                                                    0.1024006

 ------------------------------------------------------------------------------------

*** tstop() called on Joses-MacBook-Pro-2.local at Wed Jul 16 19:07:02 2025
Module time:
	user time   =       2.83 seconds =       0.05 minutes
	system time =       3.68 seconds =       0.06 minutes
	total time  =          0 seconds =       0.00 minutes
Total time:
	user time   =      83.49 seconds =       1.39 minutes
	system time =      94.00 seconds =       1.57 minutes
	total time  =         17 seconds =       0.28 minutes

*** tstart() called on Joses-MacBook-Pro-2.local
*** at Wed Jul 16 19:07:02 2025

         ------------------------------------------------------------
                                   SCF GRAD
                          Rob Parrish, Justin Turney,
                       Andy Simmonett, and Alex Sokolov
         ------------------------------------------------------------

  ==> Geometry <==

    Molecular point group: c2v
    Full point group: C_inf_v

    Geometry (in Angstrom), charge = 0, multiplicity = 5:

       Center              X                  Y                   Z               Mass
    ------------   -----------------  -----------------  -----------------  -----------------
         C            0.000000000000     0.000000000000     2.461616911386    12.000000000000
         AR           0.000000000000     0.000000000000    -0.739180214683    39.962383123700

  Nuclear repulsion =   17.855283075229679

  ==> Basis Set <==

  Basis Set: CC-PVDZ
    Blend: CC-PVDZ
    Number of shells: 14
    Number of basis functions: 32
    Number of Cartesian functions: 34
    Spherical Harmonics?: true
    Max angular momentum: 2

  ==> DFJKGrad: Density-Fitted SCF Gradients <==

    Gradient:                    1
    J tasked:                  Yes
    K tasked:                  Yes
    wK tasked:                  No
    OpenMP threads:              1
    Integrals threads:           1
    Memory [MiB]:              375
    Schwarz Cutoff:          1E-12
    Fitting Condition:       1E-10

   => Auxiliary Basis Set <=

  Basis Set: (CC-PVDZ AUX)
    Blend: CC-PVDZ-JKFIT
    Number of shells: 60
    Number of basis functions: 182
    Number of Cartesian functions: 211
    Spherical Harmonics?: true
    Max angular momentum: 3

  ==> DFT Potential <==

   => LibXC <=

    Version 6.2.2
    S. Lehtola, C. Steigemann, M. J.T. Oliveira, and M. A.L. Marques.,  SoftwareX 7, 1â€“5 (2018) (10.1016/j.softx.2017.11.002)

   => Composite Functional: B3LYP <=

    B3LYP Hyb-GGA Exchange-Correlation Functional

    P. J. Stephens, F. J. Devlin, C. F. Chabalowski, and M. J. Frisch.,  J. Phys. Chem. 98, 11623 (1994) (10.1021/j100096a001)

    Deriv               =              1
    GGA                 =           TRUE
    Meta                =          FALSE

    Exchange Hybrid     =           TRUE
    MP2 Hybrid          =          FALSE

   => Exchange Functionals <=

    0.0800   Slater exchange
    0.7200         Becke 88

   => Exact (HF) Exchange <=

    0.2000               HF

   => Correlation Functionals <=

    0.1900   Vosko, Wilk & Nusair (VWN5_RPA)
    0.8100   Lee, Yang & Parr

   => LibXC Density Thresholds  <==

    XC_HYB_GGA_XC_B3LYP:  1.00E-15

   => Molecular Quadrature <=

    Radial Scheme          =       TREUTLER
    Pruning Scheme         =           NONE
    Nuclear Scheme         =       TREUTLER

    Blocking Scheme        =         OCTREE
    BS radius alpha        =              1
    Pruning alpha          =              1
    Radial Points          =             75
    Spherical Points       =            302
    Total Points           =          41278
    Total Blocks           =            375
    Max Points             =            256
    Max Functions          =             32
    Weights Tolerance      =       1.00E-15

  -Total Gradient:
     Atom            X                  Y                   Z
    ------   -----------------  -----------------  -----------------
       1        0.000000000000     0.000000000000    -0.000013160233
       2        0.000000000000    -0.000000000000     0.000017062257

*** tstop() called on Joses-MacBook-Pro-2.local at Wed Jul 16 19:07:03 2025
Module time:
	user time   =       0.90 seconds =       0.02 minutes
	system time =       1.33 seconds =       0.02 minutes
	total time  =          1 seconds =       0.02 minutes
Total time:
	user time   =      84.39 seconds =       1.41 minutes
	system time =      95.33 seconds =       1.59 minutes
	total time  =         18 seconds =       0.30 minutes

    			-----------------------------------------

    			 OPTKING 3.0: for geometry optimizations

    			     By R.A. King, Bethel University

    			        with contributions from

    			    A.V. Copan, J. Cayton, A. Heide

    			-----------------------------------------

	                            ===> Fragment 1 <==

	 Z (Atomic Numbers)          Masses                          Geom
	       6.000000            12.000000          0.00000000  0.00000000  4.65178179
	      18.000000            39.962383          0.00000000  0.00000000 -1.39684816

	 - Coordinate -           - BOHR/RAD -       - ANG/DEG -
	 R(1,2)           =         6.048630           3.200797

	        --- Internal Coordinate Step in ANG or DEG, aJ/ANG or AJ/DEG ---
	-------------------------------------------------------------------------------
	           Coordinate      Previous         Force          Change          New
	           ----------      --------        ------          ------        ------
	               R(1,2)       3.20080        0.00012        0.00744       3.20823
	-------------------------------------------------------------------------------

	                                 ==> Convergence Check <==

	Measures of convergence in internal coordinates in au.

	Criteria marked as inactive (o), active & met (*), and active & unmet ( ).

	----------------------------------------------------------------------------------------------
	   Step    Total Energy     Delta E     Max Force     RMS Force      Max Disp      RMS Disp
	----------------------------------------------------------------------------------------------
	  Convergence Criteria     1.00e-06 *    3.00e-04 *             o    1.20e-03 *             o
	----------------------------------------------------------------------------------------------
	    18    -565.22209708   -6.66e-07 *    1.51e-05 *    1.51e-05 o    1.41e-02      1.41e-02 o  ~
	----------------------------------------------------------------------------------------------

Next Geometry in Ang
	Fragment 1 (Ang)

	    C   0.0000000000   0.0000000000   2.4653352397
	   Ar   0.0000000000   0.0000000000  -0.7428985430

    Final optimized geometry and variables:
    Molecular point group: c2v
    Full point group: C_inf_v

    Geometry (in Angstrom), charge = 0, multiplicity = 5:

    C            0.000000000000     0.000000000000     2.461616911386
    AR           0.000000000000     0.000000000000    -0.739180214683

    Psi4 stopped on: Wednesday, 16 July 2025 07:07PM
    Psi4 wall time for execution: 0:00:17.81

*** Psi4 exiting successfully. Buy a developer a beer!
