                               Psi4 1.9.1 release

  ==> Input File <==

--------------------------------------------------------------------------
molecule {
0 5
Si   0.00000        0.60000        0.00000
Si   0.00000       -0.60000        0.00000
}

set {
basis              cc-pvdz
reference          uks
maxiter            500
geom_maxiter       500
DAMPING_PERCENTAGE 1
guess              SAP
}

optimize('b3lyp')
--------------------------------------------------------------------------

    Molecular point group: d2h
  Charge       = 0
  Multiplicity = 5
  Basis Set: CC-PVDZ
    Blend: CC-PVDZ
  Basis Set: (CC-PVDZ AUX)
    Blend: CC-PVDZ-JKFIT
  @DF-UKS Final Energy:  -577.47461523727350
    Total Energy =                       -577.4746152372733832
 Dipole X            :          0.0000000            0.0000000            0.0000000
 Dipole Y            :          0.0000000            0.0000000            0.0000000
 Dipole Z            :          0.0000000            0.0000000            0.0000000
 Magnitude           :                                                    0.0000000
    Molecular point group: d2h
  Basis Set: CC-PVDZ
    Blend: CC-PVDZ
  Basis Set: (CC-PVDZ AUX)
    Blend: CC-PVDZ-JKFIT
  Basis Set: CC-PVDZ
    Blend: CC-PVDZ
  Basis Set: (CC-PVDZ AUX)
    Blend: CC-PVDZ-JKFIT
  @DF-UKS Final Energy:  -577.49843949869467
    Total Energy =                       -577.4984394986946654
  Basis Set: CC-PVDZ
    Blend: CC-PVDZ
  Basis Set: (CC-PVDZ AUX)
    Blend: CC-PVDZ-JKFIT
  Basis Set: CC-PVDZ
    Blend: CC-PVDZ
  @DF-UKS Final Energy:  -577.54416430139759
    Total Energy =                       -577.5441643013974726
  @DF-UKS Final Energy:  -577.70696918604574
    Total Energy =                       -577.7069691860456260
  @DF-UKS Final Energy:  -578.31716672061941
    Total Energy =                       -578.3171667206192978
  @DF-UKS Final Energy:  -578.59836773532993
    Total Energy =                       -578.5983677353299299
  @DF-UKS Final Energy:  -578.74768809205182
    Total Energy =                       -578.7476880920518170
  @DF-UKS Final Energy:  -578.80143556903454
    Total Energy =                       -578.8014355690345383
  @DF-UKS Final Energy:  -578.82662501808659
    Total Energy =                       -578.8266250180865882
  @DF-UKS Final Energy:  -578.83595618493950
    Total Energy =                       -578.8359561849395050
  @DF-UKS Final Energy:  -578.83867442589235
    Total Energy =                       -578.8386744258923500
  @DF-UKS Final Energy:  -578.83909050001193
    Total Energy =                       -578.8390905000118210
  @DF-UKS Final Energy:  -578.83916175158356
    Total Energy =                       -578.8391617515835605
  @DF-UKS Final Energy:  -578.83917664185026
    Total Energy =                       -578.8391766418502584
  Basis Set: (CC-PVDZ AUX)
    Blend: CC-PVDZ-JKFIT
  Basis Set: CC-PVDZ
    Blend: CC-PVDZ
  Basis Set: (CC-PVDZ AUX)
    Blend: CC-PVDZ-JKFIT
  @DF-UKS Final Energy:  -578.83917768765957
    Total Energy =                       -578.8391776876595713
  Basis Set: CC-PVDZ
    Blend: CC-PVDZ
  Basis Set: (CC-PVDZ AUX)
    Blend: CC-PVDZ-JKFIT
  Charge       = 0
  Multiplicity = 5
  Basis Set: CC-PVDZ
    Blend: CC-PVDZ
  Basis Set: (CC-PVDZ AUX)
    Blend: CC-PVDZ-JKFIT

    Orbital Energies [Eh]
    ---------------------

    Alpha Occupied:

       1Ag   -66.167917     1B2u  -66.167916     2B2u   -5.311275
       2Ag    -5.311221     1B1u   -3.671550     1B3g   -3.671534
       3Ag    -3.670520     3B2u   -3.670233     1B3u   -3.669296
       1B1g   -3.669282     4Ag    -0.532200     4B2u   -0.413697
       5Ag    -0.245998     2B3u   -0.233877     2B1u   -0.224278
       2B1g   -0.154820

    Alpha Virtual:

       2B3g   -0.105920     5B2u   -0.001861     6Ag     0.181679
       3B3u    0.245782     3B1u    0.246065     7Ag     0.246763
       6B2u    0.271265     4B3u    0.297024     4B1u    0.298169
       1B2g    0.303715     8Ag     0.304866     3B1g    0.318674
       3B3g    0.321662     1Au     0.370515     7B2u    0.371745
       8B2u    0.390588     9Ag     0.502583     4B1g    0.521430
       4B3g    0.522565     9B2u    0.763134

    Beta Occupied:

       1B2u  -66.161765     1Ag   -66.161765     2B2u   -5.304319
       2Ag    -5.304236     1B1u   -3.663660     1B3g   -3.663649
       3Ag    -3.661584     3B2u   -3.661323     1B3u   -3.656169
       1B1g   -3.656156     4Ag    -0.459577     4B2u   -0.339395

    Beta Virtual:

       5Ag    -0.142974     2B1u   -0.132364     2B3u   -0.114466
       2B3g   -0.054668     2B1g   -0.035298     5B2u    0.042422
       6Ag     0.221614     7Ag     0.275739     3B1u    0.293600
       6B2u    0.304986     3B3u    0.307262     4B1u    0.329605
       3B3g    0.345294     4B3u    0.346256     3B1g    0.359545
       1B2g    0.368898     8Ag     0.369262     7B2u    0.416726
       1Au     0.434204     8B2u    0.435081     9Ag     0.546341
       4B3g    0.566828     4B1g    0.583590     9B2u    0.804155

    Final Occupation by Irrep:
             Ag   B1g   B2g   B3g    Au   B1u   B2u   B3u
    DOCC [     4,    1,    0,    1,    0,    1,    4,    1 ]
    SOCC [     1,    1,    0,    0,    0,    1,    0,    1 ]
    NA   [     5,    2,    0,    1,    0,    2,    4,    2 ]
    NB   [     4,    1,    0,    1,    0,    1,    4,    1 ]

  @DF-UKS Final Energy:  -578.83917776321869

   => Energetics <=

    Nuclear Repulsion Energy =             41.9153066583151173
    One-Electron Energy =                -885.0982586668569638
    Two-Electron Energy =                 297.9303977744116878
    DFT Exchange-Correlation Energy =     -33.5866235290885342
    Empirical Dispersion Energy =           0.0000000000000000
    VV10 Nonlocal Energy =                  0.0000000000000000
    Total Energy =                       -578.8391777632187996

  UHF NO Occupations:
  HONO-2 :    2B1g 1.0000000
  HONO-1 :    2B3u 1.0000000
  HONO-0 :    2B1u 1.0000000
  LUNO+0 :    5B2u 0.0005681
  LUNO+1 :    6 Ag 0.0001703
  LUNO+2 :    2B3g 0.0000001
  LUNO+3 :    6B2u 0.0000001

Computation Completed

Properties will be evaluated at   0.000000,   0.000000,   0.000000 [a0]

Properties computed using the SCF density matrix

 Multipole Moments:

 ------------------------------------------------------------------------------------
     Multipole            Electronic (a.u.)      Nuclear  (a.u.)        Total (a.u.)
 ------------------------------------------------------------------------------------

 L = 1.  Multiply by 2.5417464519 to convert [e a0] to [Debye]
 Dipole X            :          0.0000000            0.0000000            0.0000000
 Dipole Y            :          0.0000000            0.0000000            0.0000000
 Dipole Z            :          0.0000000            0.0000000            0.0000000
 Magnitude           :                                                    0.0000000

 ------------------------------------------------------------------------------------

*** tstop() called on Joses-MacBook-Pro-2.local at Wed Jul 16 20:14:00 2025
Module time:
	user time   =       7.82 seconds =       0.13 minutes
	system time =       2.18 seconds =       0.04 minutes
	total time  =          1 seconds =       0.02 minutes
Total time:
	user time   =     220.74 seconds =       3.68 minutes
	system time =      53.89 seconds =       0.90 minutes
	total time  =         27 seconds =       0.45 minutes

*** tstart() called on Joses-MacBook-Pro-2.local
*** at Wed Jul 16 20:14:00 2025

         ------------------------------------------------------------
                                   SCF GRAD
                          Rob Parrish, Justin Turney,
                       Andy Simmonett, and Alex Sokolov
         ------------------------------------------------------------

  ==> Geometry <==

    Molecular point group: d2h
    Full point group: D_inf_h

    Geometry (in Angstrom), charge = 0, multiplicity = 5:

       Center              X                  Y                   Z               Mass
    ------------   -----------------  -----------------  -----------------  -----------------
         SI          -0.000000000000     1.237241732916     0.000000000000    27.976926534650
         SI           0.000000000000    -1.237241732916     0.000000000000    27.976926534650

  Nuclear repulsion =   41.915306658315117

  ==> Basis Set <==

  Basis Set: CC-PVDZ
    Blend: CC-PVDZ
    Number of shells: 16
    Number of basis functions: 36
    Number of Cartesian functions: 38
    Spherical Harmonics?: true
    Max angular momentum: 2

  ==> DFJKGrad: Density-Fitted SCF Gradients <==

    Gradient:                    1
    J tasked:                  Yes
    K tasked:                  Yes
    wK tasked:                  No
    OpenMP threads:              1
    Integrals threads:           1
    Memory [MiB]:              375
    Schwarz Cutoff:          1E-12
    Fitting Condition:       1E-10

   => Auxiliary Basis Set <=

  Basis Set: (CC-PVDZ AUX)
    Blend: CC-PVDZ-JKFIT
    Number of shells: 72
    Number of basis functions: 224
    Number of Cartesian functions: 260
    Spherical Harmonics?: true
    Max angular momentum: 3

  ==> DFT Potential <==

   => LibXC <=

    Version 6.2.2
    S. Lehtola, C. Steigemann, M. J.T. Oliveira, and M. A.L. Marques.,  SoftwareX 7, 1â€“5 (2018) (10.1016/j.softx.2017.11.002)

   => Composite Functional: B3LYP <=

    B3LYP Hyb-GGA Exchange-Correlation Functional

    P. J. Stephens, F. J. Devlin, C. F. Chabalowski, and M. J. Frisch.,  J. Phys. Chem. 98, 11623 (1994) (10.1021/j100096a001)

    Deriv               =              1
    GGA                 =           TRUE
    Meta                =          FALSE

    Exchange Hybrid     =           TRUE
    MP2 Hybrid          =          FALSE

   => Exchange Functionals <=

    0.0800   Slater exchange
    0.7200         Becke 88

   => Exact (HF) Exchange <=

    0.2000               HF

   => Correlation Functionals <=

    0.1900   Vosko, Wilk & Nusair (VWN5_RPA)
    0.8100   Lee, Yang & Parr

   => LibXC Density Thresholds  <==

    XC_HYB_GGA_XC_B3LYP:  1.00E-15

   => Molecular Quadrature <=

    Radial Scheme          =       TREUTLER
    Pruning Scheme         =           NONE
    Nuclear Scheme         =       TREUTLER

    Blocking Scheme        =         OCTREE
    BS radius alpha        =              1
    Pruning alpha          =              1
    Radial Points          =             75
    Spherical Points       =            302
    Total Points           =          41342
    Total Blocks           =            380
    Max Points             =            252
    Max Functions          =             36
    Weights Tolerance      =       1.00E-15

  -Total Gradient:
     Atom            X                  Y                   Z
    ------   -----------------  -----------------  -----------------
       1        0.000000000000    -0.000012500375     0.000000000000
       2       -0.000000000000     0.000012500375     0.000000000000

*** tstop() called on Joses-MacBook-Pro-2.local at Wed Jul 16 20:14:01 2025
Module time:
	user time   =       6.91 seconds =       0.12 minutes
	system time =       1.05 seconds =       0.02 minutes
	total time  =          1 seconds =       0.02 minutes
Total time:
	user time   =     227.65 seconds =       3.79 minutes
	system time =      54.94 seconds =       0.92 minutes
	total time  =         28 seconds =       0.47 minutes

    			-----------------------------------------

    			 OPTKING 3.0: for geometry optimizations

    			     By R.A. King, Bethel University

    			        with contributions from

    			    A.V. Copan, J. Cayton, A. Heide

    			-----------------------------------------

	                            ===> Fragment 1 <==

	 Z (Atomic Numbers)          Masses                          Geom
	      14.000000            27.976927         -0.00000000  2.33804803  0.00000000
	      14.000000            27.976927          0.00000000 -2.33804803  0.00000000

	 - Coordinate -           - BOHR/RAD -       - ANG/DEG -
	 R(1,2)           =         4.676096           2.474483

	        --- Internal Coordinate Step in ANG or DEG, aJ/ANG or AJ/DEG ---
	-------------------------------------------------------------------------------
	           Coordinate      Previous         Force          Change          New
	           ----------      --------        ------          ------        ------
	               R(1,2)       2.47448        0.00010        0.00010       2.47458
	-------------------------------------------------------------------------------

	                                 ==> Convergence Check <==

	Measures of convergence in internal coordinates in au.

	Criteria marked as inactive (o), active & met (*), and active & unmet ( ).

	----------------------------------------------------------------------------------------------
	   Step    Total Energy     Delta E     Max Force     RMS Force      Max Disp      RMS Disp
	----------------------------------------------------------------------------------------------
	  Convergence Criteria     1.00e-06 *    3.00e-04 *             o    1.20e-03 *             o
	----------------------------------------------------------------------------------------------
	    16    -578.83917776   -7.56e-08 *    1.25e-05 *    1.25e-05 o    1.91e-04 *    1.91e-04 o  ~
	----------------------------------------------------------------------------------------------

Next Geometry in Ang
	Fragment 1 (Ang)

	   Si  -0.0000000000   1.2372922807   0.0000000000
	   Si   0.0000000000  -1.2372922807   0.0000000000

    Final optimized geometry and variables:
    Molecular point group: d2h
    Full point group: D_inf_h

    Geometry (in Angstrom), charge = 0, multiplicity = 5:

    SI          -0.000000000000     1.237241732916     0.000000000000
    SI           0.000000000000    -1.237241732916     0.000000000000

    Psi4 stopped on: Wednesday, 16 July 2025 08:14PM
    Psi4 wall time for execution: 0:00:28.65

*** Psi4 exiting successfully. Buy a developer a beer!
