                               Psi4 1.9.1 release

  ==> Input File <==

--------------------------------------------------------------------------
molecule {
0 5
B   0.00000        0.60000        0.00000
P   0.00000       -0.60000        0.00000
}

set {
basis              cc-pvdz
reference          uks
maxiter            500
geom_maxiter       500
DAMPING_PERCENTAGE 1
guess              SAP
}

optimize('b3lyp')
--------------------------------------------------------------------------

    Molecular point group: c2v
  Charge       = 0
  Multiplicity = 5
  Basis Set: CC-PVDZ
    Blend: CC-PVDZ
  Basis Set: (CC-PVDZ AUX)
    Blend: CC-PVDZ-JKFIT
  @DF-UKS Final Energy:  -365.38471720998194
    Total Energy =                       -365.3847172099819431
 Dipole X            :          0.0000000            0.0000000            0.0000000
 Dipole Y            :          0.0000000            0.0000000            0.0000000
 Dipole Z            :         -0.3332648           -0.5547649           -0.8880297
 Magnitude           :                                                    0.8880297
    Molecular point group: c2v
  Basis Set: CC-PVDZ
    Blend: CC-PVDZ
  Basis Set: (CC-PVDZ AUX)
    Blend: CC-PVDZ-JKFIT
  Basis Set: CC-PVDZ
    Blend: CC-PVDZ
  Basis Set: (CC-PVDZ AUX)
    Blend: CC-PVDZ-JKFIT
  @DF-UKS Final Energy:  -365.63533369286034
    Total Energy =                       -365.6353336928603426
  Basis Set: CC-PVDZ
    Blend: CC-PVDZ
  Basis Set: (CC-PVDZ AUX)
    Blend: CC-PVDZ-JKFIT
  Basis Set: CC-PVDZ
    Blend: CC-PVDZ
  @DF-UKS Final Energy:  -365.84552964552461
    Total Energy =                       -365.8455296455246071
  @DF-UKS Final Energy:  -365.93448196248522
    Total Energy =                       -365.9344819624851652
  @DF-UKS Final Energy:  -365.95948360665921
    Total Energy =                       -365.9594836066592052
  @DF-UKS Final Energy:  -365.96972754351896
    Total Energy =                       -365.9697275435188999
  @DF-UKS Final Energy:  -365.97198335265847
    Total Energy =                       -365.9719833526584694
  @DF-UKS Final Energy:  -365.97271722244994
    Total Energy =                       -365.9727172224498872
  @DF-UKS Final Energy:  -365.97284235466407
    Total Energy =                       -365.9728423546640670
  @DF-UKS Final Energy:  -365.97286609170345
    Total Energy =                       -365.9728660917034517
  Basis Set: (CC-PVDZ AUX)
    Blend: CC-PVDZ-JKFIT
  Basis Set: CC-PVDZ
    Blend: CC-PVDZ
  Basis Set: (CC-PVDZ AUX)
    Blend: CC-PVDZ-JKFIT
  @DF-UKS Final Energy:  -365.97287157433198
    Total Energy =                       -365.9728715743319754
  Basis Set: CC-PVDZ
    Blend: CC-PVDZ
  Basis Set: (CC-PVDZ AUX)
    Blend: CC-PVDZ-JKFIT
  Charge       = 0
  Multiplicity = 5
  Basis Set: CC-PVDZ
    Blend: CC-PVDZ
  Basis Set: (CC-PVDZ AUX)
    Blend: CC-PVDZ-JKFIT

    Orbital Energies [Eh]
    ---------------------

    Alpha Occupied:

       1A1   -77.135104     2A1    -6.823647     3A1    -6.602512
       1B2    -4.767635     1B1    -4.766533     4A1    -4.761144
       5A1    -0.642595     6A1    -0.412768     2B1    -0.292525
       2B2    -0.286190     7A1    -0.267869     3B1    -0.155332

    Alpha Virtual:

       3B2    -0.079735     8A1     0.059668     9A1     0.233370
       4B1     0.285377     4B2     0.302014    10A1     0.315813
       5B1     0.377457     5B2     0.377691    11A1     0.380438
       1A2     0.407356    12A1     0.407742     6B1     0.444358
       6B2     0.445400    13A1     0.550721     2A2     0.694199
      14A1     0.699457    15A1     0.774269     7B1     0.879487
       7B2     0.883840    16A1     1.116710

    Beta Occupied:

       1A1   -77.125991     2A1    -6.803537     3A1    -6.592786
       4A1    -4.751947     1B2    -4.751922     1B1    -4.748560
       5A1    -0.559588     6A1    -0.336609

    Beta Virtual:

       2B2    -0.160932     2B1    -0.146474     7A1    -0.120176
       3B2    -0.025394     3B1     0.000802     8A1     0.107694
       9A1     0.265218     4B2     0.323248     4B1     0.345762
      10A1     0.373847    11A1     0.417674     5B2     0.432543
       5B1     0.442800     6B2     0.493543     1A2     0.498186
      12A1     0.498248     6B1     0.506881    13A1     0.587922
      14A1     0.766499     2A2     0.766713    15A1     0.825388
       7B2     0.938644     7B1     0.961842    16A1     1.174385

    Final Occupation by Irrep:
             A1    A2    B1    B2
    DOCC [     6,    0,    1,    1 ]
    SOCC [     1,    0,    2,    1 ]
    NA   [     7,    0,    3,    2 ]
    NB   [     6,    0,    1,    1 ]

  @DF-UKS Final Energy:  -365.97287201253278

   => Energetics <=

    Nuclear Repulsion Energy =             19.7550381962013510
    One-Electron Energy =                -543.2532747002283031
    Two-Electron Energy =                 179.4207770441838932
    DFT Exchange-Correlation Energy =     -21.8954125526897307
    Empirical Dispersion Energy =           0.0000000000000000
    VV10 Nonlocal Energy =                  0.0000000000000000
    Total Energy =                       -365.9728720125328323

  UHF NO Occupations:
  HONO-2 :    2 B1 1.0000000
  HONO-1 :    3 B1 1.0000000
  HONO-0 :    2 B2 1.0000000
  LUNO+0 :    8 A1 0.0011189
  LUNO+1 :    9 A1 0.0007690
  LUNO+2 :   10 A1 0.0000002
  LUNO+3 :    3 B2 0.0000000

Computation Completed

Properties will be evaluated at   0.000000,   0.000000,   0.000000 [a0]

Properties computed using the SCF density matrix

 Multipole Moments:

 ------------------------------------------------------------------------------------
     Multipole            Electronic (a.u.)      Nuclear  (a.u.)        Total (a.u.)
 ------------------------------------------------------------------------------------

 L = 1.  Multiply by 2.5417464519 to convert [e a0] to [Debye]
 Dipole X            :          0.0000000            0.0000000            0.0000000
 Dipole Y            :          0.0000000            0.0000000            0.0000000
 Dipole Z            :          0.6184648           -0.9287787           -0.3103139
 Magnitude           :                                                    0.3103139

 ------------------------------------------------------------------------------------

*** tstop() called on Joses-MacBook-Pro-2.local at Wed Jul 16 18:56:30 2025
Module time:
	user time   =       4.34 seconds =       0.07 minutes
	system time =       3.16 seconds =       0.05 minutes
	total time  =          1 seconds =       0.02 minutes
Total time:
	user time   =      62.15 seconds =       1.04 minutes
	system time =      71.21 seconds =       1.19 minutes
	total time  =         14 seconds =       0.23 minutes

*** tstart() called on Joses-MacBook-Pro-2.local
*** at Wed Jul 16 18:56:30 2025

         ------------------------------------------------------------
                                   SCF GRAD
                          Rob Parrish, Justin Turney,
                       Andy Simmonett, and Alex Sokolov
         ------------------------------------------------------------

  ==> Geometry <==

    Molecular point group: c2v
    Full point group: C_inf_v

    Geometry (in Angstrom), charge = 0, multiplicity = 5:

       Center              X                  Y                   Z               Mass
    ------------   -----------------  -----------------  -----------------  -----------------
         B            0.000000000000     0.000000000000     1.482191483788    11.009305360000
         P            0.000000000000     0.000000000000    -0.526829729235    30.973761998420

  Nuclear repulsion =   19.755038196201351

  ==> Basis Set <==

  Basis Set: CC-PVDZ
    Blend: CC-PVDZ
    Number of shells: 14
    Number of basis functions: 32
    Number of Cartesian functions: 34
    Spherical Harmonics?: true
    Max angular momentum: 2

  ==> DFJKGrad: Density-Fitted SCF Gradients <==

    Gradient:                    1
    J tasked:                  Yes
    K tasked:                  Yes
    wK tasked:                  No
    OpenMP threads:              1
    Integrals threads:           1
    Memory [MiB]:              375
    Schwarz Cutoff:          1E-12
    Fitting Condition:       1E-10

   => Auxiliary Basis Set <=

  Basis Set: (CC-PVDZ AUX)
    Blend: CC-PVDZ-JKFIT
    Number of shells: 60
    Number of basis functions: 182
    Number of Cartesian functions: 211
    Spherical Harmonics?: true
    Max angular momentum: 3

  ==> DFT Potential <==

   => LibXC <=

    Version 6.2.2
    S. Lehtola, C. Steigemann, M. J.T. Oliveira, and M. A.L. Marques.,  SoftwareX 7, 1â€“5 (2018) (10.1016/j.softx.2017.11.002)

   => Composite Functional: B3LYP <=

    B3LYP Hyb-GGA Exchange-Correlation Functional

    P. J. Stephens, F. J. Devlin, C. F. Chabalowski, and M. J. Frisch.,  J. Phys. Chem. 98, 11623 (1994) (10.1021/j100096a001)

    Deriv               =              1
    GGA                 =           TRUE
    Meta                =          FALSE

    Exchange Hybrid     =           TRUE
    MP2 Hybrid          =          FALSE

   => Exchange Functionals <=

    0.0800   Slater exchange
    0.7200         Becke 88

   => Exact (HF) Exchange <=

    0.2000               HF

   => Correlation Functionals <=

    0.1900   Vosko, Wilk & Nusair (VWN5_RPA)
    0.8100   Lee, Yang & Parr

   => LibXC Density Thresholds  <==

    XC_HYB_GGA_XC_B3LYP:  1.00E-15

   => Molecular Quadrature <=

    Radial Scheme          =       TREUTLER
    Pruning Scheme         =           NONE
    Nuclear Scheme         =       TREUTLER

    Blocking Scheme        =         OCTREE
    BS radius alpha        =              1
    Pruning alpha          =              1
    Radial Points          =             75
    Spherical Points       =            302
    Total Points           =          42016
    Total Blocks           =            380
    Max Points             =            256
    Max Functions          =             32
    Weights Tolerance      =       1.00E-15

  -Total Gradient:
     Atom            X                  Y                   Z
    ------   -----------------  -----------------  -----------------
       1        0.000000000000     0.000000000000    -0.000052866398
       2        0.000000000000    -0.000000000000     0.000048207745

*** tstop() called on Joses-MacBook-Pro-2.local at Wed Jul 16 18:56:31 2025
Module time:
	user time   =       1.16 seconds =       0.02 minutes
	system time =       1.35 seconds =       0.02 minutes
	total time  =          1 seconds =       0.02 minutes
Total time:
	user time   =      63.31 seconds =       1.06 minutes
	system time =      72.56 seconds =       1.21 minutes
	total time  =         15 seconds =       0.25 minutes

    			-----------------------------------------

    			 OPTKING 3.0: for geometry optimizations

    			     By R.A. King, Bethel University

    			        with contributions from

    			    A.V. Copan, J. Cayton, A. Heide

    			-----------------------------------------

	                            ===> Fragment 1 <==

	 Z (Atomic Numbers)          Masses                          Geom
	       5.000000            11.009305          0.00000000  0.00000000  2.80093597
	      15.000000            30.973762          0.00000000  0.00000000 -0.99556390

	 - Coordinate -           - BOHR/RAD -       - ANG/DEG -
	 R(1,2)           =         3.796500           2.009021

	        --- Internal Coordinate Step in ANG or DEG, aJ/ANG or AJ/DEG ---
	-------------------------------------------------------------------------------
	           Coordinate      Previous         Force          Change          New
	           ----------      --------        ------          ------        ------
	               R(1,2)       2.00902        0.00042        0.00024       2.00927
	-------------------------------------------------------------------------------

	                                 ==> Convergence Check <==

	Measures of convergence in internal coordinates in au.

	Criteria marked as inactive (o), active & met (*), and active & unmet ( ).

	----------------------------------------------------------------------------------------------
	   Step    Total Energy     Delta E     Max Force     RMS Force      Max Disp      RMS Disp
	----------------------------------------------------------------------------------------------
	  Convergence Criteria     1.00e-06 *    3.00e-04 *             o    1.20e-03 *             o
	----------------------------------------------------------------------------------------------
	    12    -365.97287201   -4.38e-07 *    5.05e-05 *    5.05e-05 o    4.61e-04 *    4.61e-04 o  ~
	----------------------------------------------------------------------------------------------

Next Geometry in Ang
	Fragment 1 (Ang)

	    B   0.0000000000   0.0000000000   1.4823135858
	    P   0.0000000000   0.0000000000  -0.5269518312

    Final optimized geometry and variables:
    Molecular point group: c2v
    Full point group: C_inf_v

    Geometry (in Angstrom), charge = 0, multiplicity = 5:

    B            0.000000000000     0.000000000000     1.482191483788
    P            0.000000000000     0.000000000000    -0.526829729235

    Psi4 stopped on: Wednesday, 16 July 2025 06:56PM
    Psi4 wall time for execution: 0:00:15.66

*** Psi4 exiting successfully. Buy a developer a beer!
