                               Psi4 1.9.1 release

  ==> Input File <==

--------------------------------------------------------------------------
molecule {
0 5
F   0.00000        0.60000        0.00000
Cl   0.00000       -0.60000        0.00000
}

set {
basis              cc-pvdz
reference          uks
maxiter            500
geom_maxiter       500
DAMPING_PERCENTAGE 1
guess              SAP
}

optimize('b3lyp')
--------------------------------------------------------------------------

    Molecular point group: c2v
  Charge       = 0
  Multiplicity = 5
  Basis Set: CC-PVDZ
    Blend: CC-PVDZ
  Basis Set: (CC-PVDZ AUX)
    Blend: CC-PVDZ-JKFIT
  @DF-UKS Final Energy:  -558.80936719802082
    Total Energy =                       -558.8093671980208228
 Dipole X            :          0.0000000            0.0000000            0.0000000
 Dipole Y            :          0.0000000            0.0000000            0.0000000
 Dipole Z            :          1.0310372           -0.3467936            0.6842436
 Magnitude           :                                                    0.6842436
    Molecular point group: c2v
  Basis Set: CC-PVDZ
    Blend: CC-PVDZ
  Basis Set: (CC-PVDZ AUX)
    Blend: CC-PVDZ-JKFIT
  Basis Set: CC-PVDZ
    Blend: CC-PVDZ
  Basis Set: (CC-PVDZ AUX)
    Blend: CC-PVDZ-JKFIT
  @DF-UKS Final Energy:  -558.96606596417871
    Total Energy =                       -558.9660659641787106
  Basis Set: CC-PVDZ
    Blend: CC-PVDZ
  Basis Set: (CC-PVDZ AUX)
    Blend: CC-PVDZ-JKFIT
  Basis Set: CC-PVDZ
    Blend: CC-PVDZ
  @DF-UKS Final Energy:  -559.06741092168966
    Total Energy =                       -559.0674109216896568
  @DF-UKS Final Energy:  -559.11591951176058
    Total Energy =                       -559.1159195117605805
  @DF-UKS Final Energy:  -559.14333392117214
    Total Energy =                       -559.1433339211721432
  @DF-UKS Final Energy:  -559.15622803379097
    Total Energy =                       -559.1562280337909669
  @DF-UKS Final Energy:  -559.16131437353647
    Total Energy =                       -559.1613143735364702
  @DF-UKS Final Energy:  -559.16304594160511
    Total Energy =                       -559.1630459416051053
  @DF-UKS Final Energy:  -559.16340146775292
    Total Energy =                       -559.1634014677530331
  @DF-UKS Final Energy:  -559.16348256654248
    Total Energy =                       -559.1634825665424842
  @DF-UKS Final Energy:  -559.16350527714781
    Total Energy =                       -559.1635052771478058
  Basis Set: (CC-PVDZ AUX)
    Blend: CC-PVDZ-JKFIT
  Basis Set: CC-PVDZ
    Blend: CC-PVDZ
  Basis Set: (CC-PVDZ AUX)
    Blend: CC-PVDZ-JKFIT
  @DF-UKS Final Energy:  -559.16350846839623
    Total Energy =                       -559.1635084683961168
  Basis Set: CC-PVDZ
    Blend: CC-PVDZ
  Basis Set: (CC-PVDZ AUX)
    Blend: CC-PVDZ-JKFIT
  Charge       = 0
  Multiplicity = 5
  Basis Set: CC-PVDZ
    Blend: CC-PVDZ
  Basis Set: (CC-PVDZ AUX)
    Blend: CC-PVDZ-JKFIT

    Orbital Energies [Eh]
    ---------------------

    Alpha Occupied:

       1A1  -101.660362     2A1   -24.781571     3A1    -9.593144
       1B1    -7.355643     1B2    -7.353855     4A1    -7.349825
       5A1    -1.230620     6A1    -0.956498     7A1    -0.567529
       2B2    -0.510115     2B1    -0.502892     3B2    -0.451078
       3B1    -0.442745     8A1    -0.362968     4B1     0.372729

    Alpha Virtual:

       9A1     0.433412     4B2     0.448852    10A1     0.503750
       5B2     0.560383     5B1     0.565879     1A2     0.569581
      11A1     0.571196    12A1     0.674995     6B2     1.125940
       6B1     1.139693    13A1     1.191042    14A1     1.855239
       7B2     3.471056     7B1     3.488330    15A1     3.493660
       2A2     3.495904    16A1     3.537935

    Beta Occupied:

       1A1  -101.637140     2A1   -24.750183     3A1    -9.570578
       1B2    -7.326738     4A1    -7.324815     1B1    -7.307217
       5A1    -1.151168     6A1    -0.827390     7A1    -0.465622
       2B1    -0.423310     2B2    -0.411497

    Beta Virtual:

       3B2    -0.290451     3B1    -0.259566     8A1    -0.187462
       9A1     0.486994     4B2     0.503468     4B1     0.534923
      10A1     0.575212     5B2     0.641628     5B1     0.666450
      11A1     0.683967     1A2     0.684707    12A1     0.757530
       6B1     1.171317     6B2     1.172683    13A1     1.243060
      14A1     1.907864     2A2     3.546067    15A1     3.546604
       7B1     3.548628     7B2     3.549774    16A1     3.610455

    Final Occupation by Irrep:
             A1    A2    B1    B2
    DOCC [     7,    0,    2,    2 ]
    SOCC [     1,    0,    2,    1 ]
    NA   [     8,    0,    4,    3 ]
    NB   [     7,    0,    2,    2 ]

  @DF-UKS Final Energy:  -559.16350866007133

   => Energetics <=

    Nuclear Repulsion Energy =             41.6392098731399827
    One-Electron Energy =                -855.5061627510567632
    Two-Electron Energy =                 285.8096017879614124
    DFT Exchange-Correlation Energy =     -31.1061575701160464
    Empirical Dispersion Energy =           0.0000000000000000
    VV10 Nonlocal Energy =                  0.0000000000000000
    Total Energy =                       -559.1635086600713294

  UHF NO Occupations:
  HONO-2 :    3 B1 1.0000000
  HONO-1 :    3 B2 1.0000000
  HONO-0 :    4 B1 1.0000000
  LUNO+0 :    9 A1 0.0010768
  LUNO+1 :    4 B2 0.0009701
  LUNO+2 :   10 A1 0.0002847
  LUNO+3 :    5 B1 0.0001943

Computation Completed

Properties will be evaluated at   0.000000,   0.000000,   0.000000 [a0]

Properties computed using the SCF density matrix

 Multipole Moments:

 ------------------------------------------------------------------------------------
     Multipole            Electronic (a.u.)      Nuclear  (a.u.)        Total (a.u.)
 ------------------------------------------------------------------------------------

 L = 1.  Multiply by 2.5417464519 to convert [e a0] to [Debye]
 Dipole X            :          0.0000000            0.0000000            0.0000000
 Dipole Y            :          0.0000000            0.0000000            0.0000000
 Dipole Z            :          0.3041279           -0.5619270           -0.2577992
 Magnitude           :                                                    0.2577992

 ------------------------------------------------------------------------------------

*** tstop() called on Joses-MacBook-Pro-2.local at Wed Jul 16 19:31:13 2025
Module time:
	user time   =       4.00 seconds =       0.07 minutes
	system time =       3.29 seconds =       0.05 minutes
	total time  =          1 seconds =       0.02 minutes
Total time:
	user time   =      81.83 seconds =       1.36 minutes
	system time =      66.62 seconds =       1.11 minutes
	total time  =         14 seconds =       0.23 minutes

*** tstart() called on Joses-MacBook-Pro-2.local
*** at Wed Jul 16 19:31:13 2025

         ------------------------------------------------------------
                                   SCF GRAD
                          Rob Parrish, Justin Turney,
                       Andy Simmonett, and Alex Sokolov
         ------------------------------------------------------------

  ==> Geometry <==

    Molecular point group: c2v
    Full point group: C_inf_v

    Geometry (in Angstrom), charge = 0, multiplicity = 5:

       Center              X                  Y                   Z               Mass
    ------------   -----------------  -----------------  -----------------  -----------------
         F            0.000000000000     0.000000000000     1.259914667054    18.998403162730
         CL           0.000000000000     0.000000000000    -0.684505351462    34.968852682000

  Nuclear repulsion =   41.639209873139983

  ==> Basis Set <==

  Basis Set: CC-PVDZ
    Blend: CC-PVDZ
    Number of shells: 14
    Number of basis functions: 32
    Number of Cartesian functions: 34
    Spherical Harmonics?: true
    Max angular momentum: 2

  ==> DFJKGrad: Density-Fitted SCF Gradients <==

    Gradient:                    1
    J tasked:                  Yes
    K tasked:                  Yes
    wK tasked:                  No
    OpenMP threads:              1
    Integrals threads:           1
    Memory [MiB]:              375
    Schwarz Cutoff:          1E-12
    Fitting Condition:       1E-10

   => Auxiliary Basis Set <=

  Basis Set: (CC-PVDZ AUX)
    Blend: CC-PVDZ-JKFIT
    Number of shells: 60
    Number of basis functions: 182
    Number of Cartesian functions: 211
    Spherical Harmonics?: true
    Max angular momentum: 3

  ==> DFT Potential <==

   => LibXC <=

    Version 6.2.2
    S. Lehtola, C. Steigemann, M. J.T. Oliveira, and M. A.L. Marques.,  SoftwareX 7, 1â€“5 (2018) (10.1016/j.softx.2017.11.002)

   => Composite Functional: B3LYP <=

    B3LYP Hyb-GGA Exchange-Correlation Functional

    P. J. Stephens, F. J. Devlin, C. F. Chabalowski, and M. J. Frisch.,  J. Phys. Chem. 98, 11623 (1994) (10.1021/j100096a001)

    Deriv               =              1
    GGA                 =           TRUE
    Meta                =          FALSE

    Exchange Hybrid     =           TRUE
    MP2 Hybrid          =          FALSE

   => Exchange Functionals <=

    0.0800   Slater exchange
    0.7200         Becke 88

   => Exact (HF) Exchange <=

    0.2000               HF

   => Correlation Functionals <=

    0.1900   Vosko, Wilk & Nusair (VWN5_RPA)
    0.8100   Lee, Yang & Parr

   => LibXC Density Thresholds  <==

    XC_HYB_GGA_XC_B3LYP:  1.00E-15

   => Molecular Quadrature <=

    Radial Scheme          =       TREUTLER
    Pruning Scheme         =           NONE
    Nuclear Scheme         =       TREUTLER

    Blocking Scheme        =         OCTREE
    BS radius alpha        =              1
    Pruning alpha          =              1
    Radial Points          =             75
    Spherical Points       =            302
    Total Points           =          41879
    Total Blocks           =            372
    Max Points             =            254
    Max Functions          =             32
    Weights Tolerance      =       1.00E-15

  -Total Gradient:
     Atom            X                  Y                   Z
    ------   -----------------  -----------------  -----------------
       1        0.000000000000     0.000000000000    -0.000036398936
       2        0.000000000000    -0.000000000000     0.000002223817

*** tstop() called on Joses-MacBook-Pro-2.local at Wed Jul 16 19:31:13 2025
Module time:
	user time   =       0.91 seconds =       0.02 minutes
	system time =       1.51 seconds =       0.03 minutes
	total time  =          0 seconds =       0.00 minutes
Total time:
	user time   =      82.75 seconds =       1.38 minutes
	system time =      68.13 seconds =       1.14 minutes
	total time  =         14 seconds =       0.23 minutes

    			-----------------------------------------

    			 OPTKING 3.0: for geometry optimizations

    			     By R.A. King, Bethel University

    			        with contributions from

    			    A.V. Copan, J. Cayton, A. Heide

    			-----------------------------------------

	                            ===> Fragment 1 <==

	 Z (Atomic Numbers)          Masses                          Geom
	       9.000000            18.998403          0.00000000  0.00000000  2.38089366
	      17.000000            34.968853          0.00000000  0.00000000 -1.29352765

	 - Coordinate -           - BOHR/RAD -       - ANG/DEG -
	 R(1,2)           =         3.674421           1.944420

	        --- Internal Coordinate Step in ANG or DEG, aJ/ANG or AJ/DEG ---
	-------------------------------------------------------------------------------
	           Coordinate      Previous         Force          Change          New
	           ----------      --------        ------          ------        ------
	               R(1,2)       1.94442        0.00016        0.00011       1.94453
	-------------------------------------------------------------------------------

	                                 ==> Convergence Check <==

	Measures of convergence in internal coordinates in au.

	Criteria marked as inactive (o), active & met (*), and active & unmet ( ).

	----------------------------------------------------------------------------------------------
	   Step    Total Energy     Delta E     Max Force     RMS Force      Max Disp      RMS Disp
	----------------------------------------------------------------------------------------------
	  Convergence Criteria     1.00e-06 *    3.00e-04 *             o    1.20e-03 *             o
	----------------------------------------------------------------------------------------------
	    13    -559.16350866   -1.92e-07 *    1.93e-05 *    1.93e-05 o    2.05e-04 *    2.05e-04 o  ~
	----------------------------------------------------------------------------------------------

Next Geometry in Ang
	Fragment 1 (Ang)

	    F   0.0000000000   0.0000000000   1.2599687947
	   Cl   0.0000000000   0.0000000000  -0.6845594791

    Final optimized geometry and variables:
    Molecular point group: c2v
    Full point group: C_inf_v

    Geometry (in Angstrom), charge = 0, multiplicity = 5:

    F            0.000000000000     0.000000000000     1.259914667054
    CL           0.000000000000     0.000000000000    -0.684505351462

    Psi4 stopped on: Wednesday, 16 July 2025 07:31PM
    Psi4 wall time for execution: 0:00:15.41

*** Psi4 exiting successfully. Buy a developer a beer!
