                               Psi4 1.9.1 release

  ==> Input File <==

--------------------------------------------------------------------------
molecule {
0 5
Li   0.00000        0.60000        0.00000
Al   0.00000       -0.60000        0.00000
}

set {
basis              cc-pvdz
reference          uks
maxiter            500
geom_maxiter       500
DAMPING_PERCENTAGE 1
guess              SAP
}

optimize('b3lyp')
--------------------------------------------------------------------------

    Molecular point group: c2v
  Charge       = 0
  Multiplicity = 5
  Basis Set: CC-PVDZ
    Blend: CC-PVDZ
  Basis Set: (CC-PVDZ AUX)
    Blend: CC-PVDZ-JKFIT + DEF2-UNIVERSAL-JKFIT
  @DF-UKS Final Energy:  -249.39850017708090
    Total Energy =                       -249.3985001770809049
 Dipole X            :          0.0000000            0.0000000            0.0000000
 Dipole Y            :          0.0000000            0.0000000            0.0000000
 Dipole Z            :          0.4553250           -0.6845814           -0.2292564
 Magnitude           :                                                    0.2292564
    Molecular point group: c2v
  Basis Set: CC-PVDZ
    Blend: CC-PVDZ
  Basis Set: (CC-PVDZ AUX)
    Blend: CC-PVDZ-JKFIT + DEF2-UNIVERSAL-JKFIT
  Basis Set: CC-PVDZ
    Blend: CC-PVDZ
  Basis Set: (CC-PVDZ AUX)
    Blend: CC-PVDZ-JKFIT + DEF2-UNIVERSAL-JKFIT
  @DF-UKS Final Energy:  -249.45897689526288
    Total Energy =                       -249.4589768952628788
  Basis Set: CC-PVDZ
    Blend: CC-PVDZ
  Basis Set: (CC-PVDZ AUX)
    Blend: CC-PVDZ-JKFIT + DEF2-UNIVERSAL-JKFIT
  Basis Set: CC-PVDZ
    Blend: CC-PVDZ
  @DF-UKS Final Energy:  -249.53639391131949
    Total Energy =                       -249.5363939113194647
  @DF-UKS Final Energy:  -249.65292977909991
    Total Energy =                       -249.6529297790999067
  @DF-UKS Final Energy:  -249.72252392301908
    Total Energy =                       -249.7225239230190823
  @DF-UKS Final Energy:  -249.75363067228852
    Total Energy =                       -249.7536306722885229
  @DF-UKS Final Energy:  -249.76639923273976
    Total Energy =                       -249.7663992327397580
  @DF-UKS Final Energy:  -249.77097736416323
    Total Energy =                       -249.7709773641631728
  @DF-UKS Final Energy:  -249.77215533021877
    Total Energy =                       -249.7721553302187658
  @DF-UKS Final Energy:  -249.77229900119110
    Total Energy =                       -249.7722990011911293
  Basis Set: (CC-PVDZ AUX)
    Blend: CC-PVDZ-JKFIT + DEF2-UNIVERSAL-JKFIT
  Basis Set: CC-PVDZ
    Blend: CC-PVDZ
  Basis Set: (CC-PVDZ AUX)
    Blend: CC-PVDZ-JKFIT + DEF2-UNIVERSAL-JKFIT
  @DF-UKS Final Energy:  -249.77231910967356
    Total Energy =                       -249.7723191096735889
  Basis Set: CC-PVDZ
    Blend: CC-PVDZ
  Basis Set: (CC-PVDZ AUX)
    Blend: CC-PVDZ-JKFIT + DEF2-UNIVERSAL-JKFIT
  Charge       = 0
  Multiplicity = 5
  Basis Set: CC-PVDZ
    Blend: CC-PVDZ
  Basis Set: (CC-PVDZ AUX)
    Blend: CC-PVDZ-JKFIT + DEF2-UNIVERSAL-JKFIT

    Orbital Energies [Eh]
    ---------------------

    Alpha Occupied:

       1A1   -56.073512     2A1    -4.154587     3A1    -2.708318
       1B2    -2.707351     1B1    -2.707351     4A1    -2.059243
       5A1    -0.357759     6A1    -0.173878     2B2    -0.143446
       2B1    -0.143446

    Alpha Virtual:

       7A1    -0.064843     3B1    -0.015186     3B2    -0.015186
       8A1     0.019207     4B1     0.057216     4B2     0.057216
       9A1     0.074023    10A1     0.117905     1A2     0.186752
      11A1     0.186752    12A1     0.187438     5B1     0.195848
       5B2     0.195848     6B2     0.242064     6B1     0.242064
      13A1     0.265637     2A2     0.287563    14A1     0.287564
      15A1     0.397063     7B2     0.413188     7B1     0.413188
      16A1     0.622413

    Beta Occupied:

       1A1   -56.064158     2A1    -4.141152     3A1    -2.695378
       1B2    -2.693937     1B1    -2.693937     4A1    -2.053921

    Beta Virtual:

       5A1    -0.182405     6A1    -0.068044     2B1    -0.022709
       2B2    -0.022709     7A1    -0.012438     3B1     0.035584
       3B2     0.035584     8A1     0.039822     4B1     0.076016
       4B2     0.076016     9A1     0.078123    10A1     0.178261
      11A1     0.235270     1A2     0.241201    12A1     0.241211
       5B2     0.256155     5B1     0.256155     6B2     0.301926
       6B1     0.301926    13A1     0.330482    14A1     0.378453
       2A2     0.378461    15A1     0.446247     7B1     0.483302
       7B2     0.483302    16A1     0.671631

    Final Occupation by Irrep:
             A1    A2    B1    B2
    DOCC [     4,    0,    1,    1 ]
    SOCC [     2,    0,    1,    1 ]
    NA   [     6,    0,    2,    2 ]
    NB   [     4,    0,    1,    1 ]

  @DF-UKS Final Energy:  -249.77231996823232

   => Energetics <=

    Nuclear Repulsion Energy =              7.9678254339824726
    One-Electron Energy =                -362.1307586666393945
    Two-Electron Energy =                 120.8930920597440775
    DFT Exchange-Correlation Energy =     -16.5024787953194654
    Empirical Dispersion Energy =           0.0000000000000000
    VV10 Nonlocal Energy =                  0.0000000000000000
    Total Energy =                       -249.7723199682323241

  UHF NO Occupations:
  HONO-2 :    6 A1 1.0000000
  HONO-1 :    2 B2 1.0000000
  HONO-0 :    2 B1 1.0000000
  LUNO+0 :    7 A1 0.0000009
  LUNO+1 :    3 B1 0.0000003
  LUNO+2 :    3 B2 0.0000003
  LUNO+3 :    8 A1 0.0000002

Computation Completed

Properties will be evaluated at   0.000000,   0.000000,   0.000000 [a0]

Properties computed using the SCF density matrix

 Multipole Moments:

 ------------------------------------------------------------------------------------
     Multipole            Electronic (a.u.)      Nuclear  (a.u.)        Total (a.u.)
 ------------------------------------------------------------------------------------

 L = 1.  Multiply by 2.5417464519 to convert [e a0] to [Debye]
 Dipole X            :          0.0000000            0.0000000            0.0000000
 Dipole Y            :          0.0000000            0.0000000            0.0000000
 Dipole Z            :          3.4129046           -1.4776438            1.9352608
 Magnitude           :                                                    1.9352608

 ------------------------------------------------------------------------------------

*** tstop() called on Joses-MacBook-Pro-2.local at Wed Jul 16 18:34:17 2025
Module time:
	user time   =       3.23 seconds =       0.05 minutes
	system time =       3.11 seconds =       0.05 minutes
	total time  =          1 seconds =       0.02 minutes
Total time:
	user time   =      54.94 seconds =       0.92 minutes
	system time =      65.51 seconds =       1.09 minutes
	total time  =         12 seconds =       0.20 minutes

*** tstart() called on Joses-MacBook-Pro-2.local
*** at Wed Jul 16 18:34:17 2025

         ------------------------------------------------------------
                                   SCF GRAD
                          Rob Parrish, Justin Turney,
                       Andy Simmonett, and Alex Sokolov
         ------------------------------------------------------------

  ==> Geometry <==

    Molecular point group: c2v
    Full point group: C_inf_v

    Geometry (in Angstrom), charge = 0, multiplicity = 5:

       Center              X                  Y                   Z               Mass
    ------------   -----------------  -----------------  -----------------  -----------------
         LI           0.000000000000     0.000000000000     2.055630821928     7.016003436600
         AL           0.000000000000     0.000000000000    -0.534525223422    26.981538530000

  Nuclear repulsion =    7.967825433982473

  ==> Basis Set <==

  Basis Set: CC-PVDZ
    Blend: CC-PVDZ
    Number of shells: 14
    Number of basis functions: 32
    Number of Cartesian functions: 34
    Spherical Harmonics?: true
    Max angular momentum: 2

  ==> DFJKGrad: Density-Fitted SCF Gradients <==

    Gradient:                    1
    J tasked:                  Yes
    K tasked:                  Yes
    wK tasked:                  No
    OpenMP threads:              1
    Integrals threads:           1
    Memory [MiB]:              375
    Schwarz Cutoff:          1E-12
    Fitting Condition:       1E-10

   => Auxiliary Basis Set <=

  Basis Set: (CC-PVDZ AUX)
    Blend: CC-PVDZ-JKFIT + DEF2-UNIVERSAL-JKFIT
    Number of shells: 53
    Number of basis functions: 163
    Number of Cartesian functions: 190
    Spherical Harmonics?: true
    Max angular momentum: 3

  ==> DFT Potential <==

   => LibXC <=

    Version 6.2.2
    S. Lehtola, C. Steigemann, M. J.T. Oliveira, and M. A.L. Marques.,  SoftwareX 7, 1â€“5 (2018) (10.1016/j.softx.2017.11.002)

   => Composite Functional: B3LYP <=

    B3LYP Hyb-GGA Exchange-Correlation Functional

    P. J. Stephens, F. J. Devlin, C. F. Chabalowski, and M. J. Frisch.,  J. Phys. Chem. 98, 11623 (1994) (10.1021/j100096a001)

    Deriv               =              1
    GGA                 =           TRUE
    Meta                =          FALSE

    Exchange Hybrid     =           TRUE
    MP2 Hybrid          =          FALSE

   => Exchange Functionals <=

    0.0800   Slater exchange
    0.7200         Becke 88

   => Exact (HF) Exchange <=

    0.2000               HF

   => Correlation Functionals <=

    0.1900   Vosko, Wilk & Nusair (VWN5_RPA)
    0.8100   Lee, Yang & Parr

   => LibXC Density Thresholds  <==

    XC_HYB_GGA_XC_B3LYP:  1.00E-15

   => Molecular Quadrature <=

    Radial Scheme          =       TREUTLER
    Pruning Scheme         =           NONE
    Nuclear Scheme         =       TREUTLER

    Blocking Scheme        =         OCTREE
    BS radius alpha        =              1
    Pruning alpha          =              1
    Radial Points          =             75
    Spherical Points       =            302
    Total Points           =          44307
    Total Blocks           =            452
    Max Points             =            255
    Max Functions          =             32
    Weights Tolerance      =       1.00E-15

  -Total Gradient:
     Atom            X                  Y                   Z
    ------   -----------------  -----------------  -----------------
       1       -0.000000000000     0.000000000000    -0.000040120983
       2       -0.000000000000     0.000000000000     0.000046607573

*** tstop() called on Joses-MacBook-Pro-2.local at Wed Jul 16 18:34:17 2025
Module time:
	user time   =       0.64 seconds =       0.01 minutes
	system time =       1.80 seconds =       0.03 minutes
	total time  =          0 seconds =       0.00 minutes
Total time:
	user time   =      55.58 seconds =       0.93 minutes
	system time =      67.31 seconds =       1.12 minutes
	total time  =         12 seconds =       0.20 minutes

    			-----------------------------------------

    			 OPTKING 3.0: for geometry optimizations

    			     By R.A. King, Bethel University

    			        with contributions from

    			    A.V. Copan, J. Cayton, A. Heide

    			-----------------------------------------

	                            ===> Fragment 1 <==

	 Z (Atomic Numbers)          Masses                          Geom
	       3.000000             7.016003          0.00000000  0.00000000  3.88457927
	      13.000000            26.981539          0.00000000  0.00000000 -1.01010628

	 - Coordinate -           - BOHR/RAD -       - ANG/DEG -
	 R(1,2)           =         4.894686           2.590156

	        --- Internal Coordinate Step in ANG or DEG, aJ/ANG or AJ/DEG ---
	-------------------------------------------------------------------------------
	           Coordinate      Previous         Force          Change          New
	           ----------      --------        ------          ------        ------
	               R(1,2)       2.59016        0.00036        0.00073       2.59089
	-------------------------------------------------------------------------------

	                                 ==> Convergence Check <==

	Measures of convergence in internal coordinates in au.

	Criteria marked as inactive (o), active & met (*), and active & unmet ( ).

	----------------------------------------------------------------------------------------------
	   Step    Total Energy     Delta E     Max Force     RMS Force      Max Disp      RMS Disp
	----------------------------------------------------------------------------------------------
	  Convergence Criteria     1.00e-06 *    3.00e-04 *             o    1.20e-03 *             o
	----------------------------------------------------------------------------------------------
	    12    -249.77231997   -8.59e-07 *    4.34e-05 *    4.34e-05 o    1.38e-03      1.38e-03 o  ~
	----------------------------------------------------------------------------------------------

Next Geometry in Ang
	Fragment 1 (Ang)

	   Li   0.0000000000   0.0000000000   2.0559959503
	   Al   0.0000000000   0.0000000000  -0.5348903518

    Final optimized geometry and variables:
    Molecular point group: c2v
    Full point group: C_inf_v

    Geometry (in Angstrom), charge = 0, multiplicity = 5:

    LI           0.000000000000     0.000000000000     2.055630821928
    AL           0.000000000000     0.000000000000    -0.534525223422

    Psi4 stopped on: Wednesday, 16 July 2025 06:34PM
    Psi4 wall time for execution: 0:00:12.49

*** Psi4 exiting successfully. Buy a developer a beer!
