                               Psi4 1.9.1 release

  ==> Input File <==

--------------------------------------------------------------------------
molecule {
0 5
Li   0.00000        0.60000        0.00000
Na   0.00000       -0.60000        0.00000
}

set {
basis              cc-pvdz
reference          uks
maxiter            500
geom_maxiter       500
DAMPING_PERCENTAGE 1
guess              SAP
}

optimize('b3lyp')
--------------------------------------------------------------------------

    Molecular point group: c2v
  Charge       = 0
  Multiplicity = 5
  Basis Set: CC-PVDZ
    Blend: CC-PVDZ
  Basis Set: (CC-PVDZ AUX)
    Blend: DEF2-UNIVERSAL-JKFIT
  @DF-UKS Final Energy:  -168.19270233448756
    Total Energy =                       -168.1927023344875352
 Dipole X            :          0.0000000            0.0000000            0.0000000
 Dipole Y            :          0.0000000            0.0000000            0.0000000
 Dipole Z            :          0.3815255           -0.6202195           -0.2386940
 Magnitude           :                                                    0.2386940
    Molecular point group: c2v
  Basis Set: CC-PVDZ
    Blend: CC-PVDZ
  Basis Set: (CC-PVDZ AUX)
    Blend: DEF2-UNIVERSAL-JKFIT
  Basis Set: CC-PVDZ
    Blend: CC-PVDZ
  Basis Set: (CC-PVDZ AUX)
    Blend: DEF2-UNIVERSAL-JKFIT
  @DF-UKS Final Energy:  -168.23815184103876
    Total Energy =                       -168.2381518410387571
  Basis Set: CC-PVDZ
    Blend: CC-PVDZ
  Basis Set: (CC-PVDZ AUX)
    Blend: DEF2-UNIVERSAL-JKFIT
  Basis Set: CC-PVDZ
    Blend: CC-PVDZ
  @DF-UKS Final Energy:  -168.29092998824544
    Total Energy =                       -168.2909299882454377
  @DF-UKS Final Energy:  -168.35421322287723
    Total Energy =                       -168.3542132228772346
  @DF-UKS Final Energy:  -168.38956625144291
    Total Energy =                       -168.3895662514429148
  @DF-UKS Final Energy:  -168.41733280632303
    Total Energy =                       -168.4173328063230315
  @DF-UKS Final Energy:  -168.43014099565872
    Total Energy =                       -168.4301409956586895
  @DF-UKS Final Energy:  -168.43416158523905
    Total Energy =                       -168.4341615852390532
  @DF-UKS Final Energy:  -168.43480873758466
    Total Energy =                       -168.4348087375846603
  @DF-UKS Final Energy:  -168.43485658837486
    Total Energy =                       -168.4348565883748563
  Basis Set: (CC-PVDZ AUX)
    Blend: DEF2-UNIVERSAL-JKFIT
  Basis Set: CC-PVDZ
    Blend: CC-PVDZ
  Basis Set: (CC-PVDZ AUX)
    Blend: DEF2-UNIVERSAL-JKFIT
  @DF-UKS Final Energy:  -168.43486068849063
    Total Energy =                       -168.4348606884906303
  Basis Set: CC-PVDZ
    Blend: CC-PVDZ
  Basis Set: (CC-PVDZ AUX)
    Blend: DEF2-UNIVERSAL-JKFIT
  Charge       = 0
  Multiplicity = 5
  Basis Set: CC-PVDZ
    Blend: CC-PVDZ
  Basis Set: (CC-PVDZ AUX)
    Blend: DEF2-UNIVERSAL-JKFIT

    Orbital Energies [Eh]
    ---------------------

    Alpha Occupied:

       1A1   -39.700945     2A1    -3.007443     3A1    -2.065459
       1B2    -2.017906     4A1    -1.904108     1B1    -1.898230
       5A1    -0.264542     2B2    -0.123602     2B1    -0.119395

    Alpha Virtual:

       6A1    -0.095431     7A1    -0.041831     3B2    -0.007710
       3B1    -0.006993     8A1     0.022963     9A1     0.033899
       4B2     0.035985     4B1     0.036895    10A1     0.047461
       5B2     0.077854     5B1     0.078431    11A1     0.092972
       1A2     0.092996    12A1     0.129376    13A1     0.163066
       6B2     0.163754     6B1     0.165593     2A2     0.243597
      14A1     0.243635    15A1     0.289193     7B2     0.354333
       7B1     0.354335    16A1     1.216996

    Beta Occupied:

       1A1   -39.656223     2A1    -2.886531     3A1    -2.060731
       4A1    -1.857802     1B1    -1.850982

    Beta Virtual:

       1B2    -1.615491     5A1    -0.142550     6A1    -0.060509
       2B1    -0.021609     7A1    -0.020409     2B2    -0.019270
       3B1     0.021734     3B2     0.023078     8A1     0.033037
       9A1     0.050502     4B1     0.059545     4B2     0.061870
      10A1     0.062351     5B1     0.099326     5B2     0.100364
      11A1     0.161588     1A2     0.165389    12A1     0.167960
      13A1     0.175797     6B1     0.208659     6B2     0.209807
       2A2     0.286237    14A1     0.286587    15A1     0.313228
       7B1     0.385190     7B2     0.386757    16A1     1.240239

    Final Occupation by Irrep:
             A1    A2    B1    B2
    DOCC [     4,    0,    1,    0 ]
    SOCC [     1,    0,    1,    2 ]
    NA   [     5,    0,    2,    2 ]
    NB   [     4,    0,    1,    0 ]

  @DF-UKS Final Energy:  -168.43486106378273

   => Energetics <=

    Nuclear Repulsion Energy =              7.4234613502451259
    One-Electron Energy =                -243.3318984245343302
    Two-Electron Energy =                  79.9891218512057520
    DFT Exchange-Correlation Energy =     -12.5155458406992839
    Empirical Dispersion Energy =           0.0000000000000000
    VV10 Nonlocal Energy =                  0.0000000000000000
    Total Energy =                       -168.4348610637827335

  UHF NO Occupations:
  HONO-2 :    5 A1 1.0000000
  HONO-1 :    2 B1 1.0000000
  HONO-0 :    2 B2 1.0000000
  LUNO+0 :    6 A1 0.0000066
  LUNO+1 :    7 A1 0.0000024
  LUNO+2 :    3 B1 0.0000010
  LUNO+3 :    8 A1 0.0000003

Computation Completed

Properties will be evaluated at   0.000000,   0.000000,   0.000000 [a0]

Properties computed using the SCF density matrix

 Multipole Moments:

 ------------------------------------------------------------------------------------
     Multipole            Electronic (a.u.)      Nuclear  (a.u.)        Total (a.u.)
 ------------------------------------------------------------------------------------

 L = 1.  Multiply by 2.5417464519 to convert [e a0] to [Debye]
 Dipole X            :          0.0000000            0.0000000            0.0000000
 Dipole Y            :          0.0000000            0.0000000            0.0000000
 Dipole Z            :          1.7098621           -1.2158299            0.4940322
 Magnitude           :                                                    0.4940322

 ------------------------------------------------------------------------------------

*** tstop() called on Joses-MacBook-Pro-2.local at Wed Jul 16 18:32:55 2025
Module time:
	user time   =       2.14 seconds =       0.04 minutes
	system time =       3.27 seconds =       0.05 minutes
	total time  =          1 seconds =       0.02 minutes
Total time:
	user time   =      53.62 seconds =       0.89 minutes
	system time =      58.87 seconds =       0.98 minutes
	total time  =         11 seconds =       0.18 minutes

*** tstart() called on Joses-MacBook-Pro-2.local
*** at Wed Jul 16 18:32:55 2025

         ------------------------------------------------------------
                                   SCF GRAD
                          Rob Parrish, Justin Turney,
                       Andy Simmonett, and Alex Sokolov
         ------------------------------------------------------------

  ==> Geometry <==

    Molecular point group: c2v
    Full point group: C_inf_v

    Geometry (in Angstrom), charge = 0, multiplicity = 5:

       Center              X                  Y                   Z               Mass
    ------------   -----------------  -----------------  -----------------  -----------------
         LI           0.000000000000     0.000000000000     1.802347043212     7.016003436600
         NA           0.000000000000     0.000000000000    -0.550039145413    22.989769282000

  Nuclear repulsion =    7.423461350245126

  ==> Basis Set <==

  Basis Set: CC-PVDZ
    Blend: CC-PVDZ
    Number of shells: 14
    Number of basis functions: 32
    Number of Cartesian functions: 34
    Spherical Harmonics?: true
    Max angular momentum: 2

  ==> DFJKGrad: Density-Fitted SCF Gradients <==

    Gradient:                    1
    J tasked:                  Yes
    K tasked:                  Yes
    wK tasked:                  No
    OpenMP threads:              1
    Integrals threads:           1
    Memory [MiB]:              375
    Schwarz Cutoff:          1E-12
    Fitting Condition:       1E-10

   => Auxiliary Basis Set <=

  Basis Set: (CC-PVDZ AUX)
    Blend: DEF2-UNIVERSAL-JKFIT
    Number of shells: 51
    Number of basis functions: 163
    Number of Cartesian functions: 197
    Spherical Harmonics?: true
    Max angular momentum: 4

  ==> DFT Potential <==

   => LibXC <=

    Version 6.2.2
    S. Lehtola, C. Steigemann, M. J.T. Oliveira, and M. A.L. Marques.,  SoftwareX 7, 1â€“5 (2018) (10.1016/j.softx.2017.11.002)

   => Composite Functional: B3LYP <=

    B3LYP Hyb-GGA Exchange-Correlation Functional

    P. J. Stephens, F. J. Devlin, C. F. Chabalowski, and M. J. Frisch.,  J. Phys. Chem. 98, 11623 (1994) (10.1021/j100096a001)

    Deriv               =              1
    GGA                 =           TRUE
    Meta                =          FALSE

    Exchange Hybrid     =           TRUE
    MP2 Hybrid          =          FALSE

   => Exchange Functionals <=

    0.0800   Slater exchange
    0.7200         Becke 88

   => Exact (HF) Exchange <=

    0.2000               HF

   => Correlation Functionals <=

    0.1900   Vosko, Wilk & Nusair (VWN5_RPA)
    0.8100   Lee, Yang & Parr

   => LibXC Density Thresholds  <==

    XC_HYB_GGA_XC_B3LYP:  1.00E-15

   => Molecular Quadrature <=

    Radial Scheme          =       TREUTLER
    Pruning Scheme         =           NONE
    Nuclear Scheme         =       TREUTLER

    Blocking Scheme        =         OCTREE
    BS radius alpha        =              1
    Pruning alpha          =              1
    Radial Points          =             75
    Spherical Points       =            302
    Total Points           =          43593
    Total Blocks           =            451
    Max Points             =            256
    Max Functions          =             32
    Weights Tolerance      =       1.00E-15

  -Total Gradient:
     Atom            X                  Y                   Z
    ------   -----------------  -----------------  -----------------
       1       -0.000000000000     0.000000000000    -0.000044581718
       2        0.000000000000     0.000000000000     0.000053260202

*** tstop() called on Joses-MacBook-Pro-2.local at Wed Jul 16 18:32:55 2025
Module time:
	user time   =       0.91 seconds =       0.02 minutes
	system time =       1.72 seconds =       0.03 minutes
	total time  =          0 seconds =       0.00 minutes
Total time:
	user time   =      54.53 seconds =       0.91 minutes
	system time =      60.59 seconds =       1.01 minutes
	total time  =         11 seconds =       0.18 minutes

    			-----------------------------------------

    			 OPTKING 3.0: for geometry optimizations

    			     By R.A. King, Bethel University

    			        with contributions from

    			    A.V. Copan, J. Cayton, A. Heide

    			-----------------------------------------

	                            ===> Fragment 1 <==

	 Z (Atomic Numbers)          Masses                          Geom
	       3.000000             7.016003          0.00000000  0.00000000  3.40594229
	      11.000000            22.989769          0.00000000  0.00000000 -1.03942334

	 - Coordinate -           - BOHR/RAD -       - ANG/DEG -
	 R(1,2)           =         4.445366           2.352386

	        --- Internal Coordinate Step in ANG or DEG, aJ/ANG or AJ/DEG ---
	-------------------------------------------------------------------------------
	           Coordinate      Previous         Force          Change          New
	           ----------      --------        ------          ------        ------
	               R(1,2)       2.35239        0.00040        0.00071       2.35310
	-------------------------------------------------------------------------------

	                                 ==> Convergence Check <==

	Measures of convergence in internal coordinates in au.

	Criteria marked as inactive (o), active & met (*), and active & unmet ( ).

	----------------------------------------------------------------------------------------------
	   Step    Total Energy     Delta E     Max Force     RMS Force      Max Disp      RMS Disp
	----------------------------------------------------------------------------------------------
	  Convergence Criteria     1.00e-06 *    3.00e-04 *             o    1.20e-03 *             o
	----------------------------------------------------------------------------------------------
	    12    -168.43486106   -3.75e-07 *    4.89e-05 *    4.89e-05 o    1.35e-03      1.35e-03 o  ~
	----------------------------------------------------------------------------------------------

Next Geometry in Ang
	Fragment 1 (Ang)

	   Li   0.0000000000   0.0000000000   1.8027041173
	   Na   0.0000000000   0.0000000000  -0.5503962195

    Final optimized geometry and variables:
    Molecular point group: c2v
    Full point group: C_inf_v

    Geometry (in Angstrom), charge = 0, multiplicity = 5:

    LI           0.000000000000     0.000000000000     1.802347043212
    NA           0.000000000000     0.000000000000    -0.550039145413

    Psi4 stopped on: Wednesday, 16 July 2025 06:32PM
    Psi4 wall time for execution: 0:00:11.96

*** Psi4 exiting successfully. Buy a developer a beer!
