                               Psi4 1.9.1 release

  ==> Input File <==

--------------------------------------------------------------------------
molecule {
0 5
Ne   0.00000        0.60000        0.00000
Mg   0.00000       -0.60000        0.00000
}

set {
basis              cc-pvdz
reference          uks
maxiter            500
geom_maxiter       500
DAMPING_PERCENTAGE 1
guess              SAP
}

optimize('b3lyp')
--------------------------------------------------------------------------

    Molecular point group: c2v
  Charge       = 0
  Multiplicity = 5
  Basis Set: CC-PVDZ
    Blend: CC-PVDZ
  Basis Set: (CC-PVDZ AUX)
    Blend: CC-PVDZ-JKFIT + DEF2-UNIVERSAL-JKFIT
  @DF-UKS Final Energy:  -327.67832617779766
    Total Energy =                       -327.6783261777977145
 Dipole X            :          0.0000000            0.0000000            0.0000000
 Dipole Y            :          0.0000000            0.0000000            0.0000000
 Dipole Z            :          1.6701569           -0.0030353            1.6671216
 Magnitude           :                                                    1.6671216
    Molecular point group: c2v
  Basis Set: CC-PVDZ
    Blend: CC-PVDZ
  Basis Set: (CC-PVDZ AUX)
    Blend: CC-PVDZ-JKFIT + DEF2-UNIVERSAL-JKFIT
  Basis Set: CC-PVDZ
    Blend: CC-PVDZ
  Basis Set: (CC-PVDZ AUX)
    Blend: CC-PVDZ-JKFIT + DEF2-UNIVERSAL-JKFIT
  @DF-UKS Final Energy:  -327.87781413673559
    Total Energy =                       -327.8778141367355943
  Basis Set: CC-PVDZ
    Blend: CC-PVDZ
  Basis Set: (CC-PVDZ AUX)
    Blend: CC-PVDZ-JKFIT + DEF2-UNIVERSAL-JKFIT
  Basis Set: CC-PVDZ
    Blend: CC-PVDZ
  @DF-UKS Final Energy:  -328.01208776044984
    Total Energy =                       -328.0120877604499015
  @DF-UKS Final Energy:  -328.10232077700789
    Total Energy =                       -328.1023207770078898
  @DF-UKS Final Energy:  -328.17021041212774
    Total Energy =                       -328.1702104121277443
  @DF-UKS Final Energy:  -328.21465215402230
    Total Energy =                       -328.2146521540223034
  @DF-UKS Final Energy:  -328.23932036641315
    Total Energy =                       -328.2393203664131534
  @DF-UKS Final Energy:  -328.24988619396663
    Total Energy =                       -328.2498861939666313
  @DF-UKS Final Energy:  -328.25328626465074
    Total Energy =                       -328.2532862646507965
  @DF-UKS Final Energy:  -328.25399538535413
    Total Energy =                       -328.2539953853541306
  @DF-UKS Final Energy:  -328.25405627583729
    Total Energy =                       -328.2540562758373426
  Basis Set: (CC-PVDZ AUX)
    Blend: CC-PVDZ-JKFIT + DEF2-UNIVERSAL-JKFIT
  Basis Set: CC-PVDZ
    Blend: CC-PVDZ
  Basis Set: (CC-PVDZ AUX)
    Blend: CC-PVDZ-JKFIT + DEF2-UNIVERSAL-JKFIT
  @DF-UKS Final Energy:  -328.25406244846380
    Total Energy =                       -328.2540624484637988
  Basis Set: CC-PVDZ
    Blend: CC-PVDZ
  Basis Set: (CC-PVDZ AUX)
    Blend: CC-PVDZ-JKFIT + DEF2-UNIVERSAL-JKFIT
  Charge       = 0
  Multiplicity = 5
  Basis Set: CC-PVDZ
    Blend: CC-PVDZ
  Basis Set: (CC-PVDZ AUX)
    Blend: CC-PVDZ-JKFIT + DEF2-UNIVERSAL-JKFIT

    Orbital Energies [Eh]
    ---------------------

    Alpha Occupied:

       1A1   -46.829918     2A1   -31.675855     3A1    -3.112991
       4A1    -2.044348     5A1    -1.859303     1B2    -1.855321
       1B1    -1.855321     6A1    -1.217813     2B1    -1.106460
       2B2    -1.106460     7A1    -0.238667     3B2    -0.085734
       3B1    -0.085734

    Alpha Virtual:

       8A1    -0.061334     9A1     0.062969    10A1     0.140844
       4B1     0.151456     4B2     0.151456    11A1     0.288792
       5B2     0.291458     5B1     0.291458     1A2     0.307140
      12A1     0.307140     6B2     0.949475     6B1     0.949475
      13A1     0.967528    14A1     1.503299    15A1     4.059174
       7B1     4.081151     7B2     4.081151     2A2     4.164049
      16A1     4.164645

    Beta Occupied:

       1A1   -46.825359     2A1   -31.635057     3A1    -3.105734
       4A1    -1.935391     5A1    -1.854752     1B2    -1.847696
       1B1    -1.847696     2B1    -1.066029     2B2    -1.066029

    Beta Virtual:

       6A1    -0.856331     7A1    -0.117034     8A1    -0.025629
       3B2     0.020138     3B1     0.020138     9A1     0.109209
      10A1     0.166506     4B1     0.200200     4B2     0.200200
      11A1     0.334890     5B2     0.349289     5B1     0.349289
       1A2     0.384949    12A1     0.384954     6B2     0.968253
       6B1     0.968253    13A1     1.074989    14A1     1.558710
       2A2     4.183637    15A1     4.184182     7B1     4.195941
       7B2     4.195941    16A1     4.223522

    Final Occupation by Irrep:
             A1    A2    B1    B2
    DOCC [     5,    0,    2,    2 ]
    SOCC [     2,    0,    1,    1 ]
    NA   [     7,    0,    3,    3 ]
    NB   [     5,    0,    2,    2 ]

  @DF-UKS Final Energy:  -328.25406268741108

   => Energetics <=

    Nuclear Repulsion Energy =             22.3424963724551873
    One-Electron Energy =                -500.4541010819903022
    Two-Electron Energy =                 172.9092605869884380
    DFT Exchange-Correlation Energy =     -23.0517185648644194
    Empirical Dispersion Energy =           0.0000000000000000
    VV10 Nonlocal Energy =                  0.0000000000000000
    Total Energy =                       -328.2540626874111354

  UHF NO Occupations:
  HONO-2 :    6 A1 1.0000000
  HONO-1 :    3 B1 1.0000000
  HONO-0 :    7 A1 1.0000000
  LUNO+0 :    8 A1 0.0002679
  LUNO+1 :    4 B2 0.0000489
  LUNO+2 :    4 B1 0.0000489
  LUNO+3 :    9 A1 0.0000009

Computation Completed

Properties will be evaluated at   0.000000,   0.000000,   0.000000 [a0]

Properties computed using the SCF density matrix

 Multipole Moments:

 ------------------------------------------------------------------------------------
     Multipole            Electronic (a.u.)      Nuclear  (a.u.)        Total (a.u.)
 ------------------------------------------------------------------------------------

 L = 1.  Multiply by 2.5417464519 to convert [e a0] to [Debye]
 Dipole X            :          0.0000000            0.0000000            0.0000000
 Dipole Y            :          0.0000000            0.0000000            0.0000000
 Dipole Z            :          3.9663304           -0.0071891            3.9591412
 Magnitude           :                                                    3.9591412

 ------------------------------------------------------------------------------------

*** tstop() called on Joses-MacBook-Pro-2.local at Wed Jul 16 19:34:08 2025
Module time:
	user time   =       2.56 seconds =       0.04 minutes
	system time =       2.29 seconds =       0.04 minutes
	total time  =          0 seconds =       0.00 minutes
Total time:
	user time   =      65.90 seconds =       1.10 minutes
	system time =      58.55 seconds =       0.98 minutes
	total time  =         12 seconds =       0.20 minutes

*** tstart() called on Joses-MacBook-Pro-2.local
*** at Wed Jul 16 19:34:08 2025

         ------------------------------------------------------------
                                   SCF GRAD
                          Rob Parrish, Justin Turney,
                       Andy Simmonett, and Alex Sokolov
         ------------------------------------------------------------

  ==> Geometry <==

    Molecular point group: c2v
    Full point group: C_inf_v

    Geometry (in Angstrom), charge = 0, multiplicity = 5:

       Center              X                  Y                   Z               Mass
    ------------   -----------------  -----------------  -----------------  -----------------
         NE           0.000000000000     0.000000000000     1.550103876170    19.992440176200
         MG           0.000000000000     0.000000000000    -1.292070257902    23.985041697000

  Nuclear repulsion =   22.342496372455187

  ==> Basis Set <==

  Basis Set: CC-PVDZ
    Blend: CC-PVDZ
    Number of shells: 14
    Number of basis functions: 32
    Number of Cartesian functions: 34
    Spherical Harmonics?: true
    Max angular momentum: 2

  ==> DFJKGrad: Density-Fitted SCF Gradients <==

    Gradient:                    1
    J tasked:                  Yes
    K tasked:                  Yes
    wK tasked:                  No
    OpenMP threads:              1
    Integrals threads:           1
    Memory [MiB]:              375
    Schwarz Cutoff:          1E-12
    Fitting Condition:       1E-10

   => Auxiliary Basis Set <=

  Basis Set: (CC-PVDZ AUX)
    Blend: CC-PVDZ-JKFIT + DEF2-UNIVERSAL-JKFIT
    Number of shells: 58
    Number of basis functions: 182
    Number of Cartesian functions: 218
    Spherical Harmonics?: true
    Max angular momentum: 4

  ==> DFT Potential <==

   => LibXC <=

    Version 6.2.2
    S. Lehtola, C. Steigemann, M. J.T. Oliveira, and M. A.L. Marques.,  SoftwareX 7, 1â€“5 (2018) (10.1016/j.softx.2017.11.002)

   => Composite Functional: B3LYP <=

    B3LYP Hyb-GGA Exchange-Correlation Functional

    P. J. Stephens, F. J. Devlin, C. F. Chabalowski, and M. J. Frisch.,  J. Phys. Chem. 98, 11623 (1994) (10.1021/j100096a001)

    Deriv               =              1
    GGA                 =           TRUE
    Meta                =          FALSE

    Exchange Hybrid     =           TRUE
    MP2 Hybrid          =          FALSE

   => Exchange Functionals <=

    0.0800   Slater exchange
    0.7200         Becke 88

   => Exact (HF) Exchange <=

    0.2000               HF

   => Correlation Functionals <=

    0.1900   Vosko, Wilk & Nusair (VWN5_RPA)
    0.8100   Lee, Yang & Parr

   => LibXC Density Thresholds  <==

    XC_HYB_GGA_XC_B3LYP:  1.00E-15

   => Molecular Quadrature <=

    Radial Scheme          =       TREUTLER
    Pruning Scheme         =           NONE
    Nuclear Scheme         =       TREUTLER

    Blocking Scheme        =         OCTREE
    BS radius alpha        =              1
    Pruning alpha          =              1
    Radial Points          =             75
    Spherical Points       =            302
    Total Points           =          43506
    Total Blocks           =            410
    Max Points             =            254
    Max Functions          =             32
    Weights Tolerance      =       1.00E-15

  -Total Gradient:
     Atom            X                  Y                   Z
    ------   -----------------  -----------------  -----------------
       1        0.000000000000    -0.000000000000    -0.000011531008
       2        0.000000000000    -0.000000000000     0.000012194528

*** tstop() called on Joses-MacBook-Pro-2.local at Wed Jul 16 19:34:08 2025
Module time:
	user time   =       0.88 seconds =       0.01 minutes
	system time =       1.83 seconds =       0.03 minutes
	total time  =          0 seconds =       0.00 minutes
Total time:
	user time   =      66.78 seconds =       1.11 minutes
	system time =      60.38 seconds =       1.01 minutes
	total time  =         12 seconds =       0.20 minutes

    			-----------------------------------------

    			 OPTKING 3.0: for geometry optimizations

    			     By R.A. King, Bethel University

    			        with contributions from

    			    A.V. Copan, J. Cayton, A. Heide

    			-----------------------------------------

	                            ===> Fragment 1 <==

	 Z (Atomic Numbers)          Masses                          Geom
	      10.000000            19.992440          0.00000000  0.00000000  2.92927179
	      12.000000            23.985042          0.00000000  0.00000000 -2.44165892

	 - Coordinate -           - BOHR/RAD -       - ANG/DEG -
	 R(1,2)           =         5.370931           2.842174

	        --- Internal Coordinate Step in ANG or DEG, aJ/ANG or AJ/DEG ---
	-------------------------------------------------------------------------------
	           Coordinate      Previous         Force          Change          New
	           ----------      --------        ------          ------        ------
	               R(1,2)       2.84217        0.00010        0.00025       2.84243
	-------------------------------------------------------------------------------

	                                 ==> Convergence Check <==

	Measures of convergence in internal coordinates in au.

	Criteria marked as inactive (o), active & met (*), and active & unmet ( ).

	----------------------------------------------------------------------------------------------
	   Step    Total Energy     Delta E     Max Force     RMS Force      Max Disp      RMS Disp
	----------------------------------------------------------------------------------------------
	  Convergence Criteria     1.00e-06 *    3.00e-04 *             o    1.20e-03 *             o
	----------------------------------------------------------------------------------------------
	    13    -328.25406269   -2.39e-07 *    1.19e-05 *    1.19e-05 o    4.77e-04 *    4.77e-04 o  ~
	----------------------------------------------------------------------------------------------

Next Geometry in Ang
	Fragment 1 (Ang)

	   Ne   0.0000000000   0.0000000000   1.5502299733
	   Mg   0.0000000000   0.0000000000  -1.2921963550

    Final optimized geometry and variables:
    Molecular point group: c2v
    Full point group: C_inf_v

    Geometry (in Angstrom), charge = 0, multiplicity = 5:

    NE           0.000000000000     0.000000000000     1.550103876170
    MG           0.000000000000     0.000000000000    -1.292070257902

    Psi4 stopped on: Wednesday, 16 July 2025 07:34PM
    Psi4 wall time for execution: 0:00:13.45

*** Psi4 exiting successfully. Buy a developer a beer!
