                               Psi4 1.9.1 release

  ==> Input File <==

--------------------------------------------------------------------------
molecule {
0 5
Be   0.00000        0.60000        0.00000
Be   0.00000       -0.60000        0.00000
}

set {
basis              cc-pvdz
reference          uks
maxiter            500
geom_maxiter       500
DAMPING_PERCENTAGE 1
guess              SAP
}

optimize('b3lyp')
--------------------------------------------------------------------------

    Molecular point group: d2h
  Charge       = 0
  Multiplicity = 5
  Basis Set: CC-PVDZ
    Blend: CC-PVDZ
  Basis Set: (CC-PVDZ AUX)
    Blend: DEF2-UNIVERSAL-JKFIT
  @DF-UKS Final Energy:   -29.00536917007787
    Total Energy =                        -29.0053691700778735
 Dipole X            :          0.0000000            0.0000000            0.0000000
 Dipole Y            :          0.0000000            0.0000000            0.0000000
 Dipole Z            :          0.0000000            0.0000000            0.0000000
 Magnitude           :                                                    0.0000000
    Molecular point group: d2h
  Basis Set: CC-PVDZ
    Blend: CC-PVDZ
  Basis Set: (CC-PVDZ AUX)
    Blend: DEF2-UNIVERSAL-JKFIT
  Basis Set: CC-PVDZ
    Blend: CC-PVDZ
  Basis Set: (CC-PVDZ AUX)
    Blend: DEF2-UNIVERSAL-JKFIT
  @DF-UKS Final Energy:   -29.11611709120317
    Total Energy =                        -29.1161170912031722
  Basis Set: CC-PVDZ
    Blend: CC-PVDZ
  Basis Set: (CC-PVDZ AUX)
    Blend: DEF2-UNIVERSAL-JKFIT
  Basis Set: CC-PVDZ
    Blend: CC-PVDZ
  @DF-UKS Final Energy:   -29.17539588572782
    Total Energy =                        -29.1753958857278199
  @DF-UKS Final Energy:   -29.19831032839078
    Total Energy =                        -29.1983103283907752
  @DF-UKS Final Energy:   -29.20644787706371
    Total Energy =                        -29.2064478770637130
  @DF-UKS Final Energy:   -29.20850333361866
    Total Energy =                        -29.2085033336186584
  @DF-UKS Final Energy:   -29.20876250535681
    Total Energy =                        -29.2087625053568090
  @DF-UKS Final Energy:   -29.20879862588686
    Total Energy =                        -29.2087986258868639
  Basis Set: (CC-PVDZ AUX)
    Blend: DEF2-UNIVERSAL-JKFIT
  Basis Set: CC-PVDZ
    Blend: CC-PVDZ
  Basis Set: (CC-PVDZ AUX)
    Blend: DEF2-UNIVERSAL-JKFIT
  @DF-UKS Final Energy:   -29.20880396092135
    Total Energy =                        -29.2088039609213546
  Basis Set: CC-PVDZ
    Blend: CC-PVDZ
  Basis Set: (CC-PVDZ AUX)
    Blend: DEF2-UNIVERSAL-JKFIT
  Charge       = 0
  Multiplicity = 5
  Basis Set: CC-PVDZ
    Blend: CC-PVDZ
  Basis Set: (CC-PVDZ AUX)
    Blend: DEF2-UNIVERSAL-JKFIT

    Orbital Energies [Eh]
    ---------------------

    Alpha Occupied:

       1Ag    -4.114515     1B2u   -4.114012     2Ag    -0.379252
       2B2u   -0.212129     1B1u   -0.179030     1B3u   -0.179030

    Alpha Virtual:

       3Ag    -0.120357     1B3g   -0.023044     1B1g   -0.023044
       3B2u    0.093895     4Ag     0.141449     2B1u    0.152315
       2B3u    0.152315     5Ag     0.170522     2B3g    0.205429
       2B1g    0.205429     4B2u    0.235902     5B2u    0.372683
       1B2g    0.374994     6Ag     0.374994     3B3u    0.412815
       3B1u    0.412815     1Au     0.527148     6B2u    0.527148
       7Ag     0.670500     3B1g    0.728314     3B3g    0.728314
       7B2u    0.908028

    Beta Occupied:

       1Ag    -4.095191     1B2u   -4.094820

    Beta Virtual:

       2Ag    -0.180373     2B2u   -0.076487     1B1u   -0.027173
       1B3u   -0.027173     3Ag    -0.025620     1B3g    0.062451
       1B1g    0.062451     3B2u    0.136942     4Ag     0.186022
       2B1u    0.201773     2B3u    0.201773     5Ag     0.227481
       2B3g    0.252247     2B1g    0.252247     4B2u    0.289333
       5B2u    0.435649     6Ag     0.489008     1B2g    0.489410
       3B1u    0.524018     3B3u    0.524018     6B2u    0.629145
       1Au     0.629740     7Ag     0.759745     3B3g    0.816829
       3B1g    0.816829     7B2u    0.959423

    Final Occupation by Irrep:
             Ag   B1g   B2g   B3g    Au   B1u   B2u   B3u
    DOCC [     1,    0,    0,    0,    0,    0,    1,    0 ]
    SOCC [     1,    0,    0,    0,    0,    1,    1,    1 ]
    NA   [     2,    0,    0,    0,    0,    1,    2,    1 ]
    NB   [     1,    0,    0,    0,    0,    0,    1,    0 ]

  @DF-UKS Final Energy:   -29.20880486529944

   => Energetics <=

    Nuclear Repulsion Energy =              4.2385716090208696
    One-Electron Energy =                 -46.2526941614251257
    Two-Electron Energy =                  17.3431149097370181
    DFT Exchange-Correlation Energy =      -4.5377972226322019
    Empirical Dispersion Energy =           0.0000000000000000
    VV10 Nonlocal Energy =                  0.0000000000000000
    Total Energy =                        -29.2088048652994416

  UHF NO Occupations:
  HONO-2 :    2B2u 1.0000000
  HONO-1 :    1B1u 1.0000000
  HONO-0 :    2 Ag 1.0000000
  LUNO+0 :    3B2u 0.0000001
  LUNO+1 :    3 Ag 0.0000001
  LUNO+2 :    4 Ag 0.0000000
  LUNO+3 :    2B1u 0.0000000

Computation Completed

Properties will be evaluated at   0.000000,   0.000000,   0.000000 [a0]

Properties computed using the SCF density matrix

 Multipole Moments:

 ------------------------------------------------------------------------------------
     Multipole            Electronic (a.u.)      Nuclear  (a.u.)        Total (a.u.)
 ------------------------------------------------------------------------------------

 L = 1.  Multiply by 2.5417464519 to convert [e a0] to [Debye]
 Dipole X            :          0.0000000            0.0000000            0.0000000
 Dipole Y            :          0.0000000            0.0000000            0.0000000
 Dipole Z            :          0.0000000            0.0000000            0.0000000
 Magnitude           :                                                    0.0000000

 ------------------------------------------------------------------------------------

*** tstop() called on Joses-MacBook-Pro-2.local at Wed Jul 16 18:39:21 2025
Module time:
	user time   =       2.07 seconds =       0.03 minutes
	system time =       2.95 seconds =       0.05 minutes
	total time  =          1 seconds =       0.02 minutes
Total time:
	user time   =      36.42 seconds =       0.61 minutes
	system time =      42.65 seconds =       0.71 minutes
	total time  =          8 seconds =       0.13 minutes

*** tstart() called on Joses-MacBook-Pro-2.local
*** at Wed Jul 16 18:39:21 2025

         ------------------------------------------------------------
                                   SCF GRAD
                          Rob Parrish, Justin Turney,
                       Andy Simmonett, and Alex Sokolov
         ------------------------------------------------------------

  ==> Geometry <==

    Molecular point group: d2h
    Full point group: D_inf_h

    Geometry (in Angstrom), charge = 0, multiplicity = 5:

       Center              X                  Y                   Z               Mass
    ------------   -----------------  -----------------  -----------------  -----------------
         BE          -0.000000000000     0.998784042329     0.000000000000     9.012183065000
         BE           0.000000000000    -0.998784042329     0.000000000000     9.012183065000

  Nuclear repulsion =    4.238571609020870

  ==> Basis Set <==

  Basis Set: CC-PVDZ
    Blend: CC-PVDZ
    Number of shells: 12
    Number of basis functions: 28
    Number of Cartesian functions: 30
    Spherical Harmonics?: true
    Max angular momentum: 2

  ==> DFJKGrad: Density-Fitted SCF Gradients <==

    Gradient:                    1
    J tasked:                  Yes
    K tasked:                  Yes
    wK tasked:                  No
    OpenMP threads:              1
    Integrals threads:           1
    Memory [MiB]:              375
    Schwarz Cutoff:          1E-12
    Fitting Condition:       1E-10

   => Auxiliary Basis Set <=

  Basis Set: (CC-PVDZ AUX)
    Blend: DEF2-UNIVERSAL-JKFIT
    Number of shells: 34
    Number of basis functions: 102
    Number of Cartesian functions: 120
    Spherical Harmonics?: true
    Max angular momentum: 3

  ==> DFT Potential <==

   => LibXC <=

    Version 6.2.2
    S. Lehtola, C. Steigemann, M. J.T. Oliveira, and M. A.L. Marques.,  SoftwareX 7, 1â€“5 (2018) (10.1016/j.softx.2017.11.002)

   => Composite Functional: B3LYP <=

    B3LYP Hyb-GGA Exchange-Correlation Functional

    P. J. Stephens, F. J. Devlin, C. F. Chabalowski, and M. J. Frisch.,  J. Phys. Chem. 98, 11623 (1994) (10.1021/j100096a001)

    Deriv               =              1
    GGA                 =           TRUE
    Meta                =          FALSE

    Exchange Hybrid     =           TRUE
    MP2 Hybrid          =          FALSE

   => Exchange Functionals <=

    0.0800   Slater exchange
    0.7200         Becke 88

   => Exact (HF) Exchange <=

    0.2000               HF

   => Correlation Functionals <=

    0.1900   Vosko, Wilk & Nusair (VWN5_RPA)
    0.8100   Lee, Yang & Parr

   => LibXC Density Thresholds  <==

    XC_HYB_GGA_XC_B3LYP:  1.00E-15

   => Molecular Quadrature <=

    Radial Scheme          =       TREUTLER
    Pruning Scheme         =           NONE
    Nuclear Scheme         =       TREUTLER

    Blocking Scheme        =         OCTREE
    BS radius alpha        =              1
    Pruning alpha          =              1
    Radial Points          =             75
    Spherical Points       =            302
    Total Points           =          42542
    Total Blocks           =            400
    Max Points             =            245
    Max Functions          =             28
    Weights Tolerance      =       1.00E-15

  -Total Gradient:
     Atom            X                  Y                   Z
    ------   -----------------  -----------------  -----------------
       1        0.000000000000    -0.000076770268     0.000000000000
       2       -0.000000000000     0.000076770268     0.000000000000

*** tstop() called on Joses-MacBook-Pro-2.local at Wed Jul 16 18:39:21 2025
Module time:
	user time   =       0.54 seconds =       0.01 minutes
	system time =       1.21 seconds =       0.02 minutes
	total time  =          0 seconds =       0.00 minutes
Total time:
	user time   =      36.97 seconds =       0.62 minutes
	system time =      43.86 seconds =       0.73 minutes
	total time  =          8 seconds =       0.13 minutes

    			-----------------------------------------

    			 OPTKING 3.0: for geometry optimizations

    			     By R.A. King, Bethel University

    			        with contributions from

    			    A.V. Copan, J. Cayton, A. Heide

    			-----------------------------------------

	                            ===> Fragment 1 <==

	 Z (Atomic Numbers)          Masses                          Geom
	       4.000000             9.012183         -0.00000000  1.88742830  0.00000000
	       4.000000             9.012183          0.00000000 -1.88742830  0.00000000

	 - Coordinate -           - BOHR/RAD -       - ANG/DEG -
	 R(1,2)           =         3.774857           1.997568

	        --- Internal Coordinate Step in ANG or DEG, aJ/ANG or AJ/DEG ---
	-------------------------------------------------------------------------------
	           Coordinate      Previous         Force          Change          New
	           ----------      --------        ------          ------        ------
	               R(1,2)       1.99757        0.00063        0.00060       1.99817
	-------------------------------------------------------------------------------

	                                 ==> Convergence Check <==

	Measures of convergence in internal coordinates in au.

	Criteria marked as inactive (o), active & met (*), and active & unmet ( ).

	----------------------------------------------------------------------------------------------
	   Step    Total Energy     Delta E     Max Force     RMS Force      Max Disp      RMS Disp
	----------------------------------------------------------------------------------------------
	  Convergence Criteria     1.00e-06 *    3.00e-04 *             o    1.20e-03 *             o
	----------------------------------------------------------------------------------------------
	    10     -29.20880487   -9.04e-07 *    7.68e-05 *    7.68e-05 o    1.14e-03 *    1.14e-03 o  ~
	----------------------------------------------------------------------------------------------

Next Geometry in Ang
	Fragment 1 (Ang)

	   Be  -0.0000000000   0.9990855290   0.0000000000
	   Be   0.0000000000  -0.9990855290   0.0000000000

    Final optimized geometry and variables:
    Molecular point group: d2h
    Full point group: D_inf_h

    Geometry (in Angstrom), charge = 0, multiplicity = 5:

    BE          -0.000000000000     0.998784042329     0.000000000000
    BE           0.000000000000    -0.998784042329     0.000000000000

    Psi4 stopped on: Wednesday, 16 July 2025 06:39PM
    Psi4 wall time for execution: 0:00:08.45

*** Psi4 exiting successfully. Buy a developer a beer!
