                               Psi4 1.9.1 release

  ==> Input File <==

--------------------------------------------------------------------------
molecule {
0 5
O   0.00000        0.60000        0.00000
Ar   0.00000       -0.60000        0.00000
}

set {
basis              cc-pvdz
reference          uks
maxiter            500
geom_maxiter       500
DAMPING_PERCENTAGE 1
guess              SAP
}

optimize('b3lyp')
--------------------------------------------------------------------------

    Molecular point group: c2v
  Charge       = 0
  Multiplicity = 5
  Basis Set: CC-PVDZ
    Blend: CC-PVDZ
  Basis Set: (CC-PVDZ AUX)
    Blend: CC-PVDZ-JKFIT
  @DF-UKS Final Energy:  -601.32553113507970
    Total Energy =                       -601.3255311350797001
 Dipole X            :          0.0000000            0.0000000            0.0000000
 Dipole Y            :          0.0000000            0.0000000            0.0000000
 Dipole Z            :         -0.8686239            1.2883152            0.4196913
 Magnitude           :                                                    0.4196913
    Molecular point group: c2v
  Basis Set: CC-PVDZ
    Blend: CC-PVDZ
  Basis Set: (CC-PVDZ AUX)
    Blend: CC-PVDZ-JKFIT
  Basis Set: CC-PVDZ
    Blend: CC-PVDZ
  Basis Set: (CC-PVDZ AUX)
    Blend: CC-PVDZ-JKFIT
  @DF-UKS Final Energy:  -601.47893993039429
    Total Energy =                       -601.4789399303944037
  Basis Set: CC-PVDZ
    Blend: CC-PVDZ
  Basis Set: (CC-PVDZ AUX)
    Blend: CC-PVDZ-JKFIT
  Basis Set: CC-PVDZ
    Blend: CC-PVDZ
  @DF-UKS Final Energy:  -601.59566823546049
    Total Energy =                       -601.5956682354603799
  @DF-UKS Final Energy:  -601.67335528601393
    Total Energy =                       -601.6733552860140435
  @DF-UKS Final Energy:  -601.73400225756609
    Total Energy =                       -601.7340022575660896
  @DF-UKS Final Energy:  -601.75723627089565
    Total Energy =                       -601.7572362708956462
  @DF-UKS Final Energy:  -601.76242596743964
    Total Energy =                       -601.7624259674396399
  @DF-UKS Final Energy:  -601.76313621588224
    Total Energy =                       -601.7631362158823549
  @DF-UKS Final Energy:  -601.76317391036775
    Total Energy =                       -601.7631739103678683
  Basis Set: (CC-PVDZ AUX)
    Blend: CC-PVDZ-JKFIT
  Basis Set: CC-PVDZ
    Blend: CC-PVDZ
  Basis Set: (CC-PVDZ AUX)
    Blend: CC-PVDZ-JKFIT
  @DF-UKS Final Energy:  -601.76317613110746
    Total Energy =                       -601.7631761311075707
  Basis Set: CC-PVDZ
    Blend: CC-PVDZ
  Basis Set: (CC-PVDZ AUX)
    Blend: CC-PVDZ-JKFIT
  Charge       = 0
  Multiplicity = 5
  Basis Set: CC-PVDZ
    Blend: CC-PVDZ
  Basis Set: (CC-PVDZ AUX)
    Blend: CC-PVDZ-JKFIT

    Orbital Energies [Eh]
    ---------------------

    Alpha Occupied:

       1A1  -115.064487     2A1   -19.432384     3A1   -11.122340
       4A1    -8.680690     1B1    -8.669540     1B2    -8.668821
       5A1    -1.156060     6A1    -0.990825     7A1    -0.577697
       2B1    -0.571245     2B2    -0.566126     3B2    -0.436076
       3B1    -0.434541     8A1    -0.409237     4B2     0.486826

    Alpha Virtual:

       4B1     0.558941     9A1     0.569831     5B1     0.703835
       5B2     0.704244    10A1     0.705438    11A1     0.732015
       1A2     0.828573    12A1     0.829984    13A1     0.860022
       6B1     0.866318     6B2     0.868811    14A1     1.384727
      15A1     2.331405     2A2     2.331459     7B1     2.351146
       7B2     2.358605    16A1     2.446339

    Beta Occupied:

       1A1  -115.051045     2A1   -19.364694     3A1   -11.109731
       4A1    -8.662384     1B1    -8.660470     1B2    -8.639784
       5A1    -0.984195     6A1    -0.912958     7A1    -0.455570
       2B1    -0.416367     2B2    -0.382239

    Beta Virtual:

       3B1    -0.269330     3B2    -0.269025     8A1    -0.235212
       4B1     0.588517     9A1     0.610610     4B2     0.616308
      10A1     0.770502     5B1     0.775753    11A1     0.781307
       5B2     0.792101     1A2     0.862188    12A1     0.863808
       6B1     0.936262    13A1     0.937554     6B2     0.950019
      14A1     1.468918     7B1     2.490162     7B2     2.492872
       2A2     2.498321    15A1     2.498562    16A1     2.571249

    Final Occupation by Irrep:
             A1    A2    B1    B2
    DOCC [     7,    0,    2,    2 ]
    SOCC [     1,    0,    1,    2 ]
    NA   [     8,    0,    3,    4 ]
    NB   [     7,    0,    2,    2 ]

  @DF-UKS Final Energy:  -601.76317625579372

   => Energetics <=

    Nuclear Repulsion Energy =             35.8109058457037079
    One-Electron Energy =                -901.6468726357277319
    Two-Electron Energy =                 295.7816795298812735
    DFT Exchange-Correlation Energy =     -31.7088889956508702
    Empirical Dispersion Energy =           0.0000000000000000
    VV10 Nonlocal Energy =                  0.0000000000000000
    Total Energy =                       -601.7631762557936099

  UHF NO Occupations:
  HONO-2 :    4 B2 1.0000000
  HONO-1 :    8 A1 1.0000000
  HONO-0 :    3 B1 1.0000000
  LUNO+0 :    9 A1 0.0012690
  LUNO+1 :   10 A1 0.0006489
  LUNO+2 :    4 B1 0.0002660
  LUNO+3 :    5 B2 0.0002520

Computation Completed

Properties will be evaluated at   0.000000,   0.000000,   0.000000 [a0]

Properties computed using the SCF density matrix

 Multipole Moments:

 ------------------------------------------------------------------------------------
     Multipole            Electronic (a.u.)      Nuclear  (a.u.)        Total (a.u.)
 ------------------------------------------------------------------------------------

 L = 1.  Multiply by 2.5417464519 to convert [e a0] to [Debye]
 Dipole X            :          0.0000000            0.0000000            0.0000000
 Dipole Y            :          0.0000000            0.0000000            0.0000000
 Dipole Z            :         -1.2742966            2.2844897            1.0101931
 Magnitude           :                                                    1.0101931

 ------------------------------------------------------------------------------------

*** tstop() called on Joses-MacBook-Pro-2.local at Wed Jul 16 19:24:49 2025
Module time:
	user time   =       3.78 seconds =       0.06 minutes
	system time =       2.83 seconds =       0.05 minutes
	total time  =          1 seconds =       0.02 minutes
Total time:
	user time   =      56.97 seconds =       0.95 minutes
	system time =      63.88 seconds =       1.06 minutes
	total time  =         12 seconds =       0.20 minutes

*** tstart() called on Joses-MacBook-Pro-2.local
*** at Wed Jul 16 19:24:49 2025

         ------------------------------------------------------------
                                   SCF GRAD
                          Rob Parrish, Justin Turney,
                       Andy Simmonett, and Alex Sokolov
         ------------------------------------------------------------

  ==> Geometry <==

    Molecular point group: c2v
    Full point group: C_inf_v

    Geometry (in Angstrom), charge = 0, multiplicity = 5:

       Center              X                  Y                   Z               Mass
    ------------   -----------------  -----------------  -----------------  -----------------
         O            0.000000000000     0.000000000000     1.519647862742    15.994914619570
         AR           0.000000000000     0.000000000000    -0.608237945698    39.962383123700

  Nuclear repulsion =   35.810905845703708

  ==> Basis Set <==

  Basis Set: CC-PVDZ
    Blend: CC-PVDZ
    Number of shells: 14
    Number of basis functions: 32
    Number of Cartesian functions: 34
    Spherical Harmonics?: true
    Max angular momentum: 2

  ==> DFJKGrad: Density-Fitted SCF Gradients <==

    Gradient:                    1
    J tasked:                  Yes
    K tasked:                  Yes
    wK tasked:                  No
    OpenMP threads:              1
    Integrals threads:           1
    Memory [MiB]:              375
    Schwarz Cutoff:          1E-12
    Fitting Condition:       1E-10

   => Auxiliary Basis Set <=

  Basis Set: (CC-PVDZ AUX)
    Blend: CC-PVDZ-JKFIT
    Number of shells: 60
    Number of basis functions: 182
    Number of Cartesian functions: 211
    Spherical Harmonics?: true
    Max angular momentum: 3

  ==> DFT Potential <==

   => LibXC <=

    Version 6.2.2
    S. Lehtola, C. Steigemann, M. J.T. Oliveira, and M. A.L. Marques.,  SoftwareX 7, 1â€“5 (2018) (10.1016/j.softx.2017.11.002)

   => Composite Functional: B3LYP <=

    B3LYP Hyb-GGA Exchange-Correlation Functional

    P. J. Stephens, F. J. Devlin, C. F. Chabalowski, and M. J. Frisch.,  J. Phys. Chem. 98, 11623 (1994) (10.1021/j100096a001)

    Deriv               =              1
    GGA                 =           TRUE
    Meta                =          FALSE

    Exchange Hybrid     =           TRUE
    MP2 Hybrid          =          FALSE

   => Exchange Functionals <=

    0.0800   Slater exchange
    0.7200         Becke 88

   => Exact (HF) Exchange <=

    0.2000               HF

   => Correlation Functionals <=

    0.1900   Vosko, Wilk & Nusair (VWN5_RPA)
    0.8100   Lee, Yang & Parr

   => LibXC Density Thresholds  <==

    XC_HYB_GGA_XC_B3LYP:  1.00E-15

   => Molecular Quadrature <=

    Radial Scheme          =       TREUTLER
    Pruning Scheme         =           NONE
    Nuclear Scheme         =       TREUTLER

    Blocking Scheme        =         OCTREE
    BS radius alpha        =              1
    Pruning alpha          =              1
    Radial Points          =             75
    Spherical Points       =            302
    Total Points           =          41095
    Total Blocks           =            365
    Max Points             =            256
    Max Functions          =             32
    Weights Tolerance      =       1.00E-15

  -Total Gradient:
     Atom            X                  Y                   Z
    ------   -----------------  -----------------  -----------------
       1        0.000000000000    -0.000000000000    -0.000047729541
       2        0.000000000000     0.000000000000     0.000035230911

*** tstop() called on Joses-MacBook-Pro-2.local at Wed Jul 16 19:24:49 2025
Module time:
	user time   =       0.94 seconds =       0.02 minutes
	system time =       1.78 seconds =       0.03 minutes
	total time  =          0 seconds =       0.00 minutes
Total time:
	user time   =      57.91 seconds =       0.97 minutes
	system time =      65.66 seconds =       1.09 minutes
	total time  =         12 seconds =       0.20 minutes

    			-----------------------------------------

    			 OPTKING 3.0: for geometry optimizations

    			     By R.A. King, Bethel University

    			        with contributions from

    			    A.V. Copan, J. Cayton, A. Heide

    			-----------------------------------------

	                            ===> Fragment 1 <==

	 Z (Atomic Numbers)          Masses                          Geom
	       8.000000            15.994915          0.00000000  0.00000000  2.87171827
	      18.000000            39.962383          0.00000000  0.00000000 -1.14940314

	 - Coordinate -           - BOHR/RAD -       - ANG/DEG -
	 R(1,2)           =         4.021121           2.127886

	        --- Internal Coordinate Step in ANG or DEG, aJ/ANG or AJ/DEG ---
	-------------------------------------------------------------------------------
	           Coordinate      Previous         Force          Change          New
	           ----------      --------        ------          ------        ------
	               R(1,2)       2.12789        0.00034        0.00020       2.12808
	-------------------------------------------------------------------------------

	                                 ==> Convergence Check <==

	Measures of convergence in internal coordinates in au.

	Criteria marked as inactive (o), active & met (*), and active & unmet ( ).

	----------------------------------------------------------------------------------------------
	   Step    Total Energy     Delta E     Max Force     RMS Force      Max Disp      RMS Disp
	----------------------------------------------------------------------------------------------
	  Convergence Criteria     1.00e-06 *    3.00e-04 *             o    1.20e-03 *             o
	----------------------------------------------------------------------------------------------
	    11    -601.76317626   -1.25e-07 *    4.15e-05 *    4.15e-05 o    3.71e-04 *    3.71e-04 o  ~
	----------------------------------------------------------------------------------------------

Next Geometry in Ang
	Fragment 1 (Ang)

	    O   0.0000000000   0.0000000000   1.5197459682
	   Ar   0.0000000000   0.0000000000  -0.6083360511

    Final optimized geometry and variables:
    Molecular point group: c2v
    Full point group: C_inf_v

    Geometry (in Angstrom), charge = 0, multiplicity = 5:

    O            0.000000000000     0.000000000000     1.519647862742
    AR           0.000000000000     0.000000000000    -0.608237945698

    Psi4 stopped on: Wednesday, 16 July 2025 07:24PM
    Psi4 wall time for execution: 0:00:12.36

*** Psi4 exiting successfully. Buy a developer a beer!
