                               Psi4 1.9.1 release

  ==> Input File <==

--------------------------------------------------------------------------
molecule {
0 5
Be   0.00000        0.60000        0.00000
S   0.00000       -0.60000        0.00000
}

set {
basis              cc-pvdz
reference          uks
maxiter            500
geom_maxiter       500
DAMPING_PERCENTAGE 1
guess              SAP
}

optimize('b3lyp')
--------------------------------------------------------------------------

    Molecular point group: c2v
  Charge       = 0
  Multiplicity = 5
  Basis Set: CC-PVDZ
    Blend: CC-PVDZ
  Basis Set: (CC-PVDZ AUX)
    Blend: CC-PVDZ-JKFIT + DEF2-UNIVERSAL-JKFIT
  @DF-UKS Final Energy:  -412.11014928946150
    Total Energy =                       -412.1101492894615035
 Dipole X            :          0.0000000            0.0000000            0.0000000
 Dipole Y            :          0.0000000            0.0000000            0.0000000
 Dipole Z            :         -0.9960164           -0.9022516           -1.8982680
 Magnitude           :                                                    1.8982680
    Molecular point group: c2v
  Basis Set: CC-PVDZ
    Blend: CC-PVDZ
  Basis Set: (CC-PVDZ AUX)
    Blend: CC-PVDZ-JKFIT + DEF2-UNIVERSAL-JKFIT
  Basis Set: CC-PVDZ
    Blend: CC-PVDZ
  Basis Set: (CC-PVDZ AUX)
    Blend: CC-PVDZ-JKFIT + DEF2-UNIVERSAL-JKFIT
  @DF-UKS Final Energy:  -412.33897849452336
    Total Energy =                       -412.3389784945233600
  Basis Set: CC-PVDZ
    Blend: CC-PVDZ
  Basis Set: (CC-PVDZ AUX)
    Blend: CC-PVDZ-JKFIT + DEF2-UNIVERSAL-JKFIT
  Basis Set: CC-PVDZ
    Blend: CC-PVDZ
  @DF-UKS Final Energy:  -412.49279328877662
    Total Energy =                       -412.4927932887766246
  @DF-UKS Final Energy:  -412.58107163076198
    Total Energy =                       -412.5810716307619259
  @DF-UKS Final Energy:  -412.62788624963821
    Total Energy =                       -412.6278862496381521
  @DF-UKS Final Energy:  -412.65506278585508
    Total Energy =                       -412.6550627858550797
  @DF-UKS Final Energy:  -412.67209355625107
    Total Energy =                       -412.6720935562510135
  @DF-UKS Final Energy:  -412.68387751660538
    Total Energy =                       -412.6838775166053210
  @DF-UKS Final Energy:  -412.69226290373837
    Total Energy =                       -412.6922629037383672
  @DF-UKS Final Energy:  -412.69267650524677
    Total Energy =                       -412.6926765052467658
  @DF-UKS Final Energy:  -412.69849059295996
    Total Energy =                       -412.6984905929599563
  @DF-UKS Final Energy:  -412.69862939688181
    Total Energy =                       -412.6986293968818700
  @DF-UKS Final Energy:  -412.70161024378234
    Total Energy =                       -412.7016102437823406
  @DF-UKS Final Energy:  -412.70165383102443
    Total Energy =                       -412.7016538310244300
  @DF-UKS Final Energy:  -412.70315729639697
    Total Energy =                       -412.7031572963969666
  @DF-UKS Final Energy:  -412.70317067979119
    Total Energy =                       -412.7031706797911852
  @DF-UKS Final Energy:  -412.70395300179786
    Total Energy =                       -412.7039530017978564
  @DF-UKS Final Energy:  -412.70395713571031
    Total Energy =                       -412.7039571357103114
  @DF-UKS Final Energy:  -412.70396123456015
    Total Energy =                       -412.7039612345601540
  @DF-UKS Final Energy:  -412.70396529872994
    Total Energy =                       -412.7039652987299405
  @DF-UKS Final Energy:  -412.70437816136882
    Total Energy =                       -412.7043781613688225
  @DF-UKS Final Energy:  -412.70437946313524
    Total Energy =                       -412.7043794631352966
  @DF-UKS Final Energy:  -412.70438075929343
    Total Energy =                       -412.7043807592934286
  @DF-UKS Final Energy:  -412.70438204928735
    Total Energy =                       -412.7043820492872896
  @DF-UKS Final Energy:  -412.70438333316986
    Total Energy =                       -412.7043833331698579
  @DF-UKS Final Energy:  -412.70438461097552
    Total Energy =                       -412.7043846109755236
  @DF-UKS Final Energy:  -412.70438588276147
    Total Energy =                       -412.7043858827614713
  Basis Set: (CC-PVDZ AUX)
    Blend: CC-PVDZ-JKFIT + DEF2-UNIVERSAL-JKFIT
  Basis Set: CC-PVDZ
    Blend: CC-PVDZ
  Basis Set: (CC-PVDZ AUX)
    Blend: CC-PVDZ-JKFIT + DEF2-UNIVERSAL-JKFIT
  @DF-UKS Final Energy:  -412.70461440693072
    Total Energy =                       -412.7046144069307729
  Basis Set: CC-PVDZ
    Blend: CC-PVDZ
  Basis Set: (CC-PVDZ AUX)
    Blend: CC-PVDZ-JKFIT + DEF2-UNIVERSAL-JKFIT
  Charge       = 0
  Multiplicity = 5
  Basis Set: CC-PVDZ
    Blend: CC-PVDZ
  Basis Set: (CC-PVDZ AUX)
    Blend: CC-PVDZ-JKFIT + DEF2-UNIVERSAL-JKFIT

    Orbital Energies [Eh]
    ---------------------

    Alpha Occupied:

       1A1   -88.934029     2A1    -7.992318     3A1    -5.961574
       1B1    -5.961546     1B2    -5.941746     4A1    -4.116156
       5A1    -0.723579     6A1    -0.333045     2B1    -0.332294
       2B2    -0.283547     7A1    -0.269898     3B2    -0.139164

    Alpha Virtual:

       3B1    -0.067155     8A1    -0.066870     4B2     0.165187
       9A1     0.175325    10A1     0.183122     4B1     0.184121
      11A1     0.438863     5B2     0.440356     1A2     0.440951
      12A1     0.447446     5B1     0.450549    13A1     0.452976
       6B1     0.461152     6B2     0.484320    14A1     0.504734
       7B1     0.518780    15A1     0.527736     2A2     0.557500
       7B2     0.557526    16A1     0.573236

    Beta Occupied:

       1A1   -88.923244     2A1    -7.981310     3A1    -5.940244
       1B1    -5.940171     1B2    -5.935230     4A1    -4.097552
       5A1    -0.630773     2B2    -0.256760

    Beta Virtual:

       6A1    -0.177130     2B1    -0.174856     7A1    -0.117661
       8A1    -0.003071     3B1    -0.003020     3B2     0.021909
       9A1     0.207525     4B1     0.212264    10A1     0.226060
       4B2     0.236059    11A1     0.484933     5B2     0.496492
       5B1     0.501813    12A1     0.509784     6B1     0.528321
      13A1     0.548806     1A2     0.553542     6B2     0.555450
      14A1     0.572371     7B2     0.614620     2A2     0.614731
      15A1     0.618664     7B1     0.626610    16A1     0.630266

    Final Occupation by Irrep:
             A1    A2    B1    B2
    DOCC [     5,    0,    1,    2 ]
    SOCC [     2,    0,    1,    1 ]
    NA   [     7,    0,    2,    3 ]
    NB   [     5,    0,    1,    2 ]

  @DF-UKS Final Energy:  -412.70461483399140

   => Energetics <=

    Nuclear Repulsion Energy =              7.2425207841131032
    One-Electron Energy =                -582.8833106565160733
    Two-Electron Energy =                 185.8366761477040825
    DFT Exchange-Correlation Energy =     -22.9005011092925557
    Empirical Dispersion Energy =           0.0000000000000000
    VV10 Nonlocal Energy =                  0.0000000000000000
    Total Energy =                       -412.7046148339913998

  UHF NO Occupations:
  HONO-2 :    3 B2 1.0000000
  HONO-1 :    6 A1 1.0000000
  HONO-0 :    7 A1 1.0000000
  LUNO+0 :    8 A1 0.0010166
  LUNO+1 :    4 B2 0.0001015
  LUNO+2 :    9 A1 0.0000007
  LUNO+3 :   10 A1 0.0000000

Computation Completed

Properties will be evaluated at   0.000000,   0.000000,   0.000000 [a0]

Properties computed using the SCF density matrix

 Multipole Moments:

 ------------------------------------------------------------------------------------
     Multipole            Electronic (a.u.)      Nuclear  (a.u.)        Total (a.u.)
 ------------------------------------------------------------------------------------

 L = 1.  Multiply by 2.5417464519 to convert [e a0] to [Debye]
 Dipole X            :          0.0000000            0.0000000            0.0000000
 Dipole Y            :          0.0000000            0.0000000            0.0000000
 Dipole Z            :          3.4942468           -3.5159103           -0.0216635
 Magnitude           :                                                    0.0216635

 ------------------------------------------------------------------------------------

*** tstop() called on Joses-MacBook-Pro-2.local at Wed Jul 16 18:46:42 2025
Module time:
	user time   =       2.32 seconds =       0.04 minutes
	system time =       2.39 seconds =       0.04 minutes
	total time  =          1 seconds =       0.02 minutes
Total time:
	user time   =     119.01 seconds =       1.98 minutes
	system time =     137.15 seconds =       2.29 minutes
	total time  =         25 seconds =       0.42 minutes

*** tstart() called on Joses-MacBook-Pro-2.local
*** at Wed Jul 16 18:46:42 2025

         ------------------------------------------------------------
                                   SCF GRAD
                          Rob Parrish, Justin Turney,
                       Andy Simmonett, and Alex Sokolov
         ------------------------------------------------------------

  ==> Geometry <==

    Molecular point group: c2v
    Full point group: C_inf_v

    Geometry (in Angstrom), charge = 0, multiplicity = 5:

       Center              X                  Y                   Z               Mass
    ------------   -----------------  -----------------  -----------------  -----------------
         BE           0.000000000000     0.000000000000     3.647918195432     9.012183065000
         S            0.000000000000     0.000000000000    -1.028263274032    31.972071174400

  Nuclear repulsion =    7.242520784113103

  ==> Basis Set <==

  Basis Set: CC-PVDZ
    Blend: CC-PVDZ
    Number of shells: 14
    Number of basis functions: 32
    Number of Cartesian functions: 34
    Spherical Harmonics?: true
    Max angular momentum: 2

  ==> DFJKGrad: Density-Fitted SCF Gradients <==

    Gradient:                    1
    J tasked:                  Yes
    K tasked:                  Yes
    wK tasked:                  No
    OpenMP threads:              1
    Integrals threads:           1
    Memory [MiB]:              375
    Schwarz Cutoff:          1E-12
    Fitting Condition:       1E-10

   => Auxiliary Basis Set <=

  Basis Set: (CC-PVDZ AUX)
    Blend: CC-PVDZ-JKFIT + DEF2-UNIVERSAL-JKFIT
    Number of shells: 53
    Number of basis functions: 163
    Number of Cartesian functions: 190
    Spherical Harmonics?: true
    Max angular momentum: 3

  ==> DFT Potential <==

   => LibXC <=

    Version 6.2.2
    S. Lehtola, C. Steigemann, M. J.T. Oliveira, and M. A.L. Marques.,  SoftwareX 7, 1â€“5 (2018) (10.1016/j.softx.2017.11.002)

   => Composite Functional: B3LYP <=

    B3LYP Hyb-GGA Exchange-Correlation Functional

    P. J. Stephens, F. J. Devlin, C. F. Chabalowski, and M. J. Frisch.,  J. Phys. Chem. 98, 11623 (1994) (10.1021/j100096a001)

    Deriv               =              1
    GGA                 =           TRUE
    Meta                =          FALSE

    Exchange Hybrid     =           TRUE
    MP2 Hybrid          =          FALSE

   => Exchange Functionals <=

    0.0800   Slater exchange
    0.7200         Becke 88

   => Exact (HF) Exchange <=

    0.2000               HF

   => Correlation Functionals <=

    0.1900   Vosko, Wilk & Nusair (VWN5_RPA)
    0.8100   Lee, Yang & Parr

   => LibXC Density Thresholds  <==

    XC_HYB_GGA_XC_B3LYP:  1.00E-15

   => Molecular Quadrature <=

    Radial Scheme          =       TREUTLER
    Pruning Scheme         =           NONE
    Nuclear Scheme         =       TREUTLER

    Blocking Scheme        =         OCTREE
    BS radius alpha        =              1
    Pruning alpha          =              1
    Radial Points          =             75
    Spherical Points       =            302
    Total Points           =          42926
    Total Blocks           =            449
    Max Points             =            253
    Max Functions          =             32
    Weights Tolerance      =       1.00E-15

  -Total Gradient:
     Atom            X                  Y                   Z
    ------   -----------------  -----------------  -----------------
       1        0.000000000000     0.000000000000    -0.000274216220
       2        0.000000000000    -0.000000000000     0.000276578043

*** tstop() called on Joses-MacBook-Pro-2.local at Wed Jul 16 18:46:42 2025
Module time:
	user time   =       0.75 seconds =       0.01 minutes
	system time =       1.56 seconds =       0.03 minutes
	total time  =          0 seconds =       0.00 minutes
Total time:
	user time   =     119.76 seconds =       2.00 minutes
	system time =     138.71 seconds =       2.31 minutes
	total time  =         25 seconds =       0.42 minutes

    			-----------------------------------------

    			 OPTKING 3.0: for geometry optimizations

    			     By R.A. King, Bethel University

    			        with contributions from

    			    A.V. Copan, J. Cayton, A. Heide

    			-----------------------------------------

	                            ===> Fragment 1 <==

	 Z (Atomic Numbers)          Masses                          Geom
	       4.000000             9.012183          0.00000000  0.00000000  6.89356632
	      16.000000            31.972071          0.00000000  0.00000000 -1.94313597

	 - Coordinate -           - BOHR/RAD -       - ANG/DEG -
	 R(1,2)           =         8.836702           4.676181

	        --- Internal Coordinate Step in ANG or DEG, aJ/ANG or AJ/DEG ---
	-------------------------------------------------------------------------------
	           Coordinate      Previous         Force          Change          New
	           ----------      --------        ------          ------        ------
	               R(1,2)       4.67618        0.00227        0.00084       4.67702
	-------------------------------------------------------------------------------

	                                 ==> Convergence Check <==

	Measures of convergence in internal coordinates in au.

	Criteria marked as inactive (o), active & met (*), and active & unmet ( ).

	----------------------------------------------------------------------------------------------
	   Step    Total Energy     Delta E     Max Force     RMS Force      Max Disp      RMS Disp
	----------------------------------------------------------------------------------------------
	  Convergence Criteria     1.00e-06 *    3.00e-04 *             o    1.20e-03 *             o
	----------------------------------------------------------------------------------------------
	    29    -412.70461483   -4.27e-07 *    2.75e-04 *    2.75e-04 o    1.58e-03      1.58e-03 o  ~
	----------------------------------------------------------------------------------------------

Next Geometry in Ang
	Fragment 1 (Ang)

	   Be   0.0000000000   0.0000000000   3.6483374193
	    S   0.0000000000   0.0000000000  -1.0286824979

    Final optimized geometry and variables:
    Molecular point group: c2v
    Full point group: C_inf_v

    Geometry (in Angstrom), charge = 0, multiplicity = 5:

    BE           0.000000000000     0.000000000000     3.647918195432
    S            0.000000000000     0.000000000000    -1.028263274032

    Psi4 stopped on: Wednesday, 16 July 2025 06:46PM
    Psi4 wall time for execution: 0:00:25.43

*** Psi4 exiting successfully. Buy a developer a beer!
