                               Psi4 1.9.1 release

  ==> Input File <==

--------------------------------------------------------------------------
molecule {
0 5
F   0.00000        0.60000        0.00000
F   0.00000       -0.60000        0.00000
}

set {
basis              cc-pvdz
reference          uks
maxiter            500
geom_maxiter       500
DAMPING_PERCENTAGE 1
guess              SAP
}

optimize('b3lyp')
--------------------------------------------------------------------------

    Molecular point group: d2h
  Charge       = 0
  Multiplicity = 5
  Basis Set: CC-PVDZ
    Blend: CC-PVDZ
  Basis Set: (CC-PVDZ AUX)
    Blend: CC-PVDZ-JKFIT
  @DF-UKS Final Energy:  -197.99456260401934
    Total Energy =                       -197.9945626040193360
 Dipole X            :          0.0000000            0.0000000            0.0000000
 Dipole Y            :          0.0000000            0.0000000            0.0000000
 Dipole Z            :          0.0000000            0.0000000            0.0000000
 Magnitude           :                                                    0.0000000
    Molecular point group: d2h
  Basis Set: CC-PVDZ
    Blend: CC-PVDZ
  Basis Set: (CC-PVDZ AUX)
    Blend: CC-PVDZ-JKFIT
  Basis Set: CC-PVDZ
    Blend: CC-PVDZ
  Basis Set: (CC-PVDZ AUX)
    Blend: CC-PVDZ-JKFIT
  @DF-UKS Final Energy:  -198.17967636665881
    Total Energy =                       -198.1796763666588106
  Basis Set: CC-PVDZ
    Blend: CC-PVDZ
  Basis Set: (CC-PVDZ AUX)
    Blend: CC-PVDZ-JKFIT
  Basis Set: CC-PVDZ
    Blend: CC-PVDZ
  @DF-UKS Final Energy:  -198.19367013865687
    Total Energy =                       -198.1936701386568700
  @DF-UKS Final Energy:  -198.19986796878410
    Total Energy =                       -198.1998679687841047
  @DF-UKS Final Energy:  -198.20037605799607
    Total Energy =                       -198.2003760579960669
  @DF-UKS Final Energy:  -198.20042132072265
    Total Energy =                       -198.2004213207226826
  Basis Set: (CC-PVDZ AUX)
    Blend: CC-PVDZ-JKFIT
  Basis Set: CC-PVDZ
    Blend: CC-PVDZ
  Basis Set: (CC-PVDZ AUX)
    Blend: CC-PVDZ-JKFIT
  @DF-UKS Final Energy:  -198.20042549568234
    Total Energy =                       -198.2004254956823672
  Basis Set: CC-PVDZ
    Blend: CC-PVDZ
  Basis Set: (CC-PVDZ AUX)
    Blend: CC-PVDZ-JKFIT
  Charge       = 0
  Multiplicity = 5
  Basis Set: CC-PVDZ
    Blend: CC-PVDZ
  Basis Set: (CC-PVDZ AUX)
    Blend: CC-PVDZ-JKFIT

    Orbital Energies [Eh]
    ---------------------

    Alpha Occupied:

       1B2u  -24.854749     1Ag   -24.854709     2Ag    -1.367456
       2B2u   -1.260736     3Ag    -0.664842     1B1u   -0.612372
       1B3u   -0.605048     1B3g   -0.552419     1B1g   -0.543829
       3B2u   -0.449836     2B1u    0.834903

    Alpha Virtual:

       2B3u    0.929183     4B2u    1.034652     2B3g    1.095808
       2B1g    1.128014     4Ag     1.161498     5Ag     1.280242
       5B2u    1.870475     6Ag     3.222553     3B3u    3.336733
       3B1u    3.348289     1B2g    3.391054     7Ag     3.391746
       1Au     3.400172     6B2u    3.400557     3B1g    3.460032
       3B3g    3.471228     7B2u    3.931156

    Beta Occupied:

       1Ag   -24.786562     1B2u  -24.786518     2Ag    -1.222147
       2B2u   -1.101142     3Ag    -0.514201     1B3u   -0.448116
       1B1u   -0.419223

    Beta Virtual:

       1B1g   -0.314337     1B3g   -0.284854     3B2u   -0.199700
       2B3u    1.016002     2B1u    1.044439     4B2u    1.114330
       2B1g    1.210839     2B3g    1.237692     4Ag     1.254941
       5Ag     1.382963     5B2u    1.966271     6Ag     3.329917
       3B3u    3.444519     3B1u    3.464129     1B2g    3.509640
       7Ag     3.510441     6B2u    3.520646     1Au     3.520741
       3B1g    3.570782     3B3g    3.590867     7B2u    4.042825

    Final Occupation by Irrep:
             Ag   B1g   B2g   B3g    Au   B1u   B2u   B3u
    DOCC [     3,    0,    0,    0,    0,    1,    2,    1 ]
    SOCC [     0,    1,    0,    1,    0,    1,    1,    0 ]
    NA   [     3,    1,    0,    1,    0,    2,    3,    1 ]
    NB   [     3,    0,    0,    0,    0,    1,    2,    1 ]

  @DF-UKS Final Energy:  -198.20042589426936

   => Energetics <=

    Nuclear Repulsion Energy =             26.2248871934743910
    One-Electron Energy =                -328.6421100181588599
    Two-Electron Energy =                 120.9499608769959167
    DFT Exchange-Correlation Energy =     -16.7331639465808273
    Empirical Dispersion Energy =           0.0000000000000000
    VV10 Nonlocal Energy =                  0.0000000000000000
    Total Energy =                       -198.2004258942693582

  UHF NO Occupations:
  HONO-2 :    1B3g 1.0000000
  HONO-1 :    2B1u 1.0000000
  HONO-0 :    1B1g 1.0000000
  LUNO+0 :    2B3u 0.0016341
  LUNO+1 :    4 Ag 0.0012759
  LUNO+2 :    5 Ag 0.0003023
  LUNO+3 :    4B2u 0.0002102

Computation Completed

Properties will be evaluated at   0.000000,   0.000000,   0.000000 [a0]

Properties computed using the SCF density matrix

 Multipole Moments:

 ------------------------------------------------------------------------------------
     Multipole            Electronic (a.u.)      Nuclear  (a.u.)        Total (a.u.)
 ------------------------------------------------------------------------------------

 L = 1.  Multiply by 2.5417464519 to convert [e a0] to [Debye]
 Dipole X            :          0.0000000            0.0000000            0.0000000
 Dipole Y            :          0.0000000            0.0000000            0.0000000
 Dipole Z            :          0.0000000            0.0000000            0.0000000
 Magnitude           :                                                    0.0000000

 ------------------------------------------------------------------------------------

*** tstop() called on Joses-MacBook-Pro-2.local at Wed Jul 16 19:25:12 2025
Module time:
	user time   =       3.19 seconds =       0.05 minutes
	system time =       2.56 seconds =       0.04 minutes
	total time  =          1 seconds =       0.02 minutes
Total time:
	user time   =      30.68 seconds =       0.51 minutes
	system time =      31.04 seconds =       0.52 minutes
	total time  =          6 seconds =       0.10 minutes

*** tstart() called on Joses-MacBook-Pro-2.local
*** at Wed Jul 16 19:25:12 2025

         ------------------------------------------------------------
                                   SCF GRAD
                          Rob Parrish, Justin Turney,
                       Andy Simmonett, and Alex Sokolov
         ------------------------------------------------------------

  ==> Geometry <==

    Molecular point group: d2h
    Full point group: D_inf_h

    Geometry (in Angstrom), charge = 0, multiplicity = 5:

       Center              X                  Y                   Z               Mass
    ------------   -----------------  -----------------  -----------------  -----------------
         F           -0.000000000000     0.817226662369     0.000000000000    18.998403162730
         F            0.000000000000    -0.817226662369     0.000000000000    18.998403162730

  Nuclear repulsion =   26.224887193474391

  ==> Basis Set <==

  Basis Set: CC-PVDZ
    Blend: CC-PVDZ
    Number of shells: 12
    Number of basis functions: 28
    Number of Cartesian functions: 30
    Spherical Harmonics?: true
    Max angular momentum: 2

  ==> DFJKGrad: Density-Fitted SCF Gradients <==

    Gradient:                    1
    J tasked:                  Yes
    K tasked:                  Yes
    wK tasked:                  No
    OpenMP threads:              1
    Integrals threads:           1
    Memory [MiB]:              375
    Schwarz Cutoff:          1E-12
    Fitting Condition:       1E-10

   => Auxiliary Basis Set <=

  Basis Set: (CC-PVDZ AUX)
    Blend: CC-PVDZ-JKFIT
    Number of shells: 48
    Number of basis functions: 140
    Number of Cartesian functions: 162
    Spherical Harmonics?: true
    Max angular momentum: 3

  ==> DFT Potential <==

   => LibXC <=

    Version 6.2.2
    S. Lehtola, C. Steigemann, M. J.T. Oliveira, and M. A.L. Marques.,  SoftwareX 7, 1â€“5 (2018) (10.1016/j.softx.2017.11.002)

   => Composite Functional: B3LYP <=

    B3LYP Hyb-GGA Exchange-Correlation Functional

    P. J. Stephens, F. J. Devlin, C. F. Chabalowski, and M. J. Frisch.,  J. Phys. Chem. 98, 11623 (1994) (10.1021/j100096a001)

    Deriv               =              1
    GGA                 =           TRUE
    Meta                =          FALSE

    Exchange Hybrid     =           TRUE
    MP2 Hybrid          =          FALSE

   => Exchange Functionals <=

    0.0800   Slater exchange
    0.7200         Becke 88

   => Exact (HF) Exchange <=

    0.2000               HF

   => Correlation Functionals <=

    0.1900   Vosko, Wilk & Nusair (VWN5_RPA)
    0.8100   Lee, Yang & Parr

   => LibXC Density Thresholds  <==

    XC_HYB_GGA_XC_B3LYP:  1.00E-15

   => Molecular Quadrature <=

    Radial Scheme          =       TREUTLER
    Pruning Scheme         =           NONE
    Nuclear Scheme         =       TREUTLER

    Blocking Scheme        =         OCTREE
    BS radius alpha        =              1
    Pruning alpha          =              1
    Radial Points          =             75
    Spherical Points       =            302
    Total Points           =          42068
    Total Blocks           =            382
    Max Points             =            256
    Max Functions          =             28
    Weights Tolerance      =       1.00E-15

  -Total Gradient:
     Atom            X                  Y                   Z
    ------   -----------------  -----------------  -----------------
       1        0.000000000000    -0.000103579577     0.000000000000
       2       -0.000000000000     0.000103579577     0.000000000000

*** tstop() called on Joses-MacBook-Pro-2.local at Wed Jul 16 19:25:12 2025
Module time:
	user time   =       0.56 seconds =       0.01 minutes
	system time =       1.00 seconds =       0.02 minutes
	total time  =          0 seconds =       0.00 minutes
Total time:
	user time   =      31.24 seconds =       0.52 minutes
	system time =      32.05 seconds =       0.53 minutes
	total time  =          6 seconds =       0.10 minutes

    			-----------------------------------------

    			 OPTKING 3.0: for geometry optimizations

    			     By R.A. King, Bethel University

    			        with contributions from

    			    A.V. Copan, J. Cayton, A. Heide

    			-----------------------------------------

	                            ===> Fragment 1 <==

	 Z (Atomic Numbers)          Masses                          Geom
	       9.000000            18.998403         -0.00000000  1.54433457  0.00000000
	       9.000000            18.998403          0.00000000 -1.54433457  0.00000000

	 - Coordinate -           - BOHR/RAD -       - ANG/DEG -
	 R(1,2)           =         3.088669           1.634453

	        --- Internal Coordinate Step in ANG or DEG, aJ/ANG or AJ/DEG ---
	-------------------------------------------------------------------------------
	           Coordinate      Previous         Force          Change          New
	           ----------      --------        ------          ------        ------
	               R(1,2)       1.63445        0.00085        0.00017       1.63462
	-------------------------------------------------------------------------------

	                                 ==> Convergence Check <==

	Measures of convergence in internal coordinates in au.

	Criteria marked as inactive (o), active & met (*), and active & unmet ( ).

	----------------------------------------------------------------------------------------------
	   Step    Total Energy     Delta E     Max Force     RMS Force      Max Disp      RMS Disp
	----------------------------------------------------------------------------------------------
	  Convergence Criteria     1.00e-06 *    3.00e-04 *             o    1.20e-03 *             o
	----------------------------------------------------------------------------------------------
	     8    -198.20042589   -3.99e-07 *    1.04e-04 *    1.04e-04 o    3.13e-04 *    3.13e-04 o  ~
	----------------------------------------------------------------------------------------------

Next Geometry in Ang
	Fragment 1 (Ang)

	    F  -0.0000000000   0.8173095911   0.0000000000
	    F   0.0000000000  -0.8173095911   0.0000000000

    Final optimized geometry and variables:
    Molecular point group: d2h
    Full point group: D_inf_h

    Geometry (in Angstrom), charge = 0, multiplicity = 5:

    F           -0.000000000000     0.817226662369     0.000000000000
    F            0.000000000000    -0.817226662369     0.000000000000

    Psi4 stopped on: Wednesday, 16 July 2025 07:25PM
    Psi4 wall time for execution: 0:00:06.75

*** Psi4 exiting successfully. Buy a developer a beer!
