                               Psi4 1.9.1 release

  ==> Input File <==

--------------------------------------------------------------------------
molecule {
0 5
Mg   0.00000        0.60000        0.00000
Ar   0.00000       -0.60000        0.00000
}

set {
basis              cc-pvdz
reference          uks
maxiter            500
geom_maxiter       500
DAMPING_PERCENTAGE 1
guess              SAP
}

optimize('b3lyp')
--------------------------------------------------------------------------

    Molecular point group: c2v
  Charge       = 0
  Multiplicity = 5
  Basis Set: CC-PVDZ
    Blend: CC-PVDZ
  Basis Set: (CC-PVDZ AUX)
    Blend: CC-PVDZ-JKFIT + DEF2-UNIVERSAL-JKFIT
  @DF-UKS Final Energy:  -725.78911072968322
    Total Energy =                       -725.7891107296832161
 Dipole X            :          0.0000000            0.0000000            0.0000000
 Dipole Y            :          0.0000000            0.0000000            0.0000000
 Dipole Z            :         -4.4324525            1.6956924           -2.7367601
 Magnitude           :                                                    2.7367601
    Molecular point group: c2v
  Basis Set: CC-PVDZ
    Blend: CC-PVDZ
  Basis Set: (CC-PVDZ AUX)
    Blend: CC-PVDZ-JKFIT + DEF2-UNIVERSAL-JKFIT
  Basis Set: CC-PVDZ
    Blend: CC-PVDZ
  Basis Set: (CC-PVDZ AUX)
    Blend: CC-PVDZ-JKFIT + DEF2-UNIVERSAL-JKFIT
  @DF-UKS Final Energy:  -725.81375261174401
    Total Energy =                       -725.8137526117441212
  Basis Set: CC-PVDZ
    Blend: CC-PVDZ
  Basis Set: (CC-PVDZ AUX)
    Blend: CC-PVDZ-JKFIT + DEF2-UNIVERSAL-JKFIT
  Basis Set: CC-PVDZ
    Blend: CC-PVDZ
  @DF-UKS Final Energy:  -725.86057851722092
    Total Energy =                       -725.8605785172209153
  @DF-UKS Final Energy:  -726.02303217024348
    Total Energy =                       -726.0230321702434821
  @DF-UKS Final Energy:  -726.54074733653101
    Total Energy =                       -726.5407473365310125
  @DF-UKS Final Energy:  -726.73363743077846
    Total Energy =                       -726.7336374307784581
  @DF-UKS Final Energy:  -726.86292579287283
    Total Energy =                       -726.8629257928727156
  @DF-UKS Final Energy:  -726.95148740438947
    Total Energy =                       -726.9514874043894679
  @DF-UKS Final Energy:  -727.00808280376418
    Total Energy =                       -727.0080828037641822
  @DF-UKS Final Energy:  -727.04407967041755
    Total Energy =                       -727.0440796704175455
  @DF-UKS Final Energy:  -727.06412612165946
    Total Energy =                       -727.0641261216594557
  @DF-UKS Final Energy:  -727.07308629560725
    Total Energy =                       -727.0730862956072542
  @DF-UKS Final Energy:  -727.07609592024914
    Total Energy =                       -727.0760959202492586
  @DF-UKS Final Energy:  -727.07673673676084
    Total Energy =                       -727.0767367367608358
  @DF-UKS Final Energy:  -727.07679620086981
    Total Energy =                       -727.0767962008698078
  Basis Set: (CC-PVDZ AUX)
    Blend: CC-PVDZ-JKFIT + DEF2-UNIVERSAL-JKFIT
  Basis Set: CC-PVDZ
    Blend: CC-PVDZ
  Basis Set: (CC-PVDZ AUX)
    Blend: CC-PVDZ-JKFIT + DEF2-UNIVERSAL-JKFIT
  @DF-UKS Final Energy:  -727.07679735789657
    Total Energy =                       -727.0767973578966803
  Basis Set: CC-PVDZ
    Blend: CC-PVDZ
  Basis Set: (CC-PVDZ AUX)
    Blend: CC-PVDZ-JKFIT + DEF2-UNIVERSAL-JKFIT
  Charge       = 0
  Multiplicity = 5
  Basis Set: CC-PVDZ
    Blend: CC-PVDZ
  Basis Set: (CC-PVDZ AUX)
    Blend: CC-PVDZ-JKFIT + DEF2-UNIVERSAL-JKFIT

    Orbital Energies [Eh]
    ---------------------

    Alpha Occupied:

       1A1  -115.476039     2A1   -46.814582     3A1   -11.502435
       4A1    -9.075210     1B1    -9.045048     1B2    -9.045048
       5A1    -3.097102     6A1    -1.843120     2B1    -1.839470
       2B2    -1.839470     7A1    -1.300261     8A1    -0.779584
       3B2    -0.712387     3B1    -0.712387     9A1    -0.217172
       4B1    -0.074168     4B2    -0.074168

    Alpha Virtual:

      10A1    -0.040411    11A1     0.074444    12A1     0.147028
       5B1     0.162294     5B2     0.162294    13A1     0.286233
       6B1     0.289401     6B2     0.289401     1A2     0.320428
      14A1     0.320429    15A1     0.385327     7B2     0.406418
       7B1     0.406418     8B1     0.500032     8B2     0.500032
      16A1     0.503080    17A1     0.543823     2A2     0.543873
      18A1     0.700124

    Beta Occupied:

       1A1  -115.466759     2A1   -46.810041     3A1   -11.493527
       4A1    -9.046573     1B1    -9.039441     1B2    -9.039441
       5A1    -3.089807     6A1    -1.838683     2B1    -1.831935
       2B2    -1.831935     7A1    -1.236219     3B2    -0.691777
       3B1    -0.691777

    Beta Virtual:

       8A1    -0.587888     9A1    -0.095869    10A1    -0.003238
       4B1     0.031663     4B2     0.031663    11A1     0.118974
      12A1     0.174634     5B1     0.211485     5B2     0.211485
      13A1     0.329686     6B1     0.336837     6B2     0.336837
      14A1     0.399796     1A2     0.399800    15A1     0.427311
       7B1     0.427871     7B2     0.427871    16A1     0.555017
       2A2     0.555064     8B2     0.567124     8B1     0.567124
      17A1     0.588518    18A1     0.733629

    Final Occupation by Irrep:
             A1    A2    B1    B2
    DOCC [     7,    0,    3,    3 ]
    SOCC [     2,    0,    1,    1 ]
    NA   [     9,    0,    4,    4 ]
    NB   [     7,    0,    3,    3 ]

  @DF-UKS Final Energy:  -727.07679736012756

   => Energetics <=

    Nuclear Repulsion Energy =             35.0417704758164490
    One-Electron Energy =               -1071.6739638396156806
    Two-Electron Energy =                 347.5205743472868676
    DFT Exchange-Correlation Energy =     -37.9651783436152783
    Empirical Dispersion Energy =           0.0000000000000000
    VV10 Nonlocal Energy =                  0.0000000000000000
    Total Energy =                       -727.0767973601276708

  UHF NO Occupations:
  HONO-2 :    8 A1 1.0000000
  HONO-1 :    4 B2 1.0000000
  HONO-0 :    9 A1 1.0000000
  LUNO+0 :   10 A1 0.0008211
  LUNO+1 :    5 B2 0.0000379
  LUNO+2 :    5 B1 0.0000379
  LUNO+3 :   11 A1 0.0000009

Computation Completed

Properties will be evaluated at   0.000000,   0.000000,   0.000000 [a0]

Properties computed using the SCF density matrix

 Multipole Moments:

 ------------------------------------------------------------------------------------
     Multipole            Electronic (a.u.)      Nuclear  (a.u.)        Total (a.u.)
 ------------------------------------------------------------------------------------

 L = 1.  Multiply by 2.5417464519 to convert [e a0] to [Debye]
 Dipole X            :          0.0000000            0.0000000            0.0000000
 Dipole Y            :          0.0000000            0.0000000            0.0000000
 Dipole Z            :         -9.5423395            4.6092967           -4.9330428
 Magnitude           :                                                    4.9330428

 ------------------------------------------------------------------------------------

*** tstop() called on Joses-MacBook-Pro-2.local at Wed Jul 16 20:04:05 2025
Module time:
	user time   =       5.37 seconds =       0.09 minutes
	system time =       2.58 seconds =       0.04 minutes
	total time  =          0 seconds =       0.00 minutes
Total time:
	user time   =     207.84 seconds =       3.46 minutes
	system time =      63.53 seconds =       1.06 minutes
	total time  =         26 seconds =       0.43 minutes

*** tstart() called on Joses-MacBook-Pro-2.local
*** at Wed Jul 16 20:04:05 2025

         ------------------------------------------------------------
                                   SCF GRAD
                          Rob Parrish, Justin Turney,
                       Andy Simmonett, and Alex Sokolov
         ------------------------------------------------------------

  ==> Geometry <==

    Molecular point group: c2v
    Full point group: C_inf_v

    Geometry (in Angstrom), charge = 0, multiplicity = 5:

       Center              X                  Y                   Z               Mass
    ------------   -----------------  -----------------  -----------------  -----------------
         MG           0.000000000000     0.000000000000     2.038436383660    23.985041697000
         AR           0.000000000000     0.000000000000    -1.223450100746    39.962383123700

  Nuclear repulsion =   35.041770475816449

  ==> Basis Set <==

  Basis Set: CC-PVDZ
    Blend: CC-PVDZ
    Number of shells: 16
    Number of basis functions: 36
    Number of Cartesian functions: 38
    Spherical Harmonics?: true
    Max angular momentum: 2

  ==> DFJKGrad: Density-Fitted SCF Gradients <==

    Gradient:                    1
    J tasked:                  Yes
    K tasked:                  Yes
    wK tasked:                  No
    OpenMP threads:              1
    Integrals threads:           1
    Memory [MiB]:              375
    Schwarz Cutoff:          1E-12
    Fitting Condition:       1E-10

   => Auxiliary Basis Set <=

  Basis Set: (CC-PVDZ AUX)
    Blend: CC-PVDZ-JKFIT + DEF2-UNIVERSAL-JKFIT
    Number of shells: 70
    Number of basis functions: 224
    Number of Cartesian functions: 267
    Spherical Harmonics?: true
    Max angular momentum: 4

  ==> DFT Potential <==

   => LibXC <=

    Version 6.2.2
    S. Lehtola, C. Steigemann, M. J.T. Oliveira, and M. A.L. Marques.,  SoftwareX 7, 1â€“5 (2018) (10.1016/j.softx.2017.11.002)

   => Composite Functional: B3LYP <=

    B3LYP Hyb-GGA Exchange-Correlation Functional

    P. J. Stephens, F. J. Devlin, C. F. Chabalowski, and M. J. Frisch.,  J. Phys. Chem. 98, 11623 (1994) (10.1021/j100096a001)

    Deriv               =              1
    GGA                 =           TRUE
    Meta                =          FALSE

    Exchange Hybrid     =           TRUE
    MP2 Hybrid          =          FALSE

   => Exchange Functionals <=

    0.0800   Slater exchange
    0.7200         Becke 88

   => Exact (HF) Exchange <=

    0.2000               HF

   => Correlation Functionals <=

    0.1900   Vosko, Wilk & Nusair (VWN5_RPA)
    0.8100   Lee, Yang & Parr

   => LibXC Density Thresholds  <==

    XC_HYB_GGA_XC_B3LYP:  1.00E-15

   => Molecular Quadrature <=

    Radial Scheme          =       TREUTLER
    Pruning Scheme         =           NONE
    Nuclear Scheme         =       TREUTLER

    Blocking Scheme        =         OCTREE
    BS radius alpha        =              1
    Pruning alpha          =              1
    Radial Points          =             75
    Spherical Points       =            302
    Total Points           =          43064
    Total Blocks           =            421
    Max Points             =            255
    Max Functions          =             36
    Weights Tolerance      =       1.00E-15

  -Total Gradient:
     Atom            X                  Y                   Z
    ------   -----------------  -----------------  -----------------
       1        0.000000000000    -0.000000000000     0.000007547836
       2        0.000000000000    -0.000000000000     0.000017271711

*** tstop() called on Joses-MacBook-Pro-2.local at Wed Jul 16 20:04:06 2025
Module time:
	user time   =       1.93 seconds =       0.03 minutes
	system time =       1.76 seconds =       0.03 minutes
	total time  =          1 seconds =       0.02 minutes
Total time:
	user time   =     209.77 seconds =       3.50 minutes
	system time =      65.29 seconds =       1.09 minutes
	total time  =         27 seconds =       0.45 minutes

    			-----------------------------------------

    			 OPTKING 3.0: for geometry optimizations

    			     By R.A. King, Bethel University

    			        with contributions from

    			    A.V. Copan, J. Cayton, A. Heide

    			-----------------------------------------

	                            ===> Fragment 1 <==

	 Z (Atomic Numbers)          Masses                          Geom
	      12.000000            23.985042          0.00000000  0.00000000  3.85208649
	      18.000000            39.962383          0.00000000  0.00000000 -2.31198562

	 - Coordinate -           - BOHR/RAD -       - ANG/DEG -
	 R(1,2)           =         6.164072           3.261886

	        --- Internal Coordinate Step in ANG or DEG, aJ/ANG or AJ/DEG ---
	-------------------------------------------------------------------------------
	           Coordinate      Previous         Force          Change          New
	           ----------      --------        ------          ------        ------
	               R(1,2)       3.26189        0.00004        0.00014       3.26202
	-------------------------------------------------------------------------------

	                                 ==> Convergence Check <==

	Measures of convergence in internal coordinates in au.

	Criteria marked as inactive (o), active & met (*), and active & unmet ( ).

	----------------------------------------------------------------------------------------------
	   Step    Total Energy     Delta E     Max Force     RMS Force      Max Disp      RMS Disp
	----------------------------------------------------------------------------------------------
	  Convergence Criteria     1.00e-06 *    3.00e-04 *             o    1.20e-03 *             o
	----------------------------------------------------------------------------------------------
	    17    -727.07679736   -2.23e-09 *    4.86e-06 *    4.86e-06 o    2.59e-04 *    2.59e-04 o  ~
	----------------------------------------------------------------------------------------------

Next Geometry in Ang
	Fragment 1 (Ang)

	   Mg   0.0000000000   0.0000000000   2.0385049211
	   Ar   0.0000000000   0.0000000000  -1.2235186382

    Final optimized geometry and variables:
    Molecular point group: c2v
    Full point group: C_inf_v

    Geometry (in Angstrom), charge = 0, multiplicity = 5:

    MG           0.000000000000     0.000000000000     2.038436383660
    AR           0.000000000000     0.000000000000    -1.223450100746

    Psi4 stopped on: Wednesday, 16 July 2025 08:04PM
    Psi4 wall time for execution: 0:00:27.37

*** Psi4 exiting successfully. Buy a developer a beer!
