                               Psi4 1.9.1 release

  ==> Input File <==

--------------------------------------------------------------------------
molecule {
0 5
Si   0.00000        0.60000        0.00000
S   0.00000       -0.60000        0.00000
}

set {
basis              cc-pvdz
reference          uks
maxiter            500
geom_maxiter       500
DAMPING_PERCENTAGE 1
guess              SAP
}

optimize('b3lyp')
--------------------------------------------------------------------------

    Molecular point group: c2v
  Charge       = 0
  Multiplicity = 5
  Basis Set: CC-PVDZ
    Blend: CC-PVDZ
  Basis Set: (CC-PVDZ AUX)
    Blend: CC-PVDZ-JKFIT
  @DF-UKS Final Energy:  -686.15729406819798
    Total Energy =                       -686.1572940681979844
 Dipole X            :          0.0000000            0.0000000            0.0000000
 Dipole Y            :          0.0000000            0.0000000            0.0000000
 Dipole Z            :         -1.2324499           -0.0008257           -1.2332756
 Magnitude           :                                                    1.2332756
    Molecular point group: c2v
  Basis Set: CC-PVDZ
    Blend: CC-PVDZ
  Basis Set: (CC-PVDZ AUX)
    Blend: CC-PVDZ-JKFIT
  Basis Set: CC-PVDZ
    Blend: CC-PVDZ
  Basis Set: (CC-PVDZ AUX)
    Blend: CC-PVDZ-JKFIT
  @DF-UKS Final Energy:  -686.18995724335673
    Total Energy =                       -686.1899572433567300
  Basis Set: CC-PVDZ
    Blend: CC-PVDZ
  Basis Set: (CC-PVDZ AUX)
    Blend: CC-PVDZ-JKFIT
  Basis Set: CC-PVDZ
    Blend: CC-PVDZ
  @DF-UKS Final Energy:  -686.25163665381410
    Total Energy =                       -686.2516366538141028
  @DF-UKS Final Energy:  -686.46153736820725
    Total Energy =                       -686.4615373682072459
  @DF-UKS Final Energy:  -687.03000340906794
    Total Energy =                       -687.0300034090679446
  @DF-UKS Final Energy:  -687.29406903263714
    Total Energy =                       -687.2940690326371396
  @DF-UKS Final Energy:  -687.43460570440413
    Total Energy =                       -687.4346057044041345
  @DF-UKS Final Energy:  -687.48949306084660
    Total Energy =                       -687.4894930608465984
  @DF-UKS Final Energy:  -687.51409906925687
    Total Energy =                       -687.5140990692568721
  @DF-UKS Final Energy:  -687.52326480270381
    Total Energy =                       -687.5232648027038067
  @DF-UKS Final Energy:  -687.52564504670625
    Total Energy =                       -687.5256450467062450
  @DF-UKS Final Energy:  -687.52663318503210
    Total Energy =                       -687.5266331850322103
  @DF-UKS Final Energy:  -687.52686223831267
    Total Energy =                       -687.5268622383126740
  @DF-UKS Final Energy:  -687.52692416522564
    Total Energy =                       -687.5269241652256369
  @DF-UKS Final Energy:  -687.52694637045045
    Total Energy =                       -687.5269463704505597
  Basis Set: (CC-PVDZ AUX)
    Blend: CC-PVDZ-JKFIT
  Basis Set: CC-PVDZ
    Blend: CC-PVDZ
  Basis Set: (CC-PVDZ AUX)
    Blend: CC-PVDZ-JKFIT
  @DF-UKS Final Energy:  -687.52695005765520
    Total Energy =                       -687.5269500576550854
  Basis Set: CC-PVDZ
    Blend: CC-PVDZ
  Basis Set: (CC-PVDZ AUX)
    Blend: CC-PVDZ-JKFIT
  Charge       = 0
  Multiplicity = 5
  Basis Set: CC-PVDZ
    Blend: CC-PVDZ
  Basis Set: (CC-PVDZ AUX)
    Blend: CC-PVDZ-JKFIT

    Orbital Energies [Eh]
    ---------------------

    Alpha Occupied:

       1A1   -88.946958     2A1   -66.174692     3A1    -8.005812
       1B2    -5.975388     4A1    -5.971339     1B1    -5.956934
       5A1    -5.318742     6A1    -3.679685     2B2    -3.677568
       2B1    -3.676801     7A1    -0.751854     8A1    -0.486305
       3B2    -0.355076     9A1    -0.340215     3B1    -0.312368
       4B2    -0.192118     4B1    -0.183773

    Alpha Virtual:

      10A1    -0.039544    11A1     0.215119    12A1     0.259085
       5B2     0.284126     5B1     0.293587     6B2     0.299520
       6B1     0.307160     1A2     0.325585    13A1     0.325598
      14A1     0.359058     7B2     0.456627     7B1     0.486743
      15A1     0.539039     2A2     0.545354    16A1     0.563187
      17A1     0.574042     8B2     0.641119     8B1     0.669722
      18A1     0.977983

    Beta Occupied:

       1A1   -88.938064     2A1   -66.166055     3A1    -7.996757
       4A1    -5.957961     1B2    -5.954825     1B1    -5.950272
       5A1    -5.308201     6A1    -3.671395     2B2    -3.662011
       2B1    -3.661596     7A1    -0.680160     8A1    -0.403226
       3B1    -0.282052

    Beta Virtual:

       9A1    -0.213981     3B2    -0.204484     4B1    -0.059269
       4B2    -0.057038    10A1     0.009953    11A1     0.242964
      12A1     0.297572     5B2     0.333294     5B1     0.333573
       6B1     0.367427     6B2     0.368199    13A1     0.398740
       1A2     0.414697    14A1     0.414859     7B1     0.502682
       7B2     0.508717    15A1     0.597323     2A2     0.605305
      16A1     0.610458    17A1     0.615687     8B1     0.710778
       8B2     0.715579    18A1     1.017459

    Final Occupation by Irrep:
             A1    A2    B1    B2
    DOCC [     8,    0,    3,    2 ]
    SOCC [     1,    0,    1,    2 ]
    NA   [     9,    0,    4,    4 ]
    NB   [     8,    0,    3,    2 ]

  @DF-UKS Final Energy:  -687.52695034044439

   => Energetics <=

    Nuclear Repulsion Energy =             50.7587543132556576
    One-Electron Energy =               -1051.2667326941921146
    Two-Electron Energy =                 350.4462182272044402
    DFT Exchange-Correlation Energy =     -37.4651901867123129
    Empirical Dispersion Energy =           0.0000000000000000
    VV10 Nonlocal Energy =                  0.0000000000000000
    Total Energy =                       -687.5269503404443867

  UHF NO Occupations:
  HONO-2 :    3 B2 1.0000000
  HONO-1 :    9 A1 1.0000000
  HONO-0 :    4 B2 1.0000000
  LUNO+0 :   10 A1 0.0016924
  LUNO+1 :   11 A1 0.0006844
  LUNO+2 :    5 B1 0.0002730
  LUNO+3 :   12 A1 0.0000002

Computation Completed

Properties will be evaluated at   0.000000,   0.000000,   0.000000 [a0]

Properties computed using the SCF density matrix

 Multipole Moments:

 ------------------------------------------------------------------------------------
     Multipole            Electronic (a.u.)      Nuclear  (a.u.)        Total (a.u.)
 ------------------------------------------------------------------------------------

 L = 1.  Multiply by 2.5417464519 to convert [e a0] to [Debye]
 Dipole X            :          0.0000000            0.0000000            0.0000000
 Dipole Y            :          0.0000000            0.0000000            0.0000000
 Dipole Z            :         -0.0814581           -0.0016068           -0.0830649
 Magnitude           :                                                    0.0830649

 ------------------------------------------------------------------------------------

*** tstop() called on Joses-MacBook-Pro-2.local at Wed Jul 16 20:16:55 2025
Module time:
	user time   =       5.92 seconds =       0.10 minutes
	system time =       1.62 seconds =       0.03 minutes
	total time  =          1 seconds =       0.02 minutes
Total time:
	user time   =     195.12 seconds =       3.25 minutes
	system time =      52.00 seconds =       0.87 minutes
	total time  =         23 seconds =       0.38 minutes

*** tstart() called on Joses-MacBook-Pro-2.local
*** at Wed Jul 16 20:16:55 2025

         ------------------------------------------------------------
                                   SCF GRAD
                          Rob Parrish, Justin Turney,
                       Andy Simmonett, and Alex Sokolov
         ------------------------------------------------------------

  ==> Geometry <==

    Molecular point group: c2v
    Full point group: C_inf_v

    Geometry (in Angstrom), charge = 0, multiplicity = 5:

       Center              X                  Y                   Z               Mass
    ------------   -----------------  -----------------  -----------------  -----------------
         SI           0.000000000000     0.000000000000     1.245452131692    27.976926534650
         S            0.000000000000     0.000000000000    -1.089823759015    31.972071174400

  Nuclear repulsion =   50.758754313255658

  ==> Basis Set <==

  Basis Set: CC-PVDZ
    Blend: CC-PVDZ
    Number of shells: 16
    Number of basis functions: 36
    Number of Cartesian functions: 38
    Spherical Harmonics?: true
    Max angular momentum: 2

  ==> DFJKGrad: Density-Fitted SCF Gradients <==

    Gradient:                    1
    J tasked:                  Yes
    K tasked:                  Yes
    wK tasked:                  No
    OpenMP threads:              1
    Integrals threads:           1
    Memory [MiB]:              375
    Schwarz Cutoff:          1E-12
    Fitting Condition:       1E-10

   => Auxiliary Basis Set <=

  Basis Set: (CC-PVDZ AUX)
    Blend: CC-PVDZ-JKFIT
    Number of shells: 72
    Number of basis functions: 224
    Number of Cartesian functions: 260
    Spherical Harmonics?: true
    Max angular momentum: 3

  ==> DFT Potential <==

   => LibXC <=

    Version 6.2.2
    S. Lehtola, C. Steigemann, M. J.T. Oliveira, and M. A.L. Marques.,  SoftwareX 7, 1â€“5 (2018) (10.1016/j.softx.2017.11.002)

   => Composite Functional: B3LYP <=

    B3LYP Hyb-GGA Exchange-Correlation Functional

    P. J. Stephens, F. J. Devlin, C. F. Chabalowski, and M. J. Frisch.,  J. Phys. Chem. 98, 11623 (1994) (10.1021/j100096a001)

    Deriv               =              1
    GGA                 =           TRUE
    Meta                =          FALSE

    Exchange Hybrid     =           TRUE
    MP2 Hybrid          =          FALSE

   => Exchange Functionals <=

    0.0800   Slater exchange
    0.7200         Becke 88

   => Exact (HF) Exchange <=

    0.2000               HF

   => Correlation Functionals <=

    0.1900   Vosko, Wilk & Nusair (VWN5_RPA)
    0.8100   Lee, Yang & Parr

   => LibXC Density Thresholds  <==

    XC_HYB_GGA_XC_B3LYP:  1.00E-15

   => Molecular Quadrature <=

    Radial Scheme          =       TREUTLER
    Pruning Scheme         =           NONE
    Nuclear Scheme         =       TREUTLER

    Blocking Scheme        =         OCTREE
    BS radius alpha        =              1
    Pruning alpha          =              1
    Radial Points          =             75
    Spherical Points       =            302
    Total Points           =          41627
    Total Blocks           =            385
    Max Points             =            255
    Max Functions          =             36
    Weights Tolerance      =       1.00E-15

  -Total Gradient:
     Atom            X                  Y                   Z
    ------   -----------------  -----------------  -----------------
       1       -0.000000000000     0.000000000000    -0.000023389547
       2        0.000000000000    -0.000000000000     0.000038346870

*** tstop() called on Joses-MacBook-Pro-2.local at Wed Jul 16 20:16:55 2025
Module time:
	user time   =       2.10 seconds =       0.03 minutes
	system time =       1.19 seconds =       0.02 minutes
	total time  =          0 seconds =       0.00 minutes
Total time:
	user time   =     197.23 seconds =       3.29 minutes
	system time =      53.19 seconds =       0.89 minutes
	total time  =         23 seconds =       0.38 minutes

    			-----------------------------------------

    			 OPTKING 3.0: for geometry optimizations

    			     By R.A. King, Bethel University

    			        with contributions from

    			    A.V. Copan, J. Cayton, A. Heide

    			-----------------------------------------

	                            ===> Fragment 1 <==

	 Z (Atomic Numbers)          Masses                          Geom
	      14.000000            27.976927          0.00000000  0.00000000  2.35356343
	      16.000000            31.972071          0.00000000  0.00000000 -2.05946843

	 - Coordinate -           - BOHR/RAD -       - ANG/DEG -
	 R(1,2)           =         4.413032           2.335276

	        --- Internal Coordinate Step in ANG or DEG, aJ/ANG or AJ/DEG ---
	-------------------------------------------------------------------------------
	           Coordinate      Previous         Force          Change          New
	           ----------      --------        ------          ------        ------
	               R(1,2)       2.33528        0.00025        0.00027       2.33555
	-------------------------------------------------------------------------------

	                                 ==> Convergence Check <==

	Measures of convergence in internal coordinates in au.

	Criteria marked as inactive (o), active & met (*), and active & unmet ( ).

	----------------------------------------------------------------------------------------------
	   Step    Total Energy     Delta E     Max Force     RMS Force      Max Disp      RMS Disp
	----------------------------------------------------------------------------------------------
	  Convergence Criteria     1.00e-06 *    3.00e-04 *             o    1.20e-03 *             o
	----------------------------------------------------------------------------------------------
	    17    -687.52695034   -2.83e-07 *    3.09e-05 *    3.09e-05 o    5.17e-04 *    5.17e-04 o  ~
	----------------------------------------------------------------------------------------------

Next Geometry in Ang
	Fragment 1 (Ang)

	   Si   0.0000000000   0.0000000000   1.2455888092
	    S   0.0000000000   0.0000000000  -1.0899604365

    Final optimized geometry and variables:
    Molecular point group: c2v
    Full point group: C_inf_v

    Geometry (in Angstrom), charge = 0, multiplicity = 5:

    SI           0.000000000000     0.000000000000     1.245452131692
    S            0.000000000000     0.000000000000    -1.089823759015

    Psi4 stopped on: Wednesday, 16 July 2025 08:16PM
    Psi4 wall time for execution: 0:00:24.57

*** Psi4 exiting successfully. Buy a developer a beer!
