                               Psi4 1.9.1 release

  ==> Input File <==

--------------------------------------------------------------------------
molecule {
0 5
Al   0.00000        0.60000        0.00000
P   0.00000       -0.60000        0.00000
}

set {
basis              cc-pvdz
reference          uks
maxiter            500
geom_maxiter       500
DAMPING_PERCENTAGE 1
guess              SAP
}

optimize('b3lyp')
--------------------------------------------------------------------------

    Molecular point group: c2v
  Charge       = 0
  Multiplicity = 5
  Basis Set: CC-PVDZ
    Blend: CC-PVDZ
  Basis Set: (CC-PVDZ AUX)
    Blend: CC-PVDZ-JKFIT
  @DF-UKS Final Energy:  -582.34891096823696
    Total Energy =                       -582.3489109682369644
 Dipole X            :          0.0000000            0.0000000            0.0000000
 Dipole Y            :          0.0000000            0.0000000            0.0000000
 Dipole Z            :         -1.0409412           -0.0807668           -1.1217080
 Magnitude           :                                                    1.1217080
    Molecular point group: c2v
  Basis Set: CC-PVDZ
    Blend: CC-PVDZ
  Basis Set: (CC-PVDZ AUX)
    Blend: CC-PVDZ-JKFIT
  Basis Set: CC-PVDZ
    Blend: CC-PVDZ
  Basis Set: (CC-PVDZ AUX)
    Blend: CC-PVDZ-JKFIT
  @DF-UKS Final Energy:  -582.37130121006089
    Total Energy =                       -582.3713012100608921
  Basis Set: CC-PVDZ
    Blend: CC-PVDZ
  Basis Set: (CC-PVDZ AUX)
    Blend: CC-PVDZ-JKFIT
  Basis Set: CC-PVDZ
    Blend: CC-PVDZ
  @DF-UKS Final Energy:  -582.41432065207471
    Total Energy =                       -582.4143206520748208
  @DF-UKS Final Energy:  -582.56801075662543
    Total Energy =                       -582.5680107566254264
  @DF-UKS Final Energy:  -583.15771342947073
    Total Energy =                       -583.1577134294707321
  @DF-UKS Final Energy:  -583.38677104345118
    Total Energy =                       -583.3867710434511764
  @DF-UKS Final Energy:  -583.49482728084172
    Total Energy =                       -583.4948272808417187
  @DF-UKS Final Energy:  -583.61353308761693
    Total Energy =                       -583.6135330876169292
  @DF-UKS Final Energy:  -583.65721721529053
    Total Energy =                       -583.6572172152903022
  @DF-UKS Final Energy:  -583.66429884350623
    Total Energy =                       -583.6642988435063444
  @DF-UKS Final Energy:  -583.66786316887431
    Total Energy =                       -583.6678631688743053
  @DF-UKS Final Energy:  -583.66865541166976
    Total Energy =                       -583.6686554116697607
  @DF-UKS Final Energy:  -583.66892125000834
    Total Energy =                       -583.6689212500084523
  @DF-UKS Final Energy:  -583.66897530604194
    Total Energy =                       -583.6689753060419434
  @DF-UKS Final Energy:  -583.66898767053897
    Total Energy =                       -583.6689876705389679
  Basis Set: (CC-PVDZ AUX)
    Blend: CC-PVDZ-JKFIT
  Basis Set: CC-PVDZ
    Blend: CC-PVDZ
  Basis Set: (CC-PVDZ AUX)
    Blend: CC-PVDZ-JKFIT
  @DF-UKS Final Energy:  -583.66899121017104
    Total Energy =                       -583.6689912101711570
  Basis Set: CC-PVDZ
    Blend: CC-PVDZ
  Basis Set: (CC-PVDZ AUX)
    Blend: CC-PVDZ-JKFIT
  Charge       = 0
  Multiplicity = 5
  Basis Set: CC-PVDZ
    Blend: CC-PVDZ
  Basis Set: (CC-PVDZ AUX)
    Blend: CC-PVDZ-JKFIT

    Orbital Energies [Eh]
    ---------------------

    Alpha Occupied:

       1A1   -77.128252     2A1   -56.073372     3A1    -6.596202
       1B1    -4.760379     1B2    -4.759961     4A1    -4.757181
       5A1    -4.154298     2B1    -2.708544     6A1    -2.706973
       2B2    -2.705269     7A1    -0.614081     8A1    -0.354137
       3B2    -0.273166     3B1    -0.273119     9A1    -0.247466
       4B2    -0.127993

    Alpha Virtual:

       4B1    -0.074139    10A1    -0.008451    11A1     0.146395
      12A1     0.189197     5B2     0.207468     5B1     0.214878
       6B2     0.229338     6B1     0.235225     1A2     0.247075
      13A1     0.251665    14A1     0.288092     7B1     0.401858
       7B2     0.404013     2A2     0.426205    15A1     0.426344
      16A1     0.443403    17A1     0.478642     8B2     0.535125
       8B1     0.535910    18A1     0.786586

    Beta Occupied:

       1A1   -77.117685     2A1   -56.069820     3A1    -6.585007
       4A1    -4.743491     1B1    -4.742842     1B2    -4.741512
       5A1    -4.149527     2B1    -2.705750     6A1    -2.702657
       2B2    -2.695984     7A1    -0.516833     8A1    -0.298626

    Beta Virtual:

       9A1    -0.142801     3B1    -0.140757     3B2    -0.133182
       4B1    -0.046464     4B2    -0.025047    10A1     0.025208
      11A1     0.164646    12A1     0.216798     5B1     0.221447
       5B2     0.239746     6B1     0.270716     6B2     0.289358
      13A1     0.291519     1A2     0.292464    14A1     0.326791
       7B1     0.453177     7B2     0.457193    15A1     0.485784
      16A1     0.518553     2A2     0.520477    17A1     0.522174
       8B1     0.595433     8B2     0.603408    18A1     0.831215

    Final Occupation by Irrep:
             A1    A2    B1    B2
    DOCC [     8,    0,    2,    2 ]
    SOCC [     1,    0,    1,    2 ]
    NA   [     9,    0,    3,    4 ]
    NB   [     8,    0,    2,    2 ]

  @DF-UKS Final Energy:  -583.66899155166334

   => Energetics <=

    Nuclear Repulsion Energy =             39.4467880659680930
    One-Electron Energy =                -886.9286758319818773
    Two-Electron Energy =                 297.4872081414640093
    DFT Exchange-Correlation Energy =     -33.6743119271135072
    Empirical Dispersion Energy =           0.0000000000000000
    VV10 Nonlocal Energy =                  0.0000000000000000
    Total Energy =                       -583.6689915516632254

  UHF NO Occupations:
  HONO-2 :    4 B2 1.0000000
  HONO-1 :    9 A1 1.0000000
  HONO-0 :    3 B1 1.0000000
  LUNO+0 :   10 A1 0.0040051
  LUNO+1 :   11 A1 0.0002799
  LUNO+2 :    4 B1 0.0000002
  LUNO+3 :   12 A1 0.0000002

Computation Completed

Properties will be evaluated at   0.000000,   0.000000,   0.000000 [a0]

Properties computed using the SCF density matrix

 Multipole Moments:

 ------------------------------------------------------------------------------------
     Multipole            Electronic (a.u.)      Nuclear  (a.u.)        Total (a.u.)
 ------------------------------------------------------------------------------------

 L = 1.  Multiply by 2.5417464519 to convert [e a0] to [Debye]
 Dipole X            :          0.0000000            0.0000000            0.0000000
 Dipole Y            :          0.0000000            0.0000000            0.0000000
 Dipole Z            :          0.0403737           -0.1760661           -0.1356924
 Magnitude           :                                                    0.1356924

 ------------------------------------------------------------------------------------

*** tstop() called on Joses-MacBook-Pro-2.local at Wed Jul 16 20:08:08 2025
Module time:
	user time   =       6.54 seconds =       0.11 minutes
	system time =       1.81 seconds =       0.03 minutes
	total time  =          1 seconds =       0.02 minutes
Total time:
	user time   =     194.74 seconds =       3.25 minutes
	system time =      54.39 seconds =       0.91 minutes
	total time  =         24 seconds =       0.40 minutes

*** tstart() called on Joses-MacBook-Pro-2.local
*** at Wed Jul 16 20:08:08 2025

         ------------------------------------------------------------
                                   SCF GRAD
                          Rob Parrish, Justin Turney,
                       Andy Simmonett, and Alex Sokolov
         ------------------------------------------------------------

  ==> Geometry <==

    Molecular point group: c2v
    Full point group: C_inf_v

    Geometry (in Angstrom), charge = 0, multiplicity = 5:

       Center              X                  Y                   Z               Mass
    ------------   -----------------  -----------------  -----------------  -----------------
         AL           0.000000000000     0.000000000000     1.398057044162    26.981538530000
         P            0.000000000000     0.000000000000    -1.217860781849    30.973761998420

  Nuclear repulsion =   39.446788065968093

  ==> Basis Set <==

  Basis Set: CC-PVDZ
    Blend: CC-PVDZ
    Number of shells: 16
    Number of basis functions: 36
    Number of Cartesian functions: 38
    Spherical Harmonics?: true
    Max angular momentum: 2

  ==> DFJKGrad: Density-Fitted SCF Gradients <==

    Gradient:                    1
    J tasked:                  Yes
    K tasked:                  Yes
    wK tasked:                  No
    OpenMP threads:              1
    Integrals threads:           1
    Memory [MiB]:              375
    Schwarz Cutoff:          1E-12
    Fitting Condition:       1E-10

   => Auxiliary Basis Set <=

  Basis Set: (CC-PVDZ AUX)
    Blend: CC-PVDZ-JKFIT
    Number of shells: 72
    Number of basis functions: 224
    Number of Cartesian functions: 260
    Spherical Harmonics?: true
    Max angular momentum: 3

  ==> DFT Potential <==

   => LibXC <=

    Version 6.2.2
    S. Lehtola, C. Steigemann, M. J.T. Oliveira, and M. A.L. Marques.,  SoftwareX 7, 1â€“5 (2018) (10.1016/j.softx.2017.11.002)

   => Composite Functional: B3LYP <=

    B3LYP Hyb-GGA Exchange-Correlation Functional

    P. J. Stephens, F. J. Devlin, C. F. Chabalowski, and M. J. Frisch.,  J. Phys. Chem. 98, 11623 (1994) (10.1021/j100096a001)

    Deriv               =              1
    GGA                 =           TRUE
    Meta                =          FALSE

    Exchange Hybrid     =           TRUE
    MP2 Hybrid          =          FALSE

   => Exchange Functionals <=

    0.0800   Slater exchange
    0.7200         Becke 88

   => Exact (HF) Exchange <=

    0.2000               HF

   => Correlation Functionals <=

    0.1900   Vosko, Wilk & Nusair (VWN5_RPA)
    0.8100   Lee, Yang & Parr

   => LibXC Density Thresholds  <==

    XC_HYB_GGA_XC_B3LYP:  1.00E-15

   => Molecular Quadrature <=

    Radial Scheme          =       TREUTLER
    Pruning Scheme         =           NONE
    Nuclear Scheme         =       TREUTLER

    Blocking Scheme        =         OCTREE
    BS radius alpha        =              1
    Pruning alpha          =              1
    Radial Points          =             75
    Spherical Points       =            302
    Total Points           =          42699
    Total Blocks           =            406
    Max Points             =            256
    Max Functions          =             36
    Weights Tolerance      =       1.00E-15

  -Total Gradient:
     Atom            X                  Y                   Z
    ------   -----------------  -----------------  -----------------
       1        0.000000000000     0.000000000000    -0.000020892304
       2        0.000000000000     0.000000000000     0.000042062256

*** tstop() called on Joses-MacBook-Pro-2.local at Wed Jul 16 20:08:08 2025
Module time:
	user time   =       2.31 seconds =       0.04 minutes
	system time =       1.70 seconds =       0.03 minutes
	total time  =          0 seconds =       0.00 minutes
Total time:
	user time   =     197.05 seconds =       3.28 minutes
	system time =      56.09 seconds =       0.93 minutes
	total time  =         24 seconds =       0.40 minutes

    			-----------------------------------------

    			 OPTKING 3.0: for geometry optimizations

    			     By R.A. King, Bethel University

    			        with contributions from

    			    A.V. Copan, J. Cayton, A. Heide

    			-----------------------------------------

	                            ===> Fragment 1 <==

	 Z (Atomic Numbers)          Masses                          Geom
	      13.000000            26.981539          0.00000000  0.00000000  2.64194492
	      15.000000            30.973762          0.00000000  0.00000000 -2.30142334

	 - Coordinate -           - BOHR/RAD -       - ANG/DEG -
	 R(1,2)           =         4.943368           2.615918

	        --- Internal Coordinate Step in ANG or DEG, aJ/ANG or AJ/DEG ---
	-------------------------------------------------------------------------------
	           Coordinate      Previous         Force          Change          New
	           ----------      --------        ------          ------        ------
	               R(1,2)       2.61592        0.00026        0.00059       2.61650
	-------------------------------------------------------------------------------

	                                 ==> Convergence Check <==

	Measures of convergence in internal coordinates in au.

	Criteria marked as inactive (o), active & met (*), and active & unmet ( ).

	----------------------------------------------------------------------------------------------
	   Step    Total Energy     Delta E     Max Force     RMS Force      Max Disp      RMS Disp
	----------------------------------------------------------------------------------------------
	  Convergence Criteria     1.00e-06 *    3.00e-04 *             o    1.20e-03 *             o
	----------------------------------------------------------------------------------------------
	    17    -583.66899155   -3.41e-07 *    3.15e-05 *    3.15e-05 o    1.11e-03 *    1.11e-03 o  ~
	----------------------------------------------------------------------------------------------

Next Geometry in Ang
	Fragment 1 (Ang)

	   Al   0.0000000000   0.0000000000   1.3983497400
	    P   0.0000000000   0.0000000000  -1.2181534777

    Final optimized geometry and variables:
    Molecular point group: c2v
    Full point group: C_inf_v

    Geometry (in Angstrom), charge = 0, multiplicity = 5:

    AL           0.000000000000     0.000000000000     1.398057044162
    P            0.000000000000     0.000000000000    -1.217860781849

    Psi4 stopped on: Wednesday, 16 July 2025 08:08PM
    Psi4 wall time for execution: 0:00:24.59

*** Psi4 exiting successfully. Buy a developer a beer!
