                               Psi4 1.9.1 release

  ==> Input File <==

--------------------------------------------------------------------------
molecule {
0 5
P   0.00000        0.60000        0.00000
P   0.00000       -0.60000        0.00000
}

set {
basis              cc-pvdz
reference          uks
maxiter            500
geom_maxiter       500
DAMPING_PERCENTAGE 1
guess              SAP
}

optimize('b3lyp')
--------------------------------------------------------------------------

    Molecular point group: d2h
  Charge       = 0
  Multiplicity = 5
  Basis Set: CC-PVDZ
    Blend: CC-PVDZ
  Basis Set: (CC-PVDZ AUX)
    Blend: CC-PVDZ-JKFIT
  @DF-UKS Final Energy:  -681.18171502978601
    Total Energy =                       -681.1817150297860053
 Dipole X            :          0.0000000            0.0000000            0.0000000
 Dipole Y            :          0.0000000            0.0000000            0.0000000
 Dipole Z            :          0.0000000            0.0000000            0.0000000
 Magnitude           :                                                    0.0000000
    Molecular point group: d2h
  Basis Set: CC-PVDZ
    Blend: CC-PVDZ
  Basis Set: (CC-PVDZ AUX)
    Blend: CC-PVDZ-JKFIT
  Basis Set: CC-PVDZ
    Blend: CC-PVDZ
  Basis Set: (CC-PVDZ AUX)
    Blend: CC-PVDZ-JKFIT
  @DF-UKS Final Energy:  -681.21588188310557
    Total Energy =                       -681.2158818831055669
  Basis Set: CC-PVDZ
    Blend: CC-PVDZ
  Basis Set: (CC-PVDZ AUX)
    Blend: CC-PVDZ-JKFIT
  Basis Set: CC-PVDZ
    Blend: CC-PVDZ
  @DF-UKS Final Energy:  -681.28026072748253
    Total Energy =                       -681.2802607274825277
  @DF-UKS Final Energy:  -681.49799484618393
    Total Energy =                       -681.4979948461840422
  @DF-UKS Final Energy:  -682.06015343763636
    Total Energy =                       -682.0601534376363588
  @DF-UKS Final Energy:  -682.31359822344973
    Total Energy =                       -682.3135982234497305
  @DF-UKS Final Energy:  -682.45984005958655
    Total Energy =                       -682.4598400595865542
  @DF-UKS Final Energy:  -682.51648588214232
    Total Energy =                       -682.5164858821422058
  @DF-UKS Final Energy:  -682.54172235876308
    Total Energy =                       -682.5417223587629678
  @DF-UKS Final Energy:  -682.55062040353539
    Total Energy =                       -682.5506204035353903
  @DF-UKS Final Energy:  -682.55260929223448
    Total Energy =                       -682.5526092922344787
  @DF-UKS Final Energy:  -682.55324356356164
    Total Energy =                       -682.5532435635617503
  @DF-UKS Final Energy:  -682.55333563418367
    Total Energy =                       -682.5533356341835542
  @DF-UKS Final Energy:  -682.55335011115153
    Total Energy =                       -682.5533501111514170
  Basis Set: (CC-PVDZ AUX)
    Blend: CC-PVDZ-JKFIT
  Basis Set: CC-PVDZ
    Blend: CC-PVDZ
  Basis Set: (CC-PVDZ AUX)
    Blend: CC-PVDZ-JKFIT
  @DF-UKS Final Energy:  -682.55335275783148
    Total Energy =                       -682.5533527578314761
  Basis Set: CC-PVDZ
    Blend: CC-PVDZ
  Basis Set: (CC-PVDZ AUX)
    Blend: CC-PVDZ-JKFIT
  Charge       = 0
  Multiplicity = 5
  Basis Set: CC-PVDZ
    Blend: CC-PVDZ
  Basis Set: (CC-PVDZ AUX)
    Blend: CC-PVDZ-JKFIT

    Orbital Energies [Eh]
    ---------------------

    Alpha Occupied:

       1Ag   -77.129690     1B2u  -77.129690     2B2u   -6.597572
       2Ag    -6.597520     3Ag    -4.763796     3B2u   -4.763559
       1B3u   -4.762117     1B1g   -4.762106     1B1u   -4.754581
       1B3g   -4.754569     4Ag    -0.673719     4B2u   -0.544630
       5Ag    -0.334285     2B3u   -0.308659     2B1u   -0.285334
       2B1g   -0.222301     2B3g   -0.200486

    Alpha Virtual:

       5B2u   -0.038047     6Ag     0.254887     3B3u    0.310702
       3B1u    0.328496     7Ag     0.332767     6B2u    0.355271
       4B3u    0.387159     4B1u    0.403397     1B2g    0.406128
       8Ag     0.406757     3B1g    0.411888     3B3g    0.427637
       7B2u    0.469260     1Au     0.469775     8B2u    0.495454
       9Ag     0.622002     4B1g    0.630375     4B3g    0.648586
       9B2u    0.948127

    Beta Occupied:

       1B2u  -77.120766     1Ag   -77.120766     2B2u   -6.588029
       2Ag    -6.587959     3Ag    -4.752077     3B2u   -4.751856
       1B3u   -4.744466     1B1g   -4.744455     1B1u   -4.742351
       1B3g   -4.742338     4Ag    -0.598299     4B2u   -0.448486
       2B1u   -0.228592

    Beta Virtual:

       5Ag    -0.212312     2B3u   -0.168978     2B3g   -0.092510
       2B1g   -0.077087     5B2u    0.018767     6Ag     0.299406
       7Ag     0.370183     3B1u    0.384348     3B3u    0.392688
       6B2u    0.394793     4B1u    0.433130     4B3u    0.434876
       3B3g    0.458100     3B1g    0.460781     1B2g    0.479100
       8Ag     0.480930     7B2u    0.528593     1Au     0.545799
       8B2u    0.547567     9Ag     0.666573     4B3g    0.700772
       4B1g    0.703789     9B2u    0.997475

    Final Occupation by Irrep:
             Ag   B1g   B2g   B3g    Au   B1u   B2u   B3u
    DOCC [     4,    1,    0,    1,    0,    2,    4,    1 ]
    SOCC [     1,    1,    0,    1,    0,    0,    0,    1 ]
    NA   [     5,    2,    0,    2,    0,    2,    4,    2 ]
    NB   [     4,    1,    0,    1,    0,    2,    4,    1 ]

  @DF-UKS Final Energy:  -682.55335290391292

   => Energetics <=

    Nuclear Repulsion Energy =             52.4052575593278078
    One-Electron Energy =               -1047.5572794053541656
    Two-Electron Energy =                 349.9747365055346222
    DFT Exchange-Correlation Energy =     -37.3760675634211594
    Empirical Dispersion Energy =           0.0000000000000000
    VV10 Nonlocal Energy =                  0.0000000000000000
    Total Energy =                       -682.5533529039130372

  UHF NO Occupations:
  HONO-2 :    2B3u 1.0000000
  HONO-1 :    5 Ag 1.0000000
  HONO-0 :    2B1g 1.0000000
  LUNO+0 :    3B1u 0.0015682
  LUNO+1 :    5B2u 0.0006993
  LUNO+2 :    6 Ag 0.0002947
  LUNO+3 :    6B2u 0.0000001

Computation Completed

Properties will be evaluated at   0.000000,   0.000000,   0.000000 [a0]

Properties computed using the SCF density matrix

 Multipole Moments:

 ------------------------------------------------------------------------------------
     Multipole            Electronic (a.u.)      Nuclear  (a.u.)        Total (a.u.)
 ------------------------------------------------------------------------------------

 L = 1.  Multiply by 2.5417464519 to convert [e a0] to [Debye]
 Dipole X            :          0.0000000            0.0000000            0.0000000
 Dipole Y            :          0.0000000            0.0000000            0.0000000
 Dipole Z            :          0.0000000            0.0000000            0.0000000
 Magnitude           :                                                    0.0000000

 ------------------------------------------------------------------------------------

*** tstop() called on Joses-MacBook-Pro-2.local at Wed Jul 16 20:21:52 2025
Module time:
	user time   =       6.70 seconds =       0.11 minutes
	system time =       2.08 seconds =       0.03 minutes
	total time  =          1 seconds =       0.02 minutes
Total time:
	user time   =     162.92 seconds =       2.72 minutes
	system time =      53.24 seconds =       0.89 minutes
	total time  =         21 seconds =       0.35 minutes

*** tstart() called on Joses-MacBook-Pro-2.local
*** at Wed Jul 16 20:21:52 2025

         ------------------------------------------------------------
                                   SCF GRAD
                          Rob Parrish, Justin Turney,
                       Andy Simmonett, and Alex Sokolov
         ------------------------------------------------------------

  ==> Geometry <==

    Molecular point group: d2h
    Full point group: D_inf_h

    Geometry (in Angstrom), charge = 0, multiplicity = 5:

       Center              X                  Y                   Z               Mass
    ------------   -----------------  -----------------  -----------------  -----------------
         P           -0.000000000000     1.136001213866     0.000000000000    30.973761998420
         P            0.000000000000    -1.136001213866     0.000000000000    30.973761998420

  Nuclear repulsion =   52.405257559327808

  ==> Basis Set <==

  Basis Set: CC-PVDZ
    Blend: CC-PVDZ
    Number of shells: 16
    Number of basis functions: 36
    Number of Cartesian functions: 38
    Spherical Harmonics?: true
    Max angular momentum: 2

  ==> DFJKGrad: Density-Fitted SCF Gradients <==

    Gradient:                    1
    J tasked:                  Yes
    K tasked:                  Yes
    wK tasked:                  No
    OpenMP threads:              1
    Integrals threads:           1
    Memory [MiB]:              375
    Schwarz Cutoff:          1E-12
    Fitting Condition:       1E-10

   => Auxiliary Basis Set <=

  Basis Set: (CC-PVDZ AUX)
    Blend: CC-PVDZ-JKFIT
    Number of shells: 72
    Number of basis functions: 224
    Number of Cartesian functions: 260
    Spherical Harmonics?: true
    Max angular momentum: 3

  ==> DFT Potential <==

   => LibXC <=

    Version 6.2.2
    S. Lehtola, C. Steigemann, M. J.T. Oliveira, and M. A.L. Marques.,  SoftwareX 7, 1â€“5 (2018) (10.1016/j.softx.2017.11.002)

   => Composite Functional: B3LYP <=

    B3LYP Hyb-GGA Exchange-Correlation Functional

    P. J. Stephens, F. J. Devlin, C. F. Chabalowski, and M. J. Frisch.,  J. Phys. Chem. 98, 11623 (1994) (10.1021/j100096a001)

    Deriv               =              1
    GGA                 =           TRUE
    Meta                =          FALSE

    Exchange Hybrid     =           TRUE
    MP2 Hybrid          =          FALSE

   => Exchange Functionals <=

    0.0800   Slater exchange
    0.7200         Becke 88

   => Exact (HF) Exchange <=

    0.2000               HF

   => Correlation Functionals <=

    0.1900   Vosko, Wilk & Nusair (VWN5_RPA)
    0.8100   Lee, Yang & Parr

   => LibXC Density Thresholds  <==

    XC_HYB_GGA_XC_B3LYP:  1.00E-15

   => Molecular Quadrature <=

    Radial Scheme          =       TREUTLER
    Pruning Scheme         =           NONE
    Nuclear Scheme         =       TREUTLER

    Blocking Scheme        =         OCTREE
    BS radius alpha        =              1
    Pruning alpha          =              1
    Radial Points          =             75
    Spherical Points       =            302
    Total Points           =          40852
    Total Blocks           =            374
    Max Points             =            251
    Max Functions          =             36
    Weights Tolerance      =       1.00E-15

  -Total Gradient:
     Atom            X                  Y                   Z
    ------   -----------------  -----------------  -----------------
       1        0.000000000000    -0.000024029023     0.000000000000
       2       -0.000000000000     0.000024029023     0.000000000000

*** tstop() called on Joses-MacBook-Pro-2.local at Wed Jul 16 20:21:52 2025
Module time:
	user time   =       1.92 seconds =       0.03 minutes
	system time =       1.48 seconds =       0.02 minutes
	total time  =          0 seconds =       0.00 minutes
Total time:
	user time   =     164.84 seconds =       2.75 minutes
	system time =      54.72 seconds =       0.91 minutes
	total time  =         21 seconds =       0.35 minutes

    			-----------------------------------------

    			 OPTKING 3.0: for geometry optimizations

    			     By R.A. King, Bethel University

    			        with contributions from

    			    A.V. Copan, J. Cayton, A. Heide

    			-----------------------------------------

	                            ===> Fragment 1 <==

	 Z (Atomic Numbers)          Masses                          Geom
	      15.000000            30.973762         -0.00000000  2.14673117  0.00000000
	      15.000000            30.973762          0.00000000 -2.14673117  0.00000000

	 - Coordinate -           - BOHR/RAD -       - ANG/DEG -
	 R(1,2)           =         4.293462           2.272002

	        --- Internal Coordinate Step in ANG or DEG, aJ/ANG or AJ/DEG ---
	-------------------------------------------------------------------------------
	           Coordinate      Previous         Force          Change          New
	           ----------      --------        ------          ------        ------
	               R(1,2)       2.27200        0.00020        0.00013       2.27213
	-------------------------------------------------------------------------------

	                                 ==> Convergence Check <==

	Measures of convergence in internal coordinates in au.

	Criteria marked as inactive (o), active & met (*), and active & unmet ( ).

	----------------------------------------------------------------------------------------------
	   Step    Total Energy     Delta E     Max Force     RMS Force      Max Disp      RMS Disp
	----------------------------------------------------------------------------------------------
	  Convergence Criteria     1.00e-06 *    3.00e-04 *             o    1.20e-03 *             o
	----------------------------------------------------------------------------------------------
	    16    -682.55335290   -1.46e-07 *    2.40e-05 *    2.40e-05 o    2.42e-04 *    2.42e-04 o  ~
	----------------------------------------------------------------------------------------------

Next Geometry in Ang
	Fragment 1 (Ang)

	    P  -0.0000000000   1.1360652128   0.0000000000
	    P   0.0000000000  -1.1360652128   0.0000000000

    Final optimized geometry and variables:
    Molecular point group: d2h
    Full point group: D_inf_h

    Geometry (in Angstrom), charge = 0, multiplicity = 5:

    P           -0.000000000000     1.136001213866     0.000000000000
    P            0.000000000000    -1.136001213866     0.000000000000

    Psi4 stopped on: Wednesday, 16 July 2025 08:21PM
    Psi4 wall time for execution: 0:00:21.35

*** Psi4 exiting successfully. Buy a developer a beer!
