                               Psi4 1.9.1 release

  ==> Input File <==

--------------------------------------------------------------------------
molecule {
0 5
Li   0.00000        0.60000        0.00000
N   0.00000       -0.60000        0.00000
}

set {
basis              cc-pvdz
reference          uks
maxiter            500
geom_maxiter       500
DAMPING_PERCENTAGE 1
guess              SAP
}

optimize('b3lyp')
--------------------------------------------------------------------------

    Molecular point group: c2v
  Charge       = 0
  Multiplicity = 5
  Basis Set: CC-PVDZ
    Blend: CC-PVDZ
  Basis Set: (CC-PVDZ AUX)
    Blend: CC-PVDZ-JKFIT + DEF2-UNIVERSAL-JKFIT
  @DF-UKS Final Energy:   -61.84452404052323
    Total Energy =                        -61.8445240405232255
 Dipole X            :          0.0000000            0.0000000            0.0000000
 Dipole Y            :          0.0000000            0.0000000            0.0000000
 Dipole Z            :         -0.5625224           -0.7662953           -1.3288177
 Magnitude           :                                                    1.3288177
    Molecular point group: c2v
  Basis Set: CC-PVDZ
    Blend: CC-PVDZ
  Basis Set: (CC-PVDZ AUX)
    Blend: CC-PVDZ-JKFIT + DEF2-UNIVERSAL-JKFIT
  Basis Set: CC-PVDZ
    Blend: CC-PVDZ
  Basis Set: (CC-PVDZ AUX)
    Blend: CC-PVDZ-JKFIT + DEF2-UNIVERSAL-JKFIT
  @DF-UKS Final Energy:   -61.97971088244850
    Total Energy =                        -61.9797108824485008
  Basis Set: CC-PVDZ
    Blend: CC-PVDZ
  Basis Set: (CC-PVDZ AUX)
    Blend: CC-PVDZ-JKFIT + DEF2-UNIVERSAL-JKFIT
  Basis Set: CC-PVDZ
    Blend: CC-PVDZ
  @DF-UKS Final Energy:   -62.02303907715378
    Total Energy =                        -62.0230390771537827
  @DF-UKS Final Energy:   -62.04868787802928
    Total Energy =                        -62.0486878780292770
  @DF-UKS Final Energy:   -62.06135172003152
    Total Energy =                        -62.0613517200315243
  @DF-UKS Final Energy:   -62.06819349094427
    Total Energy =                        -62.0681934909442674
  @DF-UKS Final Energy:   -62.07201993937782
    Total Energy =                        -62.0720199393778174
  @DF-UKS Final Energy:   -62.07436864098092
    Total Energy =                        -62.0743686409809214
  @DF-UKS Final Energy:   -62.07607026899269
    Total Energy =                        -62.0760702689926944
  @DF-UKS Final Energy:   -62.07758894872635
    Total Energy =                        -62.0775889487263512
  @DF-UKS Final Energy:   -62.07762631662992
    Total Energy =                        -62.0776263166299245
  @DF-UKS Final Energy:   -62.07911790055611
    Total Energy =                        -62.0791179005561133
  @DF-UKS Final Energy:   -62.07913700576165
    Total Energy =                        -62.0791370057616518
  @DF-UKS Final Energy:   -62.08002171626826
    Total Energy =                        -62.0800217162682557
  @DF-UKS Final Energy:   -62.08002931566165
    Total Energy =                        -62.0800293156616547
  @DF-UKS Final Energy:   -62.08003683257597
    Total Energy =                        -62.0800368325759706
  @DF-UKS Final Energy:   -62.08048323193848
    Total Energy =                        -62.0804832319384801
  @DF-UKS Final Energy:   -62.08048565190955
    Total Energy =                        -62.0804856519095480
  @DF-UKS Final Energy:   -62.08048805070302
    Total Energy =                        -62.0804880507030248
  @DF-UKS Final Energy:   -62.08049042550493
    Total Energy =                        -62.0804904255049408
  Basis Set: (CC-PVDZ AUX)
    Blend: CC-PVDZ-JKFIT + DEF2-UNIVERSAL-JKFIT
  Basis Set: CC-PVDZ
    Blend: CC-PVDZ
  Basis Set: (CC-PVDZ AUX)
    Blend: CC-PVDZ-JKFIT + DEF2-UNIVERSAL-JKFIT
  @DF-UKS Final Energy:   -62.08069535656666
    Total Energy =                        -62.0806953565666575
  Basis Set: CC-PVDZ
    Blend: CC-PVDZ
  Basis Set: (CC-PVDZ AUX)
    Blend: CC-PVDZ-JKFIT + DEF2-UNIVERSAL-JKFIT
  Charge       = 0
  Multiplicity = 5
  Basis Set: CC-PVDZ
    Blend: CC-PVDZ
  Basis Set: (CC-PVDZ AUX)
    Blend: CC-PVDZ-JKFIT + DEF2-UNIVERSAL-JKFIT

    Orbital Energies [Eh]
    ---------------------

    Alpha Occupied:

       1A1   -14.440053     2A1    -2.031652     3A1    -0.806414
       4A1    -0.349450     1B2    -0.348869     1B1    -0.348869
       5A1    -0.133292

    Alpha Virtual:

       2B1    -0.031640     2B2    -0.031640     6A1    -0.027990
       3B2     0.071659     3B1     0.071659     7A1     0.072883
       8A1     0.086793     9A1     0.218094    10A1     0.218268
       1A2     0.218268     4B2     0.218684     4B1     0.218684
       5B2     0.657883     5B1     0.657883    11A1     0.674549
      12A1     0.829468     2A2     1.674712     6B2     1.674749
       6B1     1.674749    13A1     1.674822    14A1     1.675647

    Beta Occupied:

       1A1   -14.383677     2A1    -2.024356     3A1    -0.609476

    Beta Virtual:

       4A1    -0.101636     1B1    -0.095322     1B2    -0.095322
       5A1    -0.049823     2B1     0.004571     2B2     0.004571
       6A1     0.007101     7A1     0.090817     3B1     0.091349
       3B2     0.091349     8A1     0.108581     9A1     0.265314
       4B1     0.266659     4B2     0.266659     1A2     0.267340
      10A1     0.267375     5B1     0.765085     5B2     0.765085
      11A1     0.780453    12A1     0.926917     6B2     1.822274
       6B1     1.822274     2A2     1.822445    13A1     1.822552
      14A1     1.823074

    Final Occupation by Irrep:
             A1    A2    B1    B2
    DOCC [     3,    0,    0,    0 ]
    SOCC [     2,    0,    1,    1 ]
    NA   [     5,    0,    1,    1 ]
    NB   [     3,    0,    0,    0 ]

  @DF-UKS Final Energy:   -62.08069599790551

   => Energetics <=

    Nuclear Repulsion Energy =              2.5662932016330151
    One-Electron Energy =                 -88.8012390762668815
    Two-Electron Energy =                  31.1203229925586697
    DFT Exchange-Correlation Energy =      -6.9660731158303157
    Empirical Dispersion Energy =           0.0000000000000000
    VV10 Nonlocal Energy =                  0.0000000000000000
    Total Energy =                        -62.0806959979055080

  UHF NO Occupations:
  HONO-2 :    1 B2 1.0000000
  HONO-1 :    4 A1 1.0000000
  HONO-0 :    5 A1 1.0000000
  LUNO+0 :    6 A1 0.0011683
  LUNO+1 :    7 A1 0.0000002
  LUNO+2 :    8 A1 0.0000001
  LUNO+3 :    9 A1 0.0000000

Computation Completed

Properties will be evaluated at   0.000000,   0.000000,   0.000000 [a0]

Properties computed using the SCF density matrix

 Multipole Moments:

 ------------------------------------------------------------------------------------
     Multipole            Electronic (a.u.)      Nuclear  (a.u.)        Total (a.u.)
 ------------------------------------------------------------------------------------

 L = 1.  Multiply by 2.5417464519 to convert [e a0] to [Debye]
 Dipole X            :          0.0000000            0.0000000            0.0000000
 Dipole Y            :          0.0000000            0.0000000            0.0000000
 Dipole Z            :          2.6344516           -2.7652161           -0.1307645
 Magnitude           :                                                    0.1307645

 ------------------------------------------------------------------------------------

*** tstop() called on Joses-MacBook-Pro-2.local at Wed Jul 16 18:30:28 2025
Module time:
	user time   =       2.23 seconds =       0.04 minutes
	system time =       1.93 seconds =       0.03 minutes
	total time  =          0 seconds =       0.00 minutes
Total time:
	user time   =      79.44 seconds =       1.32 minutes
	system time =      92.65 seconds =       1.54 minutes
	total time  =         16 seconds =       0.27 minutes

*** tstart() called on Joses-MacBook-Pro-2.local
*** at Wed Jul 16 18:30:28 2025

         ------------------------------------------------------------
                                   SCF GRAD
                          Rob Parrish, Justin Turney,
                       Andy Simmonett, and Alex Sokolov
         ------------------------------------------------------------

  ==> Geometry <==

    Molecular point group: c2v
    Full point group: C_inf_v

    Geometry (in Angstrom), charge = 0, multiplicity = 5:

       Center              X                  Y                   Z               Mass
    ------------   -----------------  -----------------  -----------------  -----------------
         LI           0.000000000000     0.000000000000     2.884854325493     7.016003436600
         N            0.000000000000     0.000000000000    -1.445407476626    14.003074004430

  Nuclear repulsion =    2.566293201633015

  ==> Basis Set <==

  Basis Set: CC-PVDZ
    Blend: CC-PVDZ
    Number of shells: 12
    Number of basis functions: 28
    Number of Cartesian functions: 30
    Spherical Harmonics?: true
    Max angular momentum: 2

  ==> DFJKGrad: Density-Fitted SCF Gradients <==

    Gradient:                    1
    J tasked:                  Yes
    K tasked:                  Yes
    wK tasked:                  No
    OpenMP threads:              1
    Integrals threads:           1
    Memory [MiB]:              375
    Schwarz Cutoff:          1E-12
    Fitting Condition:       1E-10

   => Auxiliary Basis Set <=

  Basis Set: (CC-PVDZ AUX)
    Blend: CC-PVDZ-JKFIT + DEF2-UNIVERSAL-JKFIT
    Number of shells: 41
    Number of basis functions: 121
    Number of Cartesian functions: 141
    Spherical Harmonics?: true
    Max angular momentum: 3

  ==> DFT Potential <==

   => LibXC <=

    Version 6.2.2
    S. Lehtola, C. Steigemann, M. J.T. Oliveira, and M. A.L. Marques.,  SoftwareX 7, 1â€“5 (2018) (10.1016/j.softx.2017.11.002)

   => Composite Functional: B3LYP <=

    B3LYP Hyb-GGA Exchange-Correlation Functional

    P. J. Stephens, F. J. Devlin, C. F. Chabalowski, and M. J. Frisch.,  J. Phys. Chem. 98, 11623 (1994) (10.1021/j100096a001)

    Deriv               =              1
    GGA                 =           TRUE
    Meta                =          FALSE

    Exchange Hybrid     =           TRUE
    MP2 Hybrid          =          FALSE

   => Exchange Functionals <=

    0.0800   Slater exchange
    0.7200         Becke 88

   => Exact (HF) Exchange <=

    0.2000               HF

   => Correlation Functionals <=

    0.1900   Vosko, Wilk & Nusair (VWN5_RPA)
    0.8100   Lee, Yang & Parr

   => LibXC Density Thresholds  <==

    XC_HYB_GGA_XC_B3LYP:  1.00E-15

   => Molecular Quadrature <=

    Radial Scheme          =       TREUTLER
    Pruning Scheme         =           NONE
    Nuclear Scheme         =       TREUTLER

    Blocking Scheme        =         OCTREE
    BS radius alpha        =              1
    Pruning alpha          =              1
    Radial Points          =             75
    Spherical Points       =            302
    Total Points           =          44418
    Total Blocks           =            446
    Max Points             =            255
    Max Functions          =             28
    Weights Tolerance      =       1.00E-15

  -Total Gradient:
     Atom            X                  Y                   Z
    ------   -----------------  -----------------  -----------------
       1        0.000000000000     0.000000000000    -0.000229904496
       2        0.000000000000     0.000000000000     0.000228940015

*** tstop() called on Joses-MacBook-Pro-2.local at Wed Jul 16 18:30:28 2025
Module time:
	user time   =       0.59 seconds =       0.01 minutes
	system time =       0.92 seconds =       0.02 minutes
	total time  =          0 seconds =       0.00 minutes
Total time:
	user time   =      80.05 seconds =       1.33 minutes
	system time =      93.57 seconds =       1.56 minutes
	total time  =         16 seconds =       0.27 minutes

    			-----------------------------------------

    			 OPTKING 3.0: for geometry optimizations

    			     By R.A. King, Bethel University

    			        with contributions from

    			    A.V. Copan, J. Cayton, A. Heide

    			-----------------------------------------

	                            ===> Fragment 1 <==

	 Z (Atomic Numbers)          Masses                          Geom
	       3.000000             7.016003          0.00000000  0.00000000  5.45158459
	       7.000000            14.003074          0.00000000  0.00000000 -2.73142427

	 - Coordinate -           - BOHR/RAD -       - ANG/DEG -
	 R(1,2)           =         8.183009           4.330262

	        --- Internal Coordinate Step in ANG or DEG, aJ/ANG or AJ/DEG ---
	-------------------------------------------------------------------------------
	           Coordinate      Previous         Force          Change          New
	           ----------      --------        ------          ------        ------
	               R(1,2)       4.33026        0.00189        0.00143       4.33169
	-------------------------------------------------------------------------------

	                                 ==> Convergence Check <==

	Measures of convergence in internal coordinates in au.

	Criteria marked as inactive (o), active & met (*), and active & unmet ( ).

	----------------------------------------------------------------------------------------------
	   Step    Total Energy     Delta E     Max Force     RMS Force      Max Disp      RMS Disp
	----------------------------------------------------------------------------------------------
	  Convergence Criteria     1.00e-06 *    3.00e-04 *             o    1.20e-03 *             o
	----------------------------------------------------------------------------------------------
	    22     -62.08069600   -6.41e-07 *    2.29e-04 *    2.29e-04 o    2.71e-03      2.71e-03 o  ~
	----------------------------------------------------------------------------------------------

Next Geometry in Ang
	Fragment 1 (Ang)

	   Li   0.0000000000   0.0000000000   2.8855704483
	    N   0.0000000000   0.0000000000  -1.4461235995

    Final optimized geometry and variables:
    Molecular point group: c2v
    Full point group: C_inf_v

    Geometry (in Angstrom), charge = 0, multiplicity = 5:

    LI           0.000000000000     0.000000000000     2.884854325493
    N            0.000000000000     0.000000000000    -1.445407476626

    Psi4 stopped on: Wednesday, 16 July 2025 06:30PM
    Psi4 wall time for execution: 0:00:16.93

*** Psi4 exiting successfully. Buy a developer a beer!
