                               Psi4 1.9.1 release

  ==> Input File <==

--------------------------------------------------------------------------
molecule {
0 5
N   0.00000        0.60000        0.00000
F   0.00000       -0.60000        0.00000
}

set {
basis              cc-pvdz
reference          uks
maxiter            500
geom_maxiter       500
DAMPING_PERCENTAGE 1
guess              SAP
}

optimize('b3lyp')
--------------------------------------------------------------------------

    Molecular point group: c2v
  Charge       = 0
  Multiplicity = 5
  Basis Set: CC-PVDZ
    Blend: CC-PVDZ
  Basis Set: (CC-PVDZ AUX)
    Blend: CC-PVDZ-JKFIT
  @DF-UKS Final Energy:  -153.90966729706244
    Total Energy =                       -153.9096672970624411
 Dipole X            :          0.0000000            0.0000000            0.0000000
 Dipole Y            :          0.0000000            0.0000000            0.0000000
 Dipole Z            :         -0.3764188            0.4783305            0.1019117
 Magnitude           :                                                    0.1019117
    Molecular point group: c2v
  Basis Set: CC-PVDZ
    Blend: CC-PVDZ
  Basis Set: (CC-PVDZ AUX)
    Blend: CC-PVDZ-JKFIT
  Basis Set: CC-PVDZ
    Blend: CC-PVDZ
  Basis Set: (CC-PVDZ AUX)
    Blend: CC-PVDZ-JKFIT
  @DF-UKS Final Energy:  -154.15022155190286
    Total Energy =                       -154.1502215519028596
  Basis Set: CC-PVDZ
    Blend: CC-PVDZ
  Basis Set: (CC-PVDZ AUX)
    Blend: CC-PVDZ-JKFIT
  Basis Set: CC-PVDZ
    Blend: CC-PVDZ
  @DF-UKS Final Energy:  -154.22935568653315
    Total Energy =                       -154.2293556865331254
  @DF-UKS Final Energy:  -154.27202944961945
    Total Energy =                       -154.2720294496194526
  @DF-UKS Final Energy:  -154.29405324869589
    Total Energy =                       -154.2940532486958887
  @DF-UKS Final Energy:  -154.30504480828677
    Total Energy =                       -154.3050448082867661
  @DF-UKS Final Energy:  -154.31053378393483
    Total Energy =                       -154.3105337839348294
  @DF-UKS Final Energy:  -154.31328993210968
    Total Energy =                       -154.3132899321096545
  @DF-UKS Final Energy:  -154.31464103339530
    Total Energy =                       -154.3146410333953042
  @DF-UKS Final Energy:  -154.31527489073289
    Total Energy =                       -154.3152748907328942
  @DF-UKS Final Energy:  -154.31555528481684
    Total Energy =                       -154.3155552848168384
  @DF-UKS Final Energy:  -154.31567131211983
    Total Energy =                       -154.3156713121198322
  @DF-UKS Final Energy:  -154.31570725679470
    Total Energy =                       -154.3157072567947239
  @DF-UKS Final Energy:  -154.31572635570788
    Total Energy =                       -154.3157263557078807
  @DF-UKS Final Energy:  -154.31573314519733
    Total Energy =                       -154.3157331451972993
  @DF-UKS Final Energy:  -154.31573753976133
    Total Energy =                       -154.3157375397613293
  @DF-UKS Final Energy:  -154.31573945299880
    Total Energy =                       -154.3157394529987982
  Basis Set: (CC-PVDZ AUX)
    Blend: CC-PVDZ-JKFIT
  Basis Set: CC-PVDZ
    Blend: CC-PVDZ
  Basis Set: (CC-PVDZ AUX)
    Blend: CC-PVDZ-JKFIT
  @DF-UKS Final Energy:  -154.31574060160844
    Total Energy =                       -154.3157406016084678
  Basis Set: CC-PVDZ
    Blend: CC-PVDZ
  Basis Set: (CC-PVDZ AUX)
    Blend: CC-PVDZ-JKFIT
  Charge       = 0
  Multiplicity = 5
  Basis Set: CC-PVDZ
    Blend: CC-PVDZ
  Basis Set: (CC-PVDZ AUX)
    Blend: CC-PVDZ-JKFIT

    Orbital Energies [Eh]
    ---------------------

    Alpha Occupied:

       1A1   -24.780727     2A1   -14.436891     3A1    -1.210767
       4A1    -0.804047     5A1    -0.538191     1B2    -0.448799
       1B1    -0.448799     6A1    -0.346719     2B1    -0.346445
       2B2    -0.346445

    Alpha Virtual:

       7A1     0.648462     3B2     0.655880     3B1     0.655880
       8A1     0.768071     9A1     1.051712     4B2     1.091826
       4B1     1.091826    10A1     1.426304    11A1     1.676716
       5B2     1.676801     5B1     1.676801    12A1     1.677054
       1A2     1.677062    13A1     3.439728     6B2     3.461584
       6B1     3.461584     2A2     3.531042    14A1     3.531099

    Beta Occupied:

       1A1   -24.750065     2A1   -14.380630     3A1    -1.119934
       4A1    -0.607020     1B2    -0.417451     1B1    -0.417451

    Beta Virtual:

       5A1    -0.244699     6A1    -0.092522     2B1    -0.092222
       2B2    -0.092222     7A1     0.756407     3B1     0.763763
       3B2     0.763763     8A1     0.867801     4B2     1.109751
       4B1     1.109751     9A1     1.161807    10A1     1.473575
      11A1     1.824303     5B2     1.824411     5B1     1.824411
      12A1     1.824695     1A2     1.824704     2A2     3.546200
      13A1     3.546252     6B2     3.556657     6B1     3.556657
      14A1     3.576204

    Final Occupation by Irrep:
             A1    A2    B1    B2
    DOCC [     4,    0,    1,    1 ]
    SOCC [     2,    0,    1,    1 ]
    NA   [     6,    0,    2,    2 ]
    NB   [     4,    0,    1,    1 ]

  @DF-UKS Final Energy:  -154.31574124700867

   => Energetics <=

    Nuclear Repulsion Energy =              9.8087168036421399
    One-Electron Energy =                -232.8818019697089596
    Two-Electron Energy =                  82.6339083959505132
    DFT Exchange-Correlation Energy =     -13.8765644768923462
    Empirical Dispersion Energy =           0.0000000000000000
    VV10 Nonlocal Energy =                  0.0000000000000000
    Total Energy =                       -154.3157412470086740

  UHF NO Occupations:
  HONO-2 :    2 B1 1.0000000
  HONO-1 :    2 B2 1.0000000
  HONO-0 :    6 A1 1.0000000
  LUNO+0 :    7 A1 0.0009782
  LUNO+1 :    8 A1 0.0003068
  LUNO+2 :    3 B1 0.0000551
  LUNO+3 :    3 B2 0.0000551

Computation Completed

Properties will be evaluated at   0.000000,   0.000000,   0.000000 [a0]

Properties computed using the SCF density matrix

 Multipole Moments:

 ------------------------------------------------------------------------------------
     Multipole            Electronic (a.u.)      Nuclear  (a.u.)        Total (a.u.)
 ------------------------------------------------------------------------------------

 L = 1.  Multiply by 2.5417464519 to convert [e a0] to [Debye]
 Dipole X            :          0.0000000            0.0000000            0.0000000
 Dipole Y            :          0.0000000            0.0000000            0.0000000
 Dipole Z            :         -1.3504911            1.3548036            0.0043125
 Magnitude           :                                                    0.0043125

 ------------------------------------------------------------------------------------

*** tstop() called on Joses-MacBook-Pro-2.local at Wed Jul 16 19:08:23 2025
Module time:
	user time   =       3.68 seconds =       0.06 minutes
	system time =       1.93 seconds =       0.03 minutes
	total time  =          0 seconds =       0.00 minutes
Total time:
	user time   =     100.52 seconds =       1.68 minutes
	system time =      74.90 seconds =       1.25 minutes
	total time  =         17 seconds =       0.28 minutes

*** tstart() called on Joses-MacBook-Pro-2.local
*** at Wed Jul 16 19:08:23 2025

         ------------------------------------------------------------
                                   SCF GRAD
                          Rob Parrish, Justin Turney,
                       Andy Simmonett, and Alex Sokolov
         ------------------------------------------------------------

  ==> Geometry <==

    Molecular point group: c2v
    Full point group: C_inf_v

    Geometry (in Angstrom), charge = 0, multiplicity = 5:

       Center              X                  Y                   Z               Mass
    ------------   -----------------  -----------------  -----------------  -----------------
         N            0.000000000000     0.000000000000     1.956650266314    14.003074004430
         F            0.000000000000     0.000000000000    -1.442180074046    18.998403162730

  Nuclear repulsion =    9.808716803642140

  ==> Basis Set <==

  Basis Set: CC-PVDZ
    Blend: CC-PVDZ
    Number of shells: 12
    Number of basis functions: 28
    Number of Cartesian functions: 30
    Spherical Harmonics?: true
    Max angular momentum: 2

  ==> DFJKGrad: Density-Fitted SCF Gradients <==

    Gradient:                    1
    J tasked:                  Yes
    K tasked:                  Yes
    wK tasked:                  No
    OpenMP threads:              1
    Integrals threads:           1
    Memory [MiB]:              375
    Schwarz Cutoff:          1E-12
    Fitting Condition:       1E-10

   => Auxiliary Basis Set <=

  Basis Set: (CC-PVDZ AUX)
    Blend: CC-PVDZ-JKFIT
    Number of shells: 48
    Number of basis functions: 140
    Number of Cartesian functions: 162
    Spherical Harmonics?: true
    Max angular momentum: 3

  ==> DFT Potential <==

   => LibXC <=

    Version 6.2.2
    S. Lehtola, C. Steigemann, M. J.T. Oliveira, and M. A.L. Marques.,  SoftwareX 7, 1â€“5 (2018) (10.1016/j.softx.2017.11.002)

   => Composite Functional: B3LYP <=

    B3LYP Hyb-GGA Exchange-Correlation Functional

    P. J. Stephens, F. J. Devlin, C. F. Chabalowski, and M. J. Frisch.,  J. Phys. Chem. 98, 11623 (1994) (10.1021/j100096a001)

    Deriv               =              1
    GGA                 =           TRUE
    Meta                =          FALSE

    Exchange Hybrid     =           TRUE
    MP2 Hybrid          =          FALSE

   => Exchange Functionals <=

    0.0800   Slater exchange
    0.7200         Becke 88

   => Exact (HF) Exchange <=

    0.2000               HF

   => Correlation Functionals <=

    0.1900   Vosko, Wilk & Nusair (VWN5_RPA)
    0.8100   Lee, Yang & Parr

   => LibXC Density Thresholds  <==

    XC_HYB_GGA_XC_B3LYP:  1.00E-15

   => Molecular Quadrature <=

    Radial Scheme          =       TREUTLER
    Pruning Scheme         =           NONE
    Nuclear Scheme         =       TREUTLER

    Blocking Scheme        =         OCTREE
    BS radius alpha        =              1
    Pruning alpha          =              1
    Radial Points          =             75
    Spherical Points       =            302
    Total Points           =          42688
    Total Blocks           =            384
    Max Points             =            256
    Max Functions          =             28
    Weights Tolerance      =       1.00E-15

  -Total Gradient:
     Atom            X                  Y                   Z
    ------   -----------------  -----------------  -----------------
       1       -0.000000000000     0.000000000000    -0.000005202478
       2        0.000000000000     0.000000000000     0.000012264511

*** tstop() called on Joses-MacBook-Pro-2.local at Wed Jul 16 19:08:24 2025
Module time:
	user time   =       1.03 seconds =       0.02 minutes
	system time =       0.96 seconds =       0.02 minutes
	total time  =          1 seconds =       0.02 minutes
Total time:
	user time   =     101.55 seconds =       1.69 minutes
	system time =      75.87 seconds =       1.26 minutes
	total time  =         18 seconds =       0.30 minutes

    			-----------------------------------------

    			 OPTKING 3.0: for geometry optimizations

    			     By R.A. King, Bethel University

    			        with contributions from

    			    A.V. Copan, J. Cayton, A. Heide

    			-----------------------------------------

	                            ===> Fragment 1 <==

	 Z (Atomic Numbers)          Masses                          Geom
	       7.000000            14.003074          0.00000000  0.00000000  3.69753313
	       9.000000            18.998403          0.00000000  0.00000000 -2.72532536

	 - Coordinate -           - BOHR/RAD -       - ANG/DEG -
	 R(1,2)           =         6.422858           3.398830

	        --- Internal Coordinate Step in ANG or DEG, aJ/ANG or AJ/DEG ---
	-------------------------------------------------------------------------------
	           Coordinate      Previous         Force          Change          New
	           ----------      --------        ------          ------        ------
	               R(1,2)       3.39883        0.00007        0.01842       3.41725
	-------------------------------------------------------------------------------

	                                 ==> Convergence Check <==

	Measures of convergence in internal coordinates in au.

	Criteria marked as inactive (o), active & met (*), and active & unmet ( ).

	----------------------------------------------------------------------------------------------
	   Step    Total Energy     Delta E     Max Force     RMS Force      Max Disp      RMS Disp
	----------------------------------------------------------------------------------------------
	  Convergence Criteria     1.00e-06 *    3.00e-04 *             o    1.20e-03 *             o
	----------------------------------------------------------------------------------------------
	    19    -154.31574125   -6.45e-07 *    8.73e-06 *    8.73e-06 o    3.48e-02      3.48e-02 o  ~
	----------------------------------------------------------------------------------------------

Next Geometry in Ang
	Fragment 1 (Ang)

	    N   0.0000000000   0.0000000000   1.9658624724
	    F   0.0000000000   0.0000000000  -1.4513922801

    Final optimized geometry and variables:
    Molecular point group: c2v
    Full point group: C_inf_v

    Geometry (in Angstrom), charge = 0, multiplicity = 5:

    N            0.000000000000     0.000000000000     1.956650266314
    F            0.000000000000     0.000000000000    -1.442180074046

    Psi4 stopped on: Wednesday, 16 July 2025 07:08PM
    Psi4 wall time for execution: 0:00:18.50

*** Psi4 exiting successfully. Buy a developer a beer!
