                               Psi4 1.9.1 release

  ==> Input File <==

--------------------------------------------------------------------------
molecule {
0 5
Na   0.00000        0.60000        0.00000
Cl   0.00000       -0.60000        0.00000
}

set {
basis              cc-pvdz
reference          uks
maxiter            500
geom_maxiter       500
DAMPING_PERCENTAGE 1
guess              SAP
}

optimize('b3lyp')
--------------------------------------------------------------------------

    Molecular point group: c2v
  Charge       = 0
  Multiplicity = 5
  Basis Set: CC-PVDZ
    Blend: CC-PVDZ
  Basis Set: (CC-PVDZ AUX)
    Blend: CC-PVDZ-JKFIT + DEF2-UNIVERSAL-JKFIT
  @DF-UKS Final Energy:  -620.99068168108931
    Total Energy =                       -620.9906816810893133
 Dipole X            :          0.0000000            0.0000000            0.0000000
 Dipole Y            :          0.0000000            0.0000000            0.0000000
 Dipole Z            :         -1.5675748           -0.2413546           -1.8089294
 Magnitude           :                                                    1.8089294
    Molecular point group: c2v
  Basis Set: CC-PVDZ
    Blend: CC-PVDZ
  Basis Set: (CC-PVDZ AUX)
    Blend: CC-PVDZ-JKFIT + DEF2-UNIVERSAL-JKFIT
  Basis Set: CC-PVDZ
    Blend: CC-PVDZ
  Basis Set: (CC-PVDZ AUX)
    Blend: CC-PVDZ-JKFIT + DEF2-UNIVERSAL-JKFIT
  @DF-UKS Final Energy:  -621.00740500325719
    Total Energy =                       -621.0074050032571904
  Basis Set: CC-PVDZ
    Blend: CC-PVDZ
  Basis Set: (CC-PVDZ AUX)
    Blend: CC-PVDZ-JKFIT + DEF2-UNIVERSAL-JKFIT
  Basis Set: CC-PVDZ
    Blend: CC-PVDZ
  @DF-UKS Final Energy:  -621.03951298568040
    Total Energy =                       -621.0395129856804033
  @DF-UKS Final Energy:  -621.15416393471799
    Total Energy =                       -621.1541639347178716
  @DF-UKS Final Energy:  -621.61084656244952
    Total Energy =                       -621.6108465624495238
  @DF-UKS Final Energy:  -621.79201367863720
    Total Energy =                       -621.7920136786370904
  @DF-UKS Final Energy:  -621.90603921108254
    Total Energy =                       -621.9060392110826569
  @DF-UKS Final Energy:  -621.97302703553021
    Total Energy =                       -621.9730270355302082
  @DF-UKS Final Energy:  -622.01374972442329
    Total Energy =                       -622.0137497244232918
  @DF-UKS Final Energy:  -622.04082929482240
    Total Energy =                       -622.0408292948225153
  @DF-UKS Final Energy:  -622.05937429246887
    Total Energy =                       -622.0593742924687604
  @DF-UKS Final Energy:  -622.07087035859456
    Total Energy =                       -622.0708703585944477
  @DF-UKS Final Energy:  -622.07129766505886
    Total Energy =                       -622.0712976650588644
  @DF-UKS Final Energy:  -622.07694688410584
    Total Energy =                       -622.0769468841058369
  @DF-UKS Final Energy:  -622.07702441921606
    Total Energy =                       -622.0770244192160590
  @DF-UKS Final Energy:  -622.07838321148404
    Total Energy =                       -622.0783832114841516
  @DF-UKS Final Energy:  -622.07848006083509
    Total Energy =                       -622.0784800608350906
  Basis Set: (CC-PVDZ AUX)
    Blend: CC-PVDZ-JKFIT + DEF2-UNIVERSAL-JKFIT
  Basis Set: CC-PVDZ
    Blend: CC-PVDZ
  Basis Set: (CC-PVDZ AUX)
    Blend: CC-PVDZ-JKFIT + DEF2-UNIVERSAL-JKFIT
  @DF-UKS Final Energy:  -622.07848312128101
    Total Energy =                       -622.0784831212810104
  Basis Set: CC-PVDZ
    Blend: CC-PVDZ
  Basis Set: (CC-PVDZ AUX)
    Blend: CC-PVDZ-JKFIT + DEF2-UNIVERSAL-JKFIT
  Charge       = 0
  Multiplicity = 5
  Basis Set: CC-PVDZ
    Blend: CC-PVDZ
  Basis Set: (CC-PVDZ AUX)
    Blend: CC-PVDZ-JKFIT + DEF2-UNIVERSAL-JKFIT

    Orbital Energies [Eh]
    ---------------------

    Alpha Occupied:

       1A1  -101.917568     2A1   -38.463441     3A1    -9.823549
       1B1    -7.592787     4A1    -7.592783     1B2    -7.566457
       5A1    -2.210189     6A1    -1.142468     2B1    -1.141438
       2B2    -1.139871     7A1    -1.133133     3B1    -0.656815
       8A1    -0.656368     3B2    -0.596854     9A1    -0.137162
       4B2    -0.055713

    Alpha Virtual:

      10A1    -0.028499     4B1    -0.020534    11A1     0.023602
       5B2     0.069121    12A1     0.077160     5B1     0.079250
       6B2     0.149384     6B1     0.153950    13A1     0.160863
       1A2     0.168302    14A1     0.174438     7B1     0.336155
      15A1     0.342974     7B2     0.369335     8B1     0.392448
      16A1     0.394180     2A2     0.418088     8B2     0.434136
      17A1     0.437264    18A1     0.598035

    Beta Occupied:

       1A1  -101.902002     2A1   -38.461846     3A1    -9.808177
       1B1    -7.563529     4A1    -7.563337     1B2    -7.556968
       5A1    -2.207224     6A1    -1.140310     2B1    -1.139774
       2B2    -1.136833     7A1    -1.019378     3B2    -0.561250

    Beta Virtual:

       3B1    -0.465788     8A1    -0.464885     9A1    -0.061859
      10A1    -0.014771     4B1     0.005865     4B2     0.012717
      11A1     0.058941    12A1     0.090424     5B1     0.097352
       5B2     0.107011     6B1     0.174653     6B2     0.183775
      13A1     0.185617     1A2     0.206996    14A1     0.210170
       7B2     0.387475     7B1     0.387523    15A1     0.397463
       2A2     0.487290    16A1     0.492961     8B2     0.500605
      17A1     0.503634     8B1     0.512006    18A1     0.646548

    Final Occupation by Irrep:
             A1    A2    B1    B2
    DOCC [     7,    0,    2,    3 ]
    SOCC [     2,    0,    1,    1 ]
    NA   [     9,    0,    3,    4 ]
    NB   [     7,    0,    2,    3 ]

  @DF-UKS Final Energy:  -622.07848318776257

   => Energetics <=

    Nuclear Repulsion Energy =             27.8288839588363430
    One-Electron Energy =                -913.5902620521935660
    Two-Electron Energy =                 297.8600509915415273
    DFT Exchange-Correlation Energy =     -34.1771560859469119
    Empirical Dispersion Energy =           0.0000000000000000
    VV10 Nonlocal Energy =                  0.0000000000000000
    Total Energy =                       -622.0784831877625720

  UHF NO Occupations:
  HONO-2 :    3 B1 1.0000000
  HONO-1 :    4 B2 1.0000000
  HONO-0 :    9 A1 1.0000000
  LUNO+0 :   10 A1 0.0009859
  LUNO+1 :    5 B2 0.0001284
  LUNO+2 :   11 A1 0.0000007
  LUNO+3 :    4 B1 0.0000004

Computation Completed

Properties will be evaluated at   0.000000,   0.000000,   0.000000 [a0]

Properties computed using the SCF density matrix

 Multipole Moments:

 ------------------------------------------------------------------------------------
     Multipole            Electronic (a.u.)      Nuclear  (a.u.)        Total (a.u.)
 ------------------------------------------------------------------------------------

 L = 1.  Multiply by 2.5417464519 to convert [e a0] to [Debye]
 Dipole X            :          0.0000000            0.0000000            0.0000000
 Dipole Y            :          0.0000000            0.0000000            0.0000000
 Dipole Z            :         -3.5781818           -0.7151898           -4.2933715
 Magnitude           :                                                    4.2933715

 ------------------------------------------------------------------------------------

*** tstop() called on Joses-MacBook-Pro-2.local at Wed Jul 16 19:51:45 2025
Module time:
	user time   =       5.83 seconds =       0.10 minutes
	system time =       2.27 seconds =       0.04 minutes
	total time  =          1 seconds =       0.02 minutes
Total time:
	user time   =     222.96 seconds =       3.72 minutes
	system time =      77.95 seconds =       1.30 minutes
	total time  =         29 seconds =       0.48 minutes

*** tstart() called on Joses-MacBook-Pro-2.local
*** at Wed Jul 16 19:51:45 2025

         ------------------------------------------------------------
                                   SCF GRAD
                          Rob Parrish, Justin Turney,
                       Andy Simmonett, and Alex Sokolov
         ------------------------------------------------------------

  ==> Geometry <==

    Molecular point group: c2v
    Full point group: C_inf_v

    Geometry (in Angstrom), charge = 0, multiplicity = 5:

       Center              X                  Y                   Z               Mass
    ------------   -----------------  -----------------  -----------------  -----------------
         NA           0.000000000000     0.000000000000     2.145409907465    22.989769282000
         CL           0.000000000000     0.000000000000    -1.410468888884    34.968852682000

  Nuclear repulsion =   27.828883958836343

  ==> Basis Set <==

  Basis Set: CC-PVDZ
    Blend: CC-PVDZ
    Number of shells: 16
    Number of basis functions: 36
    Number of Cartesian functions: 38
    Spherical Harmonics?: true
    Max angular momentum: 2

  ==> DFJKGrad: Density-Fitted SCF Gradients <==

    Gradient:                    1
    J tasked:                  Yes
    K tasked:                  Yes
    wK tasked:                  No
    OpenMP threads:              1
    Integrals threads:           1
    Memory [MiB]:              375
    Schwarz Cutoff:          1E-12
    Fitting Condition:       1E-10

   => Auxiliary Basis Set <=

  Basis Set: (CC-PVDZ AUX)
    Blend: CC-PVDZ-JKFIT + DEF2-UNIVERSAL-JKFIT
    Number of shells: 70
    Number of basis functions: 224
    Number of Cartesian functions: 267
    Spherical Harmonics?: true
    Max angular momentum: 4

  ==> DFT Potential <==

   => LibXC <=

    Version 6.2.2
    S. Lehtola, C. Steigemann, M. J.T. Oliveira, and M. A.L. Marques.,  SoftwareX 7, 1â€“5 (2018) (10.1016/j.softx.2017.11.002)

   => Composite Functional: B3LYP <=

    B3LYP Hyb-GGA Exchange-Correlation Functional

    P. J. Stephens, F. J. Devlin, C. F. Chabalowski, and M. J. Frisch.,  J. Phys. Chem. 98, 11623 (1994) (10.1021/j100096a001)

    Deriv               =              1
    GGA                 =           TRUE
    Meta                =          FALSE

    Exchange Hybrid     =           TRUE
    MP2 Hybrid          =          FALSE

   => Exchange Functionals <=

    0.0800   Slater exchange
    0.7200         Becke 88

   => Exact (HF) Exchange <=

    0.2000               HF

   => Correlation Functionals <=

    0.1900   Vosko, Wilk & Nusair (VWN5_RPA)
    0.8100   Lee, Yang & Parr

   => LibXC Density Thresholds  <==

    XC_HYB_GGA_XC_B3LYP:  1.00E-15

   => Molecular Quadrature <=

    Radial Scheme          =       TREUTLER
    Pruning Scheme         =           NONE
    Nuclear Scheme         =       TREUTLER

    Blocking Scheme        =         OCTREE
    BS radius alpha        =              1
    Pruning alpha          =              1
    Radial Points          =             75
    Spherical Points       =            302
    Total Points           =          43887
    Total Blocks           =            452
    Max Points             =            255
    Max Functions          =             36
    Weights Tolerance      =       1.00E-15

  -Total Gradient:
     Atom            X                  Y                   Z
    ------   -----------------  -----------------  -----------------
       1       -0.000000000000    -0.000000000000     0.000025475062
       2        0.000000000000    -0.000000000000     0.000029154075

*** tstop() called on Joses-MacBook-Pro-2.local at Wed Jul 16 19:51:45 2025
Module time:
	user time   =       2.57 seconds =       0.04 minutes
	system time =       1.47 seconds =       0.02 minutes
	total time  =          0 seconds =       0.00 minutes
Total time:
	user time   =     225.54 seconds =       3.76 minutes
	system time =      79.42 seconds =       1.32 minutes
	total time  =         29 seconds =       0.48 minutes

    			-----------------------------------------

    			 OPTKING 3.0: for geometry optimizations

    			     By R.A. King, Bethel University

    			        with contributions from

    			    A.V. Copan, J. Cayton, A. Heide

    			-----------------------------------------

	                            ===> Fragment 1 <==

	 Z (Atomic Numbers)          Masses                          Geom
	      11.000000            22.989769          0.00000000  0.00000000  4.05423715
	      17.000000            34.968853          0.00000000  0.00000000 -2.66539991

	 - Coordinate -           - BOHR/RAD -       - ANG/DEG -
	 R(1,2)           =         6.719637           3.555879

	        --- Internal Coordinate Step in ANG or DEG, aJ/ANG or AJ/DEG ---
	-------------------------------------------------------------------------------
	           Coordinate      Previous         Force          Change          New
	           ----------      --------        ------          ------        ------
	               R(1,2)       3.55588        0.00002        0.00010       3.55597
	-------------------------------------------------------------------------------

	                                 ==> Convergence Check <==

	Measures of convergence in internal coordinates in au.

	Criteria marked as inactive (o), active & met (*), and active & unmet ( ).

	----------------------------------------------------------------------------------------------
	   Step    Total Energy     Delta E     Max Force     RMS Force      Max Disp      RMS Disp
	----------------------------------------------------------------------------------------------
	  Convergence Criteria     1.00e-06 *    3.00e-04 *             o    1.20e-03 *             o
	----------------------------------------------------------------------------------------------
	    19    -622.07848319   -6.65e-08 *    1.84e-06 *    1.84e-06 o    1.81e-04 *    1.81e-04 o  ~
	----------------------------------------------------------------------------------------------

Next Geometry in Ang
	Fragment 1 (Ang)

	   Na   0.0000000000   0.0000000000   2.1454578790
	   Cl   0.0000000000   0.0000000000  -1.4105168604

    Final optimized geometry and variables:
    Molecular point group: c2v
    Full point group: C_inf_v

    Geometry (in Angstrom), charge = 0, multiplicity = 5:

    NA           0.000000000000     0.000000000000     2.145409907465
    CL           0.000000000000     0.000000000000    -1.410468888884

    Psi4 stopped on: Wednesday, 16 July 2025 07:51PM
    Psi4 wall time for execution: 0:00:30.52

*** Psi4 exiting successfully. Buy a developer a beer!
