                               Psi4 1.9.1 release

  ==> Input File <==

--------------------------------------------------------------------------
molecule {
0 5
N   0.00000        0.60000        0.00000
N   0.00000       -0.60000        0.00000
}

set {
basis              cc-pvdz
reference          uks
maxiter            500
geom_maxiter       500
DAMPING_PERCENTAGE 1
guess              SAP
}

optimize('b3lyp')
--------------------------------------------------------------------------

    Molecular point group: d2h
  Charge       = 0
  Multiplicity = 5
  Basis Set: CC-PVDZ
    Blend: CC-PVDZ
  Basis Set: (CC-PVDZ AUX)
    Blend: CC-PVDZ-JKFIT
  @DF-UKS Final Energy:  -109.08805885953397
    Total Energy =                       -109.0880588595339731
 Dipole X            :          0.0000000            0.0000000            0.0000000
 Dipole Y            :          0.0000000            0.0000000            0.0000000
 Dipole Z            :          0.0000000            0.0000000            0.0000000
 Magnitude           :                                                    0.0000000
    Molecular point group: d2h
  Basis Set: CC-PVDZ
    Blend: CC-PVDZ
  Basis Set: (CC-PVDZ AUX)
    Blend: CC-PVDZ-JKFIT
  Basis Set: CC-PVDZ
    Blend: CC-PVDZ
  Basis Set: (CC-PVDZ AUX)
    Blend: CC-PVDZ-JKFIT
  @DF-UKS Final Energy:  -109.14761602395002
    Total Energy =                       -109.1476160239500217
  Basis Set: CC-PVDZ
    Blend: CC-PVDZ
  Basis Set: (CC-PVDZ AUX)
    Blend: CC-PVDZ-JKFIT
  Basis Set: CC-PVDZ
    Blend: CC-PVDZ
  @DF-UKS Final Energy:  -109.15367909273284
    Total Energy =                       -109.1536790927328440
  @DF-UKS Final Energy:  -109.15541358429934
    Total Energy =                       -109.1554135842993389
  @DF-UKS Final Energy:  -109.15598216528029
    Total Energy =                       -109.1559821652802924
  @DF-UKS Final Energy:  -109.15618309757194
    Total Energy =                       -109.1561830975719403
  @DF-UKS Final Energy:  -109.15628994674775
    Total Energy =                       -109.1562899467477479
  Basis Set: (CC-PVDZ AUX)
    Blend: CC-PVDZ-JKFIT
  Basis Set: CC-PVDZ
    Blend: CC-PVDZ
  Basis Set: (CC-PVDZ AUX)
    Blend: CC-PVDZ-JKFIT
  @DF-UKS Final Energy:  -109.15630241555886
    Total Energy =                       -109.1563024155588550
  Basis Set: CC-PVDZ
    Blend: CC-PVDZ
  Basis Set: (CC-PVDZ AUX)
    Blend: CC-PVDZ-JKFIT
  Charge       = 0
  Multiplicity = 5
  Basis Set: CC-PVDZ
    Blend: CC-PVDZ
  Basis Set: (CC-PVDZ AUX)
    Blend: CC-PVDZ-JKFIT

    Orbital Energies [Eh]
    ---------------------

    Alpha Occupied:

       1Ag   -14.457922     1B2u  -14.457897     2Ag    -0.970169
       2B2u   -0.700837     3Ag    -0.452738     1B3u   -0.442715
       1B1u   -0.408536     1B1g   -0.285470     1B3g   -0.251550

    Alpha Virtual:

       3B2u    0.078329     4B2u    0.611383     2B3u    0.629236
       2B1u    0.653081     4Ag     0.695642     2B1g    0.716951
       2B3g    0.737132     5Ag     0.791147     5B2u    1.173558
       3B3u    1.384309     3B1u    1.410743     6Ag     1.584229
       1B2g    1.584612     1Au     1.769626     6B2u    1.769771
       7Ag     1.844068     3B1g    2.184810     3B3g    2.212825
       7B2u    2.680375

    Beta Occupied:

       1B2u  -14.415860     1Ag   -14.415860     2Ag    -0.850772
       2B2u   -0.531380     1B1u   -0.300470

    Beta Virtual:

       3Ag    -0.249662     1B3u   -0.201882     1B3g   -0.062888
       1B1g   -0.025703     3B2u    0.185148     4B2u    0.686346
       2B1u    0.717455     2B3u    0.734184     4Ag     0.769066
       2B3g    0.800088     2B1g    0.813124     5Ag     0.846554
       5B2u    1.238061     3B1u    1.489894     3B3u    1.503405
       1B2g    1.694355     6Ag     1.698066     1Au     1.885456
       6B2u    1.889365     7Ag     1.946848     3B3g    2.296703
       3B1g    2.305951     7B2u    2.772806

    Final Occupation by Irrep:
             Ag   B1g   B2g   B3g    Au   B1u   B2u   B3u
    DOCC [     2,    0,    0,    0,    0,    1,    2,    0 ]
    SOCC [     1,    1,    0,    1,    0,    0,    0,    1 ]
    NA   [     3,    1,    0,    1,    0,    1,    2,    1 ]
    NB   [     2,    0,    0,    0,    0,    1,    2,    0 ]

  @DF-UKS Final Energy:  -109.15630297711574

   => Energetics <=

    Nuclear Repulsion Energy =             17.4823514647445535
    One-Electron Energy =                -182.4314312268141407
    Two-Electron Energy =                  66.7782567646665512
    DFT Exchange-Correlation Energy =     -10.9854799797127161
    Empirical Dispersion Energy =           0.0000000000000000
    VV10 Nonlocal Energy =                  0.0000000000000000
    Total Energy =                       -109.1563029771157431

  UHF NO Occupations:
  HONO-2 :    3 Ag 1.0000000
  HONO-1 :    1B3u 1.0000000
  HONO-0 :    1B1g 1.0000000
  LUNO+0 :    2B1u 0.0020860
  LUNO+1 :    3B2u 0.0011435
  LUNO+2 :    4 Ag 0.0004241
  LUNO+3 :    4B2u 0.0000005

Computation Completed

Properties will be evaluated at   0.000000,   0.000000,   0.000000 [a0]

Properties computed using the SCF density matrix

 Multipole Moments:

 ------------------------------------------------------------------------------------
     Multipole            Electronic (a.u.)      Nuclear  (a.u.)        Total (a.u.)
 ------------------------------------------------------------------------------------

 L = 1.  Multiply by 2.5417464519 to convert [e a0] to [Debye]
 Dipole X            :          0.0000000            0.0000000            0.0000000
 Dipole Y            :          0.0000000            0.0000000            0.0000000
 Dipole Z            :          0.0000000            0.0000000            0.0000000
 Magnitude           :                                                    0.0000000

 ------------------------------------------------------------------------------------

*** tstop() called on Joses-MacBook-Pro-2.local at Wed Jul 16 19:07:20 2025
Module time:
	user time   =       2.44 seconds =       0.04 minutes
	system time =       2.55 seconds =       0.04 minutes
	total time  =          0 seconds =       0.00 minutes
Total time:
	user time   =      33.30 seconds =       0.55 minutes
	system time =      38.22 seconds =       0.64 minutes
	total time  =          6 seconds =       0.10 minutes

*** tstart() called on Joses-MacBook-Pro-2.local
*** at Wed Jul 16 19:07:20 2025

         ------------------------------------------------------------
                                   SCF GRAD
                          Rob Parrish, Justin Turney,
                       Andy Simmonett, and Alex Sokolov
         ------------------------------------------------------------

  ==> Geometry <==

    Molecular point group: d2h
    Full point group: D_inf_h

    Geometry (in Angstrom), charge = 0, multiplicity = 5:

       Center              X                  Y                   Z               Mass
    ------------   -----------------  -----------------  -----------------  -----------------
         N           -0.000000000000     0.741595985389     0.000000000000    14.003074004430
         N            0.000000000000    -0.741595985389     0.000000000000    14.003074004430

  Nuclear repulsion =   17.482351464744553

  ==> Basis Set <==

  Basis Set: CC-PVDZ
    Blend: CC-PVDZ
    Number of shells: 12
    Number of basis functions: 28
    Number of Cartesian functions: 30
    Spherical Harmonics?: true
    Max angular momentum: 2

  ==> DFJKGrad: Density-Fitted SCF Gradients <==

    Gradient:                    1
    J tasked:                  Yes
    K tasked:                  Yes
    wK tasked:                  No
    OpenMP threads:              1
    Integrals threads:           1
    Memory [MiB]:              375
    Schwarz Cutoff:          1E-12
    Fitting Condition:       1E-10

   => Auxiliary Basis Set <=

  Basis Set: (CC-PVDZ AUX)
    Blend: CC-PVDZ-JKFIT
    Number of shells: 48
    Number of basis functions: 140
    Number of Cartesian functions: 162
    Spherical Harmonics?: true
    Max angular momentum: 3

  ==> DFT Potential <==

   => LibXC <=

    Version 6.2.2
    S. Lehtola, C. Steigemann, M. J.T. Oliveira, and M. A.L. Marques.,  SoftwareX 7, 1â€“5 (2018) (10.1016/j.softx.2017.11.002)

   => Composite Functional: B3LYP <=

    B3LYP Hyb-GGA Exchange-Correlation Functional

    P. J. Stephens, F. J. Devlin, C. F. Chabalowski, and M. J. Frisch.,  J. Phys. Chem. 98, 11623 (1994) (10.1021/j100096a001)

    Deriv               =              1
    GGA                 =           TRUE
    Meta                =          FALSE

    Exchange Hybrid     =           TRUE
    MP2 Hybrid          =          FALSE

   => Exchange Functionals <=

    0.0800   Slater exchange
    0.7200         Becke 88

   => Exact (HF) Exchange <=

    0.2000               HF

   => Correlation Functionals <=

    0.1900   Vosko, Wilk & Nusair (VWN5_RPA)
    0.8100   Lee, Yang & Parr

   => LibXC Density Thresholds  <==

    XC_HYB_GGA_XC_B3LYP:  1.00E-15

   => Molecular Quadrature <=

    Radial Scheme          =       TREUTLER
    Pruning Scheme         =           NONE
    Nuclear Scheme         =       TREUTLER

    Blocking Scheme        =         OCTREE
    BS radius alpha        =              1
    Pruning alpha          =              1
    Radial Points          =             75
    Spherical Points       =            302
    Total Points           =          41896
    Total Blocks           =            376
    Max Points             =            256
    Max Functions          =             28
    Weights Tolerance      =       1.00E-15

  -Total Gradient:
     Atom            X                  Y                   Z
    ------   -----------------  -----------------  -----------------
       1        0.000000000000    -0.000069681011     0.000000000000
       2       -0.000000000000     0.000069681011     0.000000000000

*** tstop() called on Joses-MacBook-Pro-2.local at Wed Jul 16 19:07:20 2025
Module time:
	user time   =       0.60 seconds =       0.01 minutes
	system time =       0.93 seconds =       0.02 minutes
	total time  =          0 seconds =       0.00 minutes
Total time:
	user time   =      33.91 seconds =       0.57 minutes
	system time =      39.15 seconds =       0.65 minutes
	total time  =          6 seconds =       0.10 minutes

    			-----------------------------------------

    			 OPTKING 3.0: for geometry optimizations

    			     By R.A. King, Bethel University

    			        with contributions from

    			    A.V. Copan, J. Cayton, A. Heide

    			-----------------------------------------

	                            ===> Fragment 1 <==

	 Z (Atomic Numbers)          Masses                          Geom
	       7.000000            14.003074         -0.00000000  1.40141331  0.00000000
	       7.000000            14.003074          0.00000000 -1.40141331  0.00000000

	 - Coordinate -           - BOHR/RAD -       - ANG/DEG -
	 R(1,2)           =         2.802827           1.483192

	        --- Internal Coordinate Step in ANG or DEG, aJ/ANG or AJ/DEG ---
	-------------------------------------------------------------------------------
	           Coordinate      Previous         Force          Change          New
	           ----------      --------        ------          ------        ------
	               R(1,2)       1.48319        0.00057        0.00014       1.48333
	-------------------------------------------------------------------------------

	                                 ==> Convergence Check <==

	Measures of convergence in internal coordinates in au.

	Criteria marked as inactive (o), active & met (*), and active & unmet ( ).

	----------------------------------------------------------------------------------------------
	   Step    Total Energy     Delta E     Max Force     RMS Force      Max Disp      RMS Disp
	----------------------------------------------------------------------------------------------
	  Convergence Criteria     1.00e-06 *    3.00e-04 *             o    1.20e-03 *             o
	----------------------------------------------------------------------------------------------
	     9    -109.15630298   -5.62e-07 *    6.97e-05 *    6.97e-05 o    2.64e-04 *    2.64e-04 o  ~
	----------------------------------------------------------------------------------------------

Next Geometry in Ang
	Fragment 1 (Ang)

	    N  -0.0000000000   0.7416657548   0.0000000000
	    N   0.0000000000  -0.7416657548   0.0000000000

    Final optimized geometry and variables:
    Molecular point group: d2h
    Full point group: D_inf_h

    Geometry (in Angstrom), charge = 0, multiplicity = 5:

    N           -0.000000000000     0.741595985389     0.000000000000
    N            0.000000000000    -0.741595985389     0.000000000000

    Psi4 stopped on: Wednesday, 16 July 2025 07:07PM
    Psi4 wall time for execution: 0:00:07.48

*** Psi4 exiting successfully. Buy a developer a beer!
