                               Psi4 1.9.1 release

  ==> Input File <==

--------------------------------------------------------------------------
molecule {
0 5
N   0.00000        0.60000        0.00000
Cl   0.00000       -0.60000        0.00000
}

set {
basis              cc-pvdz
reference          uks
maxiter            500
geom_maxiter       500
DAMPING_PERCENTAGE 1
guess              SAP
}

optimize('b3lyp')
--------------------------------------------------------------------------

    Molecular point group: c2v
  Charge       = 0
  Multiplicity = 5
  Basis Set: CC-PVDZ
    Blend: CC-PVDZ
  Basis Set: (CC-PVDZ AUX)
    Blend: CC-PVDZ-JKFIT
  @DF-UKS Final Energy:  -514.16005494520186
    Total Energy =                       -514.1600549452018640
 Dipole X            :          0.0000000            0.0000000            0.0000000
 Dipole Y            :          0.0000000            0.0000000            0.0000000
 Dipole Z            :          0.5777671            0.3116229            0.8893900
 Magnitude           :                                                    0.8893900
    Molecular point group: c2v
  Basis Set: CC-PVDZ
    Blend: CC-PVDZ
  Basis Set: (CC-PVDZ AUX)
    Blend: CC-PVDZ-JKFIT
  Basis Set: CC-PVDZ
    Blend: CC-PVDZ
  Basis Set: (CC-PVDZ AUX)
    Blend: CC-PVDZ-JKFIT
  @DF-UKS Final Energy:  -514.34376025227823
    Total Energy =                       -514.3437602522782299
  Basis Set: CC-PVDZ
    Blend: CC-PVDZ
  Basis Set: (CC-PVDZ AUX)
    Blend: CC-PVDZ-JKFIT
  Basis Set: CC-PVDZ
    Blend: CC-PVDZ
  @DF-UKS Final Energy:  -514.46328900074764
    Total Energy =                       -514.4632890007476362
  @DF-UKS Final Energy:  -514.54424867899183
    Total Energy =                       -514.5442486789918348
  @DF-UKS Final Energy:  -514.64829732196813
    Total Energy =                       -514.6482973219681298
  @DF-UKS Final Energy:  -514.67346943426901
    Total Energy =                       -514.6734694342690091
  @DF-UKS Final Energy:  -514.71363601720736
    Total Energy =                       -514.7136360172073637
  @DF-UKS Final Energy:  -514.73049331636560
    Total Energy =                       -514.7304933163655960
  @DF-UKS Final Energy:  -514.73914488018170
    Total Energy =                       -514.7391448801816978
  @DF-UKS Final Energy:  -514.74335865850480
    Total Energy =                       -514.7433586585046896
  @DF-UKS Final Energy:  -514.74546056377255
    Total Energy =                       -514.7454605637725535
  @DF-UKS Final Energy:  -514.74651065431010
    Total Energy =                       -514.7465106543101001
  @DF-UKS Final Energy:  -514.74703360816932
    Total Energy =                       -514.7470336081693176
  @DF-UKS Final Energy:  -514.74729329097079
    Total Energy =                       -514.7472932909707879
  @DF-UKS Final Energy:  -514.74742296563431
    Total Energy =                       -514.7474229656343141
  @DF-UKS Final Energy:  -514.74748907750165
    Total Energy =                       -514.7474890775016547
  @DF-UKS Final Energy:  -514.74752743479553
    Total Energy =                       -514.7475274347955292
  @DF-UKS Final Energy:  -514.74755275334292
    Total Energy =                       -514.7475527533429158
  Basis Set: (CC-PVDZ AUX)
    Blend: CC-PVDZ-JKFIT
  Basis Set: CC-PVDZ
    Blend: CC-PVDZ
  Basis Set: (CC-PVDZ AUX)
    Blend: CC-PVDZ-JKFIT
  @DF-UKS Final Energy:  -514.74757471602334
    Total Energy =                       -514.7475747160233368
  Basis Set: CC-PVDZ
    Blend: CC-PVDZ
  Basis Set: (CC-PVDZ AUX)
    Blend: CC-PVDZ-JKFIT
  Charge       = 0
  Multiplicity = 5
  Basis Set: CC-PVDZ
    Blend: CC-PVDZ
  Basis Set: (CC-PVDZ AUX)
    Blend: CC-PVDZ-JKFIT

    Orbital Energies [Eh]
    ---------------------

    Alpha Occupied:

       1A1  -101.590993     2A1   -14.436728     3A1    -9.505073
       4A1    -7.278894     1B2    -7.255265     1B1    -7.255265
       5A1    -0.842433     6A1    -0.803846     7A1    -0.404544
       2B2    -0.349084     2B1    -0.349084     8A1    -0.346522
       3B1    -0.346335     3B2    -0.346335

    Alpha Virtual:

       9A1     0.496075     4B1     0.530252     4B2     0.530252
      10A1     0.576947    11A1     0.654585     5B2     0.655950
       5B1     0.655950    12A1     0.656764     6B2     0.667751
       6B1     0.667751     1A2     0.711880    13A1     0.711881
      14A1     0.770798    15A1     1.676987     7B2     1.676998
       7B1     1.676998     2A2     1.677125    16A1     1.677188

    Beta Occupied:

       1A1  -101.584278     2A1   -14.380484     3A1    -9.498440
       4A1    -7.256981     1B2    -7.251288     1B1    -7.251288
       5A1    -0.789079     6A1    -0.606814     2B2    -0.333157
       2B1    -0.333157

    Beta Virtual:

       7A1    -0.242650     8A1    -0.092439     3B2    -0.092153
       3B1    -0.092153     4B1     0.537577     4B2     0.537577
       9A1     0.542380    10A1     0.597790     1A2     0.720178
      11A1     0.720178     5B2     0.725426     5B1     0.725426
      12A1     0.734509     6B2     0.763874     6B1     0.763874
      13A1     0.764238    14A1     0.870418    15A1     1.824591
       7B2     1.824611     7B1     1.824611     2A2     1.824751
      16A1     1.824805

    Final Occupation by Irrep:
             A1    A2    B1    B2
    DOCC [     6,    0,    2,    2 ]
    SOCC [     2,    0,    1,    1 ]
    NA   [     8,    0,    3,    3 ]
    NB   [     6,    0,    2,    2 ]

  @DF-UKS Final Energy:  -514.74759533295082

   => Energetics <=

    Nuclear Repulsion Energy =             13.1244817731268419
    One-Electron Energy =                -735.2590298014283690
    Two-Electron Energy =                 235.5888839960141468
    DFT Exchange-Correlation Energy =     -28.2019313006634675
    Empirical Dispersion Energy =           0.0000000000000000
    VV10 Nonlocal Energy =                  0.0000000000000000
    Total Energy =                       -514.7475953329508229

  UHF NO Occupations:
  HONO-2 :    3 B1 1.0000000
  HONO-1 :    7 A1 1.0000000
  HONO-0 :    8 A1 1.0000000
  LUNO+0 :    9 A1 0.0009740
  LUNO+1 :   10 A1 0.0008608
  LUNO+2 :    4 B1 0.0000259
  LUNO+3 :    4 B2 0.0000259

Computation Completed

Properties will be evaluated at   0.000000,   0.000000,   0.000000 [a0]

Properties computed using the SCF density matrix

 Multipole Moments:

 ------------------------------------------------------------------------------------
     Multipole            Electronic (a.u.)      Nuclear  (a.u.)        Total (a.u.)
 ------------------------------------------------------------------------------------

 L = 1.  Multiply by 2.5417464519 to convert [e a0] to [Debye]
 Dipole X            :          0.0000000            0.0000000            0.0000000
 Dipole Y            :          0.0000000            0.0000000            0.0000000
 Dipole Z            :         -1.2431918            1.2459884            0.0027966
 Magnitude           :                                                    0.0027966

 ------------------------------------------------------------------------------------

*** tstop() called on Joses-MacBook-Pro-2.local at Wed Jul 16 19:15:41 2025
Module time:
	user time   =       4.72 seconds =       0.08 minutes
	system time =       2.59 seconds =       0.04 minutes
	total time  =          1 seconds =       0.02 minutes
Total time:
	user time   =     129.22 seconds =       2.15 minutes
	system time =     110.54 seconds =       1.84 minutes
	total time  =         24 seconds =       0.40 minutes

*** tstart() called on Joses-MacBook-Pro-2.local
*** at Wed Jul 16 19:15:41 2025

         ------------------------------------------------------------
                                   SCF GRAD
                          Rob Parrish, Justin Turney,
                       Andy Simmonett, and Alex Sokolov
         ------------------------------------------------------------

  ==> Geometry <==

    Molecular point group: c2v
    Full point group: C_inf_v

    Geometry (in Angstrom), charge = 0, multiplicity = 5:

       Center              X                  Y                   Z               Mass
    ------------   -----------------  -----------------  -----------------  -----------------
         N            0.000000000000     0.000000000000     3.426100694356    14.003074004430
         CL           0.000000000000     0.000000000000    -1.371962128869    34.968852682000

  Nuclear repulsion =   13.124481773126842

  ==> Basis Set <==

  Basis Set: CC-PVDZ
    Blend: CC-PVDZ
    Number of shells: 14
    Number of basis functions: 32
    Number of Cartesian functions: 34
    Spherical Harmonics?: true
    Max angular momentum: 2

  ==> DFJKGrad: Density-Fitted SCF Gradients <==

    Gradient:                    1
    J tasked:                  Yes
    K tasked:                  Yes
    wK tasked:                  No
    OpenMP threads:              1
    Integrals threads:           1
    Memory [MiB]:              375
    Schwarz Cutoff:          1E-12
    Fitting Condition:       1E-10

   => Auxiliary Basis Set <=

  Basis Set: (CC-PVDZ AUX)
    Blend: CC-PVDZ-JKFIT
    Number of shells: 60
    Number of basis functions: 182
    Number of Cartesian functions: 211
    Spherical Harmonics?: true
    Max angular momentum: 3

  ==> DFT Potential <==

   => LibXC <=

    Version 6.2.2
    S. Lehtola, C. Steigemann, M. J.T. Oliveira, and M. A.L. Marques.,  SoftwareX 7, 1â€“5 (2018) (10.1016/j.softx.2017.11.002)

   => Composite Functional: B3LYP <=

    B3LYP Hyb-GGA Exchange-Correlation Functional

    P. J. Stephens, F. J. Devlin, C. F. Chabalowski, and M. J. Frisch.,  J. Phys. Chem. 98, 11623 (1994) (10.1021/j100096a001)

    Deriv               =              1
    GGA                 =           TRUE
    Meta                =          FALSE

    Exchange Hybrid     =           TRUE
    MP2 Hybrid          =          FALSE

   => Exchange Functionals <=

    0.0800   Slater exchange
    0.7200         Becke 88

   => Exact (HF) Exchange <=

    0.2000               HF

   => Correlation Functionals <=

    0.1900   Vosko, Wilk & Nusair (VWN5_RPA)
    0.8100   Lee, Yang & Parr

   => LibXC Density Thresholds  <==

    XC_HYB_GGA_XC_B3LYP:  1.00E-15

   => Molecular Quadrature <=

    Radial Scheme          =       TREUTLER
    Pruning Scheme         =           NONE
    Nuclear Scheme         =       TREUTLER

    Blocking Scheme        =         OCTREE
    BS radius alpha        =              1
    Pruning alpha          =              1
    Radial Points          =             75
    Spherical Points       =            302
    Total Points           =          41337
    Total Blocks           =            428
    Max Points             =            251
    Max Functions          =             32
    Weights Tolerance      =       1.00E-15

  -Total Gradient:
     Atom            X                  Y                   Z
    ------   -----------------  -----------------  -----------------
       1        0.000000000000     0.000000000000    -0.000020841938
       2        0.000000000000     0.000000000000     0.000025588170

*** tstop() called on Joses-MacBook-Pro-2.local at Wed Jul 16 19:15:41 2025
Module time:
	user time   =       1.46 seconds =       0.02 minutes
	system time =       1.26 seconds =       0.02 minutes
	total time  =          0 seconds =       0.00 minutes
Total time:
	user time   =     130.68 seconds =       2.18 minutes
	system time =     111.80 seconds =       1.86 minutes
	total time  =         24 seconds =       0.40 minutes

    			-----------------------------------------

    			 OPTKING 3.0: for geometry optimizations

    			     By R.A. King, Bethel University

    			        with contributions from

    			    A.V. Copan, J. Cayton, A. Heide

    			-----------------------------------------

	                            ===> Fragment 1 <==

	 Z (Atomic Numbers)          Masses                          Geom
	       7.000000            14.003074          0.00000000  0.00000000  6.47439199
	      17.000000            34.968853          0.00000000  0.00000000 -2.59263268

	 - Coordinate -           - BOHR/RAD -       - ANG/DEG -
	 R(1,2)           =         9.067025           4.798063

	        --- Internal Coordinate Step in ANG or DEG, aJ/ANG or AJ/DEG ---
	-------------------------------------------------------------------------------
	           Coordinate      Previous         Force          Change          New
	           ----------      --------        ------          ------        ------
	               R(1,2)       4.79806        0.00019        0.00008       4.79814
	-------------------------------------------------------------------------------

	                                 ==> Convergence Check <==

	Measures of convergence in internal coordinates in au.

	Criteria marked as inactive (o), active & met (*), and active & unmet ( ).

	----------------------------------------------------------------------------------------------
	   Step    Total Energy     Delta E     Max Force     RMS Force      Max Disp      RMS Disp
	----------------------------------------------------------------------------------------------
	  Convergence Criteria     1.00e-06 *    3.00e-04 *             o    1.20e-03 *             o
	----------------------------------------------------------------------------------------------
	    20    -514.74759533   -2.06e-05      2.32e-05 *    2.32e-05 o    1.52e-04 *    1.52e-04 o  ~
	----------------------------------------------------------------------------------------------

Next Geometry in Ang
	Fragment 1 (Ang)

	    N   0.0000000000   0.0000000000   3.4261407964
	   Cl   0.0000000000   0.0000000000  -1.3720022310

    Final optimized geometry and variables:
    Molecular point group: c2v
    Full point group: C_inf_v

    Geometry (in Angstrom), charge = 0, multiplicity = 5:

    N            0.000000000000     0.000000000000     3.426100694356
    CL           0.000000000000     0.000000000000    -1.371962128869

    Psi4 stopped on: Wednesday, 16 July 2025 07:15PM
    Psi4 wall time for execution: 0:00:25.31

*** Psi4 exiting successfully. Buy a developer a beer!
