                               Psi4 1.9.1 release

  ==> Input File <==

--------------------------------------------------------------------------
molecule {
0 5
S   0.00000        0.60000        0.00000
Ar   0.00000       -0.60000        0.00000
}

set {
basis              cc-pvdz
reference          uks
maxiter            500
geom_maxiter       500
DAMPING_PERCENTAGE 1
guess              SAP
}

optimize('b3lyp')
--------------------------------------------------------------------------

    Molecular point group: c2v
  Charge       = 0
  Multiplicity = 5
  Basis Set: CC-PVDZ
    Blend: CC-PVDZ
  Basis Set: (CC-PVDZ AUX)
    Blend: CC-PVDZ-JKFIT
  @DF-UKS Final Energy:  -923.68383712963350
    Total Energy =                       -923.6838371296335026
 Dipole X            :          0.0000000            0.0000000            0.0000000
 Dipole Y            :          0.0000000            0.0000000            0.0000000
 Dipole Z            :         -3.5644747            2.0144189           -1.5500558
 Magnitude           :                                                    1.5500558
    Molecular point group: c2v
  Basis Set: CC-PVDZ
    Blend: CC-PVDZ
  Basis Set: (CC-PVDZ AUX)
    Blend: CC-PVDZ-JKFIT
  Basis Set: CC-PVDZ
    Blend: CC-PVDZ
  Basis Set: (CC-PVDZ AUX)
    Blend: CC-PVDZ-JKFIT
  @DF-UKS Final Energy:  -923.72340552748801
    Total Energy =                       -923.7234055274880120
  Basis Set: CC-PVDZ
    Blend: CC-PVDZ
  Basis Set: (CC-PVDZ AUX)
    Blend: CC-PVDZ-JKFIT
  Basis Set: CC-PVDZ
    Blend: CC-PVDZ
  @DF-UKS Final Energy:  -923.79601307901214
    Total Energy =                       -923.7960130790121411
  @DF-UKS Final Energy:  -924.02666521943706
    Total Energy =                       -924.0266652194370636
  @DF-UKS Final Energy:  -924.57053122724562
    Total Energy =                       -924.5705312272455103
  @DF-UKS Final Energy:  -924.80379851179021
    Total Energy =                       -924.8037985117900917
  @DF-UKS Final Energy:  -924.93381659131569
    Total Energy =                       -924.9338165913158036
  @DF-UKS Final Energy:  -924.99240341070254
    Total Energy =                       -924.9924034107026500
  @DF-UKS Final Energy:  -925.01593974588934
    Total Energy =                       -925.0159397458893409
  @DF-UKS Final Energy:  -925.02292838175811
    Total Energy =                       -925.0229283817582200
  @DF-UKS Final Energy:  -925.02689371267024
    Total Energy =                       -925.0268937126702440
  @DF-UKS Final Energy:  -925.02876244260017
    Total Energy =                       -925.0287624426002822
  @DF-UKS Final Energy:  -925.03080975221053
    Total Energy =                       -925.0308097522106436
  @DF-UKS Final Energy:  -925.03335653551676
    Total Energy =                       -925.0333565355167593
  @DF-UKS Final Energy:  -925.04570698881832
    Total Energy =                       -925.0457069888183241
  @DF-UKS Final Energy:  -925.07191477184040
    Total Energy =                       -925.0719147718403974
  @DF-UKS Final Energy:  -925.07218619944331
    Total Energy =                       -925.0721861994433084
  @DF-UKS Final Energy:  -925.07686342214379
    Total Energy =                       -925.0768634221437878
  @DF-UKS Final Energy:  -925.07687580884738
    Total Energy =                       -925.0768758088473760
  Basis Set: (CC-PVDZ AUX)
    Blend: CC-PVDZ-JKFIT
  Basis Set: CC-PVDZ
    Blend: CC-PVDZ
  Basis Set: (CC-PVDZ AUX)
    Blend: CC-PVDZ-JKFIT
  @DF-UKS Final Energy:  -925.07706103113128
    Total Energy =                       -925.0770610311312794
  Basis Set: CC-PVDZ
    Blend: CC-PVDZ
  Basis Set: (CC-PVDZ AUX)
    Blend: CC-PVDZ-JKFIT
  Charge       = 0
  Multiplicity = 5
  Basis Set: CC-PVDZ
    Blend: CC-PVDZ
  Basis Set: (CC-PVDZ AUX)
    Blend: CC-PVDZ-JKFIT

    Orbital Energies [Eh]
    ---------------------

    Alpha Occupied:

       1A1  -115.055347     2A1   -88.985700     3A1   -11.094277
       4A1    -8.644148     1B1    -8.643988     1B2    -8.643988
       5A1    -8.051665     6A1    -6.013759     2B1    -6.012510
       2B2    -6.012510     7A1    -0.930360     8A1    -0.800932
       9A1    -0.401270     3B1    -0.389955     3B2    -0.389955
       4B1    -0.381112     4B2    -0.381112    10A1    -0.366267
      11A1     0.311626

    Alpha Virtual:

      12A1     0.396915     5B2     0.401529     5B1     0.401529
      13A1     0.470990     1A2     0.477643    14A1     0.477651
       6B1     0.480529     6B2     0.480529     7B1     0.616132
       7B2     0.616132    15A1     0.675061    16A1     0.814360
      17A1     0.869824     2A2     0.869845     8B1     0.871418
       8B2     0.871418    18A1     0.892396

    Beta Occupied:

       1A1  -115.053972     2A1   -88.962410     3A1   -11.092907
       1B2    -8.643078     1B1    -8.643078     4A1    -8.640629
       5A1    -8.026684     6A1    -5.982467     2B1    -5.981673
       2B2    -5.981673     7A1    -0.925811     8A1    -0.646392
       3B1    -0.387208     3B2    -0.387208     9A1    -0.383109

    Beta Virtual:

       4B1    -0.197647     4B2    -0.197647    10A1    -0.190506
      11A1     0.442764    12A1     0.465663     5B2     0.480085
       5B1     0.480085    13A1     0.580460     6B1     0.592866
       6B2     0.592866     1A2     0.596193    14A1     0.596201
       7B1     0.624190     7B2     0.624190    15A1     0.690211
      16A1     0.830203    17A1     0.871099     2A2     0.871120
       8B1     0.875287     8B2     0.875287    18A1     0.905130

    Final Occupation by Irrep:
             A1    A2    B1    B2
    DOCC [     9,    0,    3,    3 ]
    SOCC [     2,    0,    1,    1 ]
    NA   [    11,    0,    4,    4 ]
    NB   [     9,    0,    3,    3 ]

  @DF-UKS Final Energy:  -925.07706117927955

   => Energetics <=

    Nuclear Repulsion Energy =             44.7227193739972151
    One-Electron Energy =               -1366.6149620268065519
    Two-Electron Energy =                 442.3618970338945360
    DFT Exchange-Correlation Energy =     -45.5467155603648592
    Empirical Dispersion Energy =           0.0000000000000000
    VV10 Nonlocal Energy =                  0.0000000000000000
    Total Energy =                       -925.0770611792795535

  UHF NO Occupations:
  HONO-2 :   11 A1 1.0000000
  HONO-1 :    4 B2 1.0000000
  HONO-0 :    4 B1 1.0000000
  LUNO+0 :   12 A1 0.0000458
  LUNO+1 :   13 A1 0.0000034
  LUNO+2 :   14 A1 0.0000028
  LUNO+3 :    5 B1 0.0000022

Computation Completed

Properties will be evaluated at   0.000000,   0.000000,   0.000000 [a0]

Properties computed using the SCF density matrix

 Multipole Moments:

 ------------------------------------------------------------------------------------
     Multipole            Electronic (a.u.)      Nuclear  (a.u.)        Total (a.u.)
 ------------------------------------------------------------------------------------

 L = 1.  Multiply by 2.5417464519 to convert [e a0] to [Debye]
 Dipole X            :          0.0000000            0.0000000            0.0000000
 Dipole Y            :          0.0000000            0.0000000            0.0000000
 Dipole Z            :         -4.7851310            5.7204996            0.9353686
 Magnitude           :                                                    0.9353686

 ------------------------------------------------------------------------------------

*** tstop() called on Joses-MacBook-Pro-2.local at Wed Jul 16 20:31:52 2025
Module time:
	user time   =       6.21 seconds =       0.10 minutes
	system time =       1.80 seconds =       0.03 minutes
	total time  =          1 seconds =       0.02 minutes
Total time:
	user time   =     235.95 seconds =       3.93 minutes
	system time =      66.03 seconds =       1.10 minutes
	total time  =         28 seconds =       0.47 minutes

*** tstart() called on Joses-MacBook-Pro-2.local
*** at Wed Jul 16 20:31:52 2025

         ------------------------------------------------------------
                                   SCF GRAD
                          Rob Parrish, Justin Turney,
                       Andy Simmonett, and Alex Sokolov
         ------------------------------------------------------------

  ==> Geometry <==

    Molecular point group: c2v
    Full point group: C_inf_v

    Geometry (in Angstrom), charge = 0, multiplicity = 5:

       Center              X                  Y                   Z               Mass
    ------------   -----------------  -----------------  -----------------  -----------------
         S            0.000000000000     0.000000000000     1.893127408712    31.972071174400
         AR           0.000000000000     0.000000000000    -1.514604473567    39.962383123700

  Nuclear repulsion =   44.722719373997215

  ==> Basis Set <==

  Basis Set: CC-PVDZ
    Blend: CC-PVDZ
    Number of shells: 16
    Number of basis functions: 36
    Number of Cartesian functions: 38
    Spherical Harmonics?: true
    Max angular momentum: 2

  ==> DFJKGrad: Density-Fitted SCF Gradients <==

    Gradient:                    1
    J tasked:                  Yes
    K tasked:                  Yes
    wK tasked:                  No
    OpenMP threads:              1
    Integrals threads:           1
    Memory [MiB]:              375
    Schwarz Cutoff:          1E-12
    Fitting Condition:       1E-10

   => Auxiliary Basis Set <=

  Basis Set: (CC-PVDZ AUX)
    Blend: CC-PVDZ-JKFIT
    Number of shells: 72
    Number of basis functions: 224
    Number of Cartesian functions: 260
    Spherical Harmonics?: true
    Max angular momentum: 3

  ==> DFT Potential <==

   => LibXC <=

    Version 6.2.2
    S. Lehtola, C. Steigemann, M. J.T. Oliveira, and M. A.L. Marques.,  SoftwareX 7, 1â€“5 (2018) (10.1016/j.softx.2017.11.002)

   => Composite Functional: B3LYP <=

    B3LYP Hyb-GGA Exchange-Correlation Functional

    P. J. Stephens, F. J. Devlin, C. F. Chabalowski, and M. J. Frisch.,  J. Phys. Chem. 98, 11623 (1994) (10.1021/j100096a001)

    Deriv               =              1
    GGA                 =           TRUE
    Meta                =          FALSE

    Exchange Hybrid     =           TRUE
    MP2 Hybrid          =          FALSE

   => Exchange Functionals <=

    0.0800   Slater exchange
    0.7200         Becke 88

   => Exact (HF) Exchange <=

    0.2000               HF

   => Correlation Functionals <=

    0.1900   Vosko, Wilk & Nusair (VWN5_RPA)
    0.8100   Lee, Yang & Parr

   => LibXC Density Thresholds  <==

    XC_HYB_GGA_XC_B3LYP:  1.00E-15

   => Molecular Quadrature <=

    Radial Scheme          =       TREUTLER
    Pruning Scheme         =           NONE
    Nuclear Scheme         =       TREUTLER

    Blocking Scheme        =         OCTREE
    BS radius alpha        =              1
    Pruning alpha          =              1
    Radial Points          =             75
    Spherical Points       =            302
    Total Points           =          40384
    Total Blocks           =            372
    Max Points             =            255
    Max Functions          =             36
    Weights Tolerance      =       1.00E-15

  -Total Gradient:
     Atom            X                  Y                   Z
    ------   -----------------  -----------------  -----------------
       1       -0.000000000000     0.000000000000    -0.000006240602
       2        0.000000000000     0.000000000000    -0.000002405861

*** tstop() called on Joses-MacBook-Pro-2.local at Wed Jul 16 20:31:52 2025
Module time:
	user time   =       2.12 seconds =       0.04 minutes
	system time =       1.19 seconds =       0.02 minutes
	total time  =          0 seconds =       0.00 minutes
Total time:
	user time   =     238.09 seconds =       3.97 minutes
	system time =      67.22 seconds =       1.12 minutes
	total time  =         28 seconds =       0.47 minutes

    			-----------------------------------------

    			 OPTKING 3.0: for geometry optimizations

    			     By R.A. King, Bethel University

    			        with contributions from

    			    A.V. Copan, J. Cayton, A. Heide

    			-----------------------------------------

	                            ===> Fragment 1 <==

	 Z (Atomic Numbers)          Masses                          Geom
	      16.000000            31.972071          0.00000000  0.00000000  3.57749232
	      18.000000            39.962383          0.00000000  0.00000000 -2.86218764

	 - Coordinate -           - BOHR/RAD -       - ANG/DEG -
	 R(1,2)           =         6.439680           3.407732

	        --- Internal Coordinate Step in ANG or DEG, aJ/ANG or AJ/DEG ---
	-------------------------------------------------------------------------------
	           Coordinate      Previous         Force          Change          New
	           ----------      --------        ------          ------        ------
	               R(1,2)       3.40773        0.00002        0.00004       3.40778
	-------------------------------------------------------------------------------

	                                 ==> Convergence Check <==

	Measures of convergence in internal coordinates in au.

	Criteria marked as inactive (o), active & met (*), and active & unmet ( ).

	----------------------------------------------------------------------------------------------
	   Step    Total Energy     Delta E     Max Force     RMS Force      Max Disp      RMS Disp
	----------------------------------------------------------------------------------------------
	  Convergence Criteria     1.00e-06 *    3.00e-04 *             o    1.20e-03 *             o
	----------------------------------------------------------------------------------------------
	    21    -925.07706118   -1.48e-07 *    1.92e-06 *    1.92e-06 o    8.29e-05 *    8.29e-05 o  ~
	----------------------------------------------------------------------------------------------

Next Geometry in Ang
	Fragment 1 (Ang)

	    S   0.0000000000   0.0000000000   1.8931493342
	   Ar   0.0000000000   0.0000000000  -1.5146263991

    Final optimized geometry and variables:
    Molecular point group: c2v
    Full point group: C_inf_v

    Geometry (in Angstrom), charge = 0, multiplicity = 5:

    S            0.000000000000     0.000000000000     1.893127408712
    AR           0.000000000000     0.000000000000    -1.514604473567

    Psi4 stopped on: Wednesday, 16 July 2025 08:31PM
    Psi4 wall time for execution: 0:00:29.36

*** Psi4 exiting successfully. Buy a developer a beer!
