                               Psi4 1.9.1 release

  ==> Input File <==

--------------------------------------------------------------------------
molecule {
0 5
Li   0.00000        0.60000        0.00000
Cl   0.00000       -0.60000        0.00000
}

set {
basis              cc-pvdz
reference          uks
maxiter            500
geom_maxiter       500
DAMPING_PERCENTAGE 1
guess              SAP
}

optimize('b3lyp')
--------------------------------------------------------------------------

    Molecular point group: c2v
  Charge       = 0
  Multiplicity = 5
  Basis Set: CC-PVDZ
    Blend: CC-PVDZ
  Basis Set: (CC-PVDZ AUX)
    Blend: CC-PVDZ-JKFIT + DEF2-UNIVERSAL-JKFIT
  @DF-UKS Final Energy:  -466.73399448367991
    Total Energy =                       -466.7339944836799646
 Dipole X            :          0.0000000            0.0000000            0.0000000
 Dipole Y            :          0.0000000            0.0000000            0.0000000
 Dipole Z            :         -1.7207197           -0.7759044           -2.4966241
 Magnitude           :                                                    2.4966241
    Molecular point group: c2v
  Basis Set: CC-PVDZ
    Blend: CC-PVDZ
  Basis Set: (CC-PVDZ AUX)
    Blend: CC-PVDZ-JKFIT + DEF2-UNIVERSAL-JKFIT
  Basis Set: CC-PVDZ
    Blend: CC-PVDZ
  Basis Set: (CC-PVDZ AUX)
    Blend: CC-PVDZ-JKFIT + DEF2-UNIVERSAL-JKFIT
  @DF-UKS Final Energy:  -466.89802357642861
    Total Energy =                       -466.8980235764286135
  Basis Set: CC-PVDZ
    Blend: CC-PVDZ
  Basis Set: (CC-PVDZ AUX)
    Blend: CC-PVDZ-JKFIT + DEF2-UNIVERSAL-JKFIT
  Basis Set: CC-PVDZ
    Blend: CC-PVDZ
  @DF-UKS Final Energy:  -467.03590657898496
    Total Energy =                       -467.0359065789849637
  @DF-UKS Final Energy:  -467.12626728024372
    Total Energy =                       -467.1262672802437237
  @DF-UKS Final Energy:  -467.18886831419854
    Total Energy =                       -467.1888683141986007
  @DF-UKS Final Energy:  -467.22682323529665
    Total Energy =                       -467.2268232352966493
  @DF-UKS Final Energy:  -467.25358295937991
    Total Energy =                       -467.2535829593799122
  @DF-UKS Final Energy:  -467.27273444308537
    Total Energy =                       -467.2727344430853691
  @DF-UKS Final Energy:  -467.27481004295095
    Total Energy =                       -467.2748100429509464
  @DF-UKS Final Energy:  -467.28602447559786
    Total Energy =                       -467.2860244755977988
  @DF-UKS Final Energy:  -467.28652347167662
    Total Energy =                       -467.2865234716766167
  @DF-UKS Final Energy:  -467.28995813518196
    Total Energy =                       -467.2899581351819620
  @DF-UKS Final Energy:  -467.29045776441131
    Total Energy =                       -467.2904577644113147
  Basis Set: (CC-PVDZ AUX)
    Blend: CC-PVDZ-JKFIT + DEF2-UNIVERSAL-JKFIT
  Basis Set: CC-PVDZ
    Blend: CC-PVDZ
  Basis Set: (CC-PVDZ AUX)
    Blend: CC-PVDZ-JKFIT + DEF2-UNIVERSAL-JKFIT
  @DF-UKS Final Energy:  -467.29049311146093
    Total Energy =                       -467.2904931114609326
  Basis Set: CC-PVDZ
    Blend: CC-PVDZ
  Basis Set: (CC-PVDZ AUX)
    Blend: CC-PVDZ-JKFIT + DEF2-UNIVERSAL-JKFIT
  Charge       = 0
  Multiplicity = 5
  Basis Set: CC-PVDZ
    Blend: CC-PVDZ
  Basis Set: (CC-PVDZ AUX)
    Blend: CC-PVDZ-JKFIT + DEF2-UNIVERSAL-JKFIT

    Orbital Energies [Eh]
    ---------------------

    Alpha Occupied:

       1A1  -101.906996     2A1    -9.812968     1B2    -7.582184
       3A1    -7.582168     1B1    -7.555885     4A1    -1.988685
       5A1    -1.122855     2B2    -0.646746     6A1    -0.645889
       2B1    -0.586775     7A1    -0.131465     3B1    -0.059811

    Alpha Virtual:

       8A1    -0.018975     3B2    -0.018658     9A1     0.039936
       4B1     0.074220     4B2     0.089556    10A1     0.109719
       5B1     0.207705     5B2     0.215377    11A1     0.225350
       1A2     0.237309    12A1     0.245684     6B2     0.348663
      13A1     0.354513     6B1     0.382244    14A1     0.407813
       7B2     0.415993     2A2     0.428345    15A1     0.449653
       7B1     0.453474    16A1     0.635594

    Beta Occupied:

       1A1  -101.891387     2A1    -9.797538     1B2    -7.552909
       3A1    -7.552663     1B1    -7.546351     4A1    -1.982038
       5A1    -1.008962     2B1    -0.551066

    Beta Virtual:

       2B2    -0.455778     6A1    -0.454396     7A1    -0.042817
       8A1    -0.000411     3B2     0.014134     3B1     0.020872
       9A1     0.083278     4B2     0.106362     4B1     0.118808
      10A1     0.122440     5B2     0.249940     5B1     0.259013
      11A1     0.264050     1A2     0.298135    12A1     0.300619
       6B2     0.405104     6B1     0.405482    13A1     0.407183
       2A2     0.497641    14A1     0.503545    15A1     0.518195
       7B1     0.519183     7B2     0.529189    16A1     0.686315

    Final Occupation by Irrep:
             A1    A2    B1    B2
    DOCC [     5,    0,    2,    1 ]
    SOCC [     2,    0,    1,    1 ]
    NA   [     7,    0,    3,    2 ]
    NB   [     5,    0,    2,    1 ]

  @DF-UKS Final Energy:  -467.29049345594245

   => Energetics <=

    Nuclear Repulsion Energy =              8.0639953086002247
    One-Electron Energy =                -656.1013202435069616
    Two-Electron Energy =                 204.7850404327813294
    DFT Exchange-Correlation Energy =     -24.0382089538169659
    Empirical Dispersion Energy =           0.0000000000000000
    VV10 Nonlocal Energy =                  0.0000000000000000
    Total Energy =                       -467.2904934559424532

  UHF NO Occupations:
  HONO-2 :    2 B2 1.0000000
  HONO-1 :    7 A1 1.0000000
  HONO-0 :    3 B1 1.0000000
  LUNO+0 :    8 A1 0.0009861
  LUNO+1 :    4 B1 0.0001325
  LUNO+2 :    9 A1 0.0000008
  LUNO+3 :   10 A1 0.0000000

Computation Completed

Properties will be evaluated at   0.000000,   0.000000,   0.000000 [a0]

Properties computed using the SCF density matrix

 Multipole Moments:

 ------------------------------------------------------------------------------------
     Multipole            Electronic (a.u.)      Nuclear  (a.u.)        Total (a.u.)
 ------------------------------------------------------------------------------------

 L = 1.  Multiply by 2.5417464519 to convert [e a0] to [Debye]
 Dipole X            :          0.0000000            0.0000000            0.0000000
 Dipole Y            :          0.0000000            0.0000000            0.0000000
 Dipole Z            :         -1.9163913           -2.1639539           -4.0803452
 Magnitude           :                                                    4.0803452

 ------------------------------------------------------------------------------------

*** tstop() called on Joses-MacBook-Pro-2.local at Wed Jul 16 18:38:00 2025
Module time:
	user time   =       3.48 seconds =       0.06 minutes
	system time =       2.54 seconds =       0.04 minutes
	total time  =          0 seconds =       0.00 minutes
Total time:
	user time   =      72.79 seconds =       1.21 minutes
	system time =      78.33 seconds =       1.31 minutes
	total time  =         14 seconds =       0.23 minutes

*** tstart() called on Joses-MacBook-Pro-2.local
*** at Wed Jul 16 18:38:00 2025

         ------------------------------------------------------------
                                   SCF GRAD
                          Rob Parrish, Justin Turney,
                       Andy Simmonett, and Alex Sokolov
         ------------------------------------------------------------

  ==> Geometry <==

    Molecular point group: c2v
    Full point group: C_inf_v

    Geometry (in Angstrom), charge = 0, multiplicity = 5:

       Center              X                  Y                   Z               Mass
    ------------   -----------------  -----------------  -----------------  -----------------
         LI           0.000000000000     0.000000000000     2.787467141748     7.016003436600
         CL           0.000000000000     0.000000000000    -0.559265676337    34.968852682000

  Nuclear repulsion =    8.063995308600225

  ==> Basis Set <==

  Basis Set: CC-PVDZ
    Blend: CC-PVDZ
    Number of shells: 14
    Number of basis functions: 32
    Number of Cartesian functions: 34
    Spherical Harmonics?: true
    Max angular momentum: 2

  ==> DFJKGrad: Density-Fitted SCF Gradients <==

    Gradient:                    1
    J tasked:                  Yes
    K tasked:                  Yes
    wK tasked:                  No
    OpenMP threads:              1
    Integrals threads:           1
    Memory [MiB]:              375
    Schwarz Cutoff:          1E-12
    Fitting Condition:       1E-10

   => Auxiliary Basis Set <=

  Basis Set: (CC-PVDZ AUX)
    Blend: CC-PVDZ-JKFIT + DEF2-UNIVERSAL-JKFIT
    Number of shells: 53
    Number of basis functions: 163
    Number of Cartesian functions: 190
    Spherical Harmonics?: true
    Max angular momentum: 3

  ==> DFT Potential <==

   => LibXC <=

    Version 6.2.2
    S. Lehtola, C. Steigemann, M. J.T. Oliveira, and M. A.L. Marques.,  SoftwareX 7, 1â€“5 (2018) (10.1016/j.softx.2017.11.002)

   => Composite Functional: B3LYP <=

    B3LYP Hyb-GGA Exchange-Correlation Functional

    P. J. Stephens, F. J. Devlin, C. F. Chabalowski, and M. J. Frisch.,  J. Phys. Chem. 98, 11623 (1994) (10.1021/j100096a001)

    Deriv               =              1
    GGA                 =           TRUE
    Meta                =          FALSE

    Exchange Hybrid     =           TRUE
    MP2 Hybrid          =          FALSE

   => Exchange Functionals <=

    0.0800   Slater exchange
    0.7200         Becke 88

   => Exact (HF) Exchange <=

    0.2000               HF

   => Correlation Functionals <=

    0.1900   Vosko, Wilk & Nusair (VWN5_RPA)
    0.8100   Lee, Yang & Parr

   => LibXC Density Thresholds  <==

    XC_HYB_GGA_XC_B3LYP:  1.00E-15

   => Molecular Quadrature <=

    Radial Scheme          =       TREUTLER
    Pruning Scheme         =           NONE
    Nuclear Scheme         =       TREUTLER

    Blocking Scheme        =         OCTREE
    BS radius alpha        =              1
    Pruning alpha          =              1
    Radial Points          =             75
    Spherical Points       =            302
    Total Points           =          44379
    Total Blocks           =            445
    Max Points             =            255
    Max Functions          =             32
    Weights Tolerance      =       1.00E-15

  -Total Gradient:
     Atom            X                  Y                   Z
    ------   -----------------  -----------------  -----------------
       1        0.000000000000     0.000000000000     0.000007662090
       2        0.000000000000     0.000000000000     0.000026401783

*** tstop() called on Joses-MacBook-Pro-2.local at Wed Jul 16 18:38:00 2025
Module time:
	user time   =       0.64 seconds =       0.01 minutes
	system time =       1.71 seconds =       0.03 minutes
	total time  =          0 seconds =       0.00 minutes
Total time:
	user time   =      73.43 seconds =       1.22 minutes
	system time =      80.04 seconds =       1.33 minutes
	total time  =         14 seconds =       0.23 minutes

    			-----------------------------------------

    			 OPTKING 3.0: for geometry optimizations

    			     By R.A. King, Bethel University

    			        with contributions from

    			    A.V. Copan, J. Cayton, A. Heide

    			-----------------------------------------

	                            ===> Fragment 1 <==

	 Z (Atomic Numbers)          Masses                          Geom
	       3.000000             7.016003          0.00000000  0.00000000  5.26754948
	      17.000000            34.968853          0.00000000  0.00000000 -1.05685896

	 - Coordinate -           - BOHR/RAD -       - ANG/DEG -
	 R(1,2)           =         6.324408           3.346733

	        --- Internal Coordinate Step in ANG or DEG, aJ/ANG or AJ/DEG ---
	-------------------------------------------------------------------------------
	           Coordinate      Previous         Force          Change          New
	           ----------      --------        ------          ------        ------
	               R(1,2)       3.34673        0.00008        0.00040       3.34713
	-------------------------------------------------------------------------------

	                                 ==> Convergence Check <==

	Measures of convergence in internal coordinates in au.

	Criteria marked as inactive (o), active & met (*), and active & unmet ( ).

	----------------------------------------------------------------------------------------------
	   Step    Total Energy     Delta E     Max Force     RMS Force      Max Disp      RMS Disp
	----------------------------------------------------------------------------------------------
	  Convergence Criteria     1.00e-06 *    3.00e-04 *             o    1.20e-03 *             o
	----------------------------------------------------------------------------------------------
	    15    -467.29049346   -3.44e-07 *    9.37e-06 *    9.37e-06 o    7.52e-04 *    7.52e-04 o  ~
	----------------------------------------------------------------------------------------------

Next Geometry in Ang
	Fragment 1 (Ang)

	   Li   0.0000000000   0.0000000000   2.7876660953
	   Cl   0.0000000000   0.0000000000  -0.5594646299

    Final optimized geometry and variables:
    Molecular point group: c2v
    Full point group: C_inf_v

    Geometry (in Angstrom), charge = 0, multiplicity = 5:

    LI           0.000000000000     0.000000000000     2.787467141748
    CL           0.000000000000     0.000000000000    -0.559265676337

    Psi4 stopped on: Wednesday, 16 July 2025 06:38PM
    Psi4 wall time for execution: 0:00:15.45

*** Psi4 exiting successfully. Buy a developer a beer!
