                               Psi4 1.9.1 release

  ==> Input File <==

--------------------------------------------------------------------------
molecule {
0 5
Mg   0.00000        0.60000        0.00000
Si   0.00000       -0.60000        0.00000
}

set {
basis              cc-pvdz
reference          uks
maxiter            500
geom_maxiter       500
DAMPING_PERCENTAGE 1
guess              SAP
}

optimize('b3lyp')
--------------------------------------------------------------------------

    Molecular point group: c2v
  Charge       = 0
  Multiplicity = 5
  Basis Set: CC-PVDZ
    Blend: CC-PVDZ
  Basis Set: (CC-PVDZ AUX)
    Blend: CC-PVDZ-JKFIT + DEF2-UNIVERSAL-JKFIT
  @DF-UKS Final Energy:  -488.42660225080027
    Total Energy =                       -488.4266022508002720
 Dipole X            :          0.0000000            0.0000000            0.0000000
 Dipole Y            :          0.0000000            0.0000000            0.0000000
 Dipole Z            :         -0.5504552           -0.0029443           -0.5533995
 Magnitude           :                                                    0.5533995
    Molecular point group: c2v
  Basis Set: CC-PVDZ
    Blend: CC-PVDZ
  Basis Set: (CC-PVDZ AUX)
    Blend: CC-PVDZ-JKFIT + DEF2-UNIVERSAL-JKFIT
  Basis Set: CC-PVDZ
    Blend: CC-PVDZ
  Basis Set: (CC-PVDZ AUX)
    Blend: CC-PVDZ-JKFIT + DEF2-UNIVERSAL-JKFIT
  @DF-UKS Final Energy:  -488.43895552565533
    Total Energy =                       -488.4389555256553308
  Basis Set: CC-PVDZ
    Blend: CC-PVDZ
  Basis Set: (CC-PVDZ AUX)
    Blend: CC-PVDZ-JKFIT + DEF2-UNIVERSAL-JKFIT
  Basis Set: CC-PVDZ
    Blend: CC-PVDZ
  @DF-UKS Final Energy:  -488.46289295447269
    Total Energy =                       -488.4628929544726930
  @DF-UKS Final Energy:  -488.55063676619500
    Total Energy =                       -488.5506367661949980
  @DF-UKS Final Energy:  -488.95895524421189
    Total Energy =                       -488.9589552442118929
  @DF-UKS Final Energy:  -489.21747257698513
    Total Energy =                       -489.2174725769851307
  @DF-UKS Final Energy:  -489.36246815583735
    Total Energy =                       -489.3624681558373481
  @DF-UKS Final Energy:  -489.42526573790440
    Total Energy =                       -489.4252657379043967
  @DF-UKS Final Energy:  -489.45299851916440
    Total Energy =                       -489.4529985191643959
  @DF-UKS Final Energy:  -489.46361234185201
    Total Energy =                       -489.4636123418520128
  @DF-UKS Final Energy:  -489.46668439095032
    Total Energy =                       -489.4666843909503200
  @DF-UKS Final Energy:  -489.46715432969313
    Total Energy =                       -489.4671543296931304
  @DF-UKS Final Energy:  -489.46724271878327
    Total Energy =                       -489.4672427187832682
  Basis Set: (CC-PVDZ AUX)
    Blend: CC-PVDZ-JKFIT + DEF2-UNIVERSAL-JKFIT
  Basis Set: CC-PVDZ
    Blend: CC-PVDZ
  Basis Set: (CC-PVDZ AUX)
    Blend: CC-PVDZ-JKFIT + DEF2-UNIVERSAL-JKFIT
  @DF-UKS Final Energy:  -489.46724848786113
    Total Energy =                       -489.4672484878611272
  Basis Set: CC-PVDZ
    Blend: CC-PVDZ
  Basis Set: (CC-PVDZ AUX)
    Blend: CC-PVDZ-JKFIT + DEF2-UNIVERSAL-JKFIT
  Charge       = 0
  Multiplicity = 5
  Basis Set: CC-PVDZ
    Blend: CC-PVDZ
  Basis Set: (CC-PVDZ AUX)
    Blend: CC-PVDZ-JKFIT + DEF2-UNIVERSAL-JKFIT

    Orbital Energies [Eh]
    ---------------------

    Alpha Occupied:

       1A1   -66.125582     2A1   -46.882035     3A1    -5.271319
       4A1    -3.630717     1B2    -3.630611     1B1    -3.630611
       5A1    -3.162220     2B1    -1.906149     2B2    -1.906149
       6A1    -1.904579     7A1    -0.458440     8A1    -0.261716
       3B1    -0.184642     3B2    -0.184642     9A1    -0.171228

    Alpha Virtual:

       4B2    -0.043965     4B1    -0.043965    10A1     0.016408
      11A1     0.077662     5B2     0.129672     5B1     0.129672
      12A1     0.141954     6B2     0.237188     6B1     0.237188
      13A1     0.248856    14A1     0.264381     1A2     0.264381
       7B1     0.336957     7B2     0.336957    15A1     0.369994
       2A2     0.375254    16A1     0.375256    17A1     0.469427
       8B1     0.503452     8B2     0.503452    18A1     0.740986

    Beta Occupied:

       1A1   -66.117869     2A1   -46.878279     3A1    -5.262352
       1B2    -3.618413     1B1    -3.618413     4A1    -3.618396
       5A1    -3.155972     2B1    -1.901705     2B2    -1.901705
       6A1    -1.897820     7A1    -0.371655

    Beta Virtual:

       8A1    -0.152179     3B2    -0.080003     3B1    -0.080003
       9A1    -0.061463     4B1     0.002524     4B2     0.002524
      10A1     0.043837    11A1     0.102975     5B2     0.151920
       5B1     0.151920    12A1     0.189911    13A1     0.292457
       6B2     0.299522     6B1     0.299522     1A2     0.307245
      14A1     0.307246     7B1     0.375804     7B2     0.375804
      15A1     0.411372     2A2     0.444293    16A1     0.444295
      17A1     0.513871     8B1     0.562594     8B2     0.562594
      18A1     0.788049

    Final Occupation by Irrep:
             A1    A2    B1    B2
    DOCC [     7,    0,    2,    2 ]
    SOCC [     2,    0,    1,    1 ]
    NA   [     9,    0,    3,    3 ]
    NB   [     7,    0,    2,    2 ]

  @DF-UKS Final Energy:  -489.46724886288700

   => Energetics <=

    Nuclear Repulsion Energy =             34.7822986173303264
    One-Electron Energy =                -749.3868350684556390
    Two-Electron Energy =                 255.2301253650167325
    DFT Exchange-Correlation Energy =     -30.0928377767784205
    Empirical Dispersion Energy =           0.0000000000000000
    VV10 Nonlocal Energy =                  0.0000000000000000
    Total Energy =                       -489.4672488628870042

  UHF NO Occupations:
  HONO-2 :    8 A1 1.0000000
  HONO-1 :    3 B1 1.0000000
  HONO-0 :    9 A1 1.0000000
  LUNO+0 :   10 A1 0.0001449
  LUNO+1 :    4 B1 0.0000008
  LUNO+2 :    4 B2 0.0000008
  LUNO+3 :   11 A1 0.0000004

Computation Completed

Properties will be evaluated at   0.000000,   0.000000,   0.000000 [a0]

Properties computed using the SCF density matrix

 Multipole Moments:

 ------------------------------------------------------------------------------------
     Multipole            Electronic (a.u.)      Nuclear  (a.u.)        Total (a.u.)
 ------------------------------------------------------------------------------------

 L = 1.  Multiply by 2.5417464519 to convert [e a0] to [Debye]
 Dipole X            :          0.0000000            0.0000000            0.0000000
 Dipole Y            :          0.0000000            0.0000000            0.0000000
 Dipole Z            :          0.8233159           -0.0062711            0.8170448
 Magnitude           :                                                    0.8170448

 ------------------------------------------------------------------------------------

*** tstop() called on Joses-MacBook-Pro-2.local at Wed Jul 16 19:57:11 2025
Module time:
	user time   =       5.98 seconds =       0.10 minutes
	system time =       2.48 seconds =       0.04 minutes
	total time  =          1 seconds =       0.02 minutes
Total time:
	user time   =     175.05 seconds =       2.92 minutes
	system time =      53.44 seconds =       0.89 minutes
	total time  =         22 seconds =       0.37 minutes

*** tstart() called on Joses-MacBook-Pro-2.local
*** at Wed Jul 16 19:57:11 2025

         ------------------------------------------------------------
                                   SCF GRAD
                          Rob Parrish, Justin Turney,
                       Andy Simmonett, and Alex Sokolov
         ------------------------------------------------------------

  ==> Geometry <==

    Molecular point group: c2v
    Full point group: C_inf_v

    Geometry (in Angstrom), charge = 0, multiplicity = 5:

       Center              X                  Y                   Z               Mass
    ------------   -----------------  -----------------  -----------------  -----------------
         MG           0.000000000000     0.000000000000     1.376152440114    23.985041697000
         SI           0.000000000000     0.000000000000    -1.179796273071    27.976926534650

  Nuclear repulsion =   34.782298617330326

  ==> Basis Set <==

  Basis Set: CC-PVDZ
    Blend: CC-PVDZ
    Number of shells: 16
    Number of basis functions: 36
    Number of Cartesian functions: 38
    Spherical Harmonics?: true
    Max angular momentum: 2

  ==> DFJKGrad: Density-Fitted SCF Gradients <==

    Gradient:                    1
    J tasked:                  Yes
    K tasked:                  Yes
    wK tasked:                  No
    OpenMP threads:              1
    Integrals threads:           1
    Memory [MiB]:              375
    Schwarz Cutoff:          1E-12
    Fitting Condition:       1E-10

   => Auxiliary Basis Set <=

  Basis Set: (CC-PVDZ AUX)
    Blend: CC-PVDZ-JKFIT + DEF2-UNIVERSAL-JKFIT
    Number of shells: 70
    Number of basis functions: 224
    Number of Cartesian functions: 267
    Spherical Harmonics?: true
    Max angular momentum: 4

  ==> DFT Potential <==

   => LibXC <=

    Version 6.2.2
    S. Lehtola, C. Steigemann, M. J.T. Oliveira, and M. A.L. Marques.,  SoftwareX 7, 1â€“5 (2018) (10.1016/j.softx.2017.11.002)

   => Composite Functional: B3LYP <=

    B3LYP Hyb-GGA Exchange-Correlation Functional

    P. J. Stephens, F. J. Devlin, C. F. Chabalowski, and M. J. Frisch.,  J. Phys. Chem. 98, 11623 (1994) (10.1021/j100096a001)

    Deriv               =              1
    GGA                 =           TRUE
    Meta                =          FALSE

    Exchange Hybrid     =           TRUE
    MP2 Hybrid          =          FALSE

   => Exchange Functionals <=

    0.0800   Slater exchange
    0.7200         Becke 88

   => Exact (HF) Exchange <=

    0.2000               HF

   => Correlation Functionals <=

    0.1900   Vosko, Wilk & Nusair (VWN5_RPA)
    0.8100   Lee, Yang & Parr

   => LibXC Density Thresholds  <==

    XC_HYB_GGA_XC_B3LYP:  1.00E-15

   => Molecular Quadrature <=

    Radial Scheme          =       TREUTLER
    Pruning Scheme         =           NONE
    Nuclear Scheme         =       TREUTLER

    Blocking Scheme        =         OCTREE
    BS radius alpha        =              1
    Pruning alpha          =              1
    Radial Points          =             75
    Spherical Points       =            302
    Total Points           =          42940
    Total Blocks           =            421
    Max Points             =            254
    Max Functions          =             36
    Weights Tolerance      =       1.00E-15

  -Total Gradient:
     Atom            X                  Y                   Z
    ------   -----------------  -----------------  -----------------
       1        0.000000000000     0.000000000000    -0.000050850886
       2        0.000000000000    -0.000000000000     0.000063566443

*** tstop() called on Joses-MacBook-Pro-2.local at Wed Jul 16 19:57:11 2025
Module time:
	user time   =       2.83 seconds =       0.05 minutes
	system time =       2.10 seconds =       0.04 minutes
	total time  =          0 seconds =       0.00 minutes
Total time:
	user time   =     177.89 seconds =       2.96 minutes
	system time =      55.54 seconds =       0.93 minutes
	total time  =         22 seconds =       0.37 minutes

    			-----------------------------------------

    			 OPTKING 3.0: for geometry optimizations

    			     By R.A. King, Bethel University

    			        with contributions from

    			    A.V. Copan, J. Cayton, A. Heide

    			-----------------------------------------

	                            ===> Fragment 1 <==

	 Z (Atomic Numbers)          Masses                          Geom
	      12.000000            23.985042          0.00000000  0.00000000  2.60055122
	      14.000000            27.976927          0.00000000  0.00000000 -2.22949184

	 - Coordinate -           - BOHR/RAD -       - ANG/DEG -
	 R(1,2)           =         4.830043           2.555949

	        --- Internal Coordinate Step in ANG or DEG, aJ/ANG or AJ/DEG ---
	-------------------------------------------------------------------------------
	           Coordinate      Previous         Force          Change          New
	           ----------      --------        ------          ------        ------
	               R(1,2)       2.55595        0.00047        0.00050       2.55645
	-------------------------------------------------------------------------------

	                                 ==> Convergence Check <==

	Measures of convergence in internal coordinates in au.

	Criteria marked as inactive (o), active & met (*), and active & unmet ( ).

	----------------------------------------------------------------------------------------------
	   Step    Total Energy     Delta E     Max Force     RMS Force      Max Disp      RMS Disp
	----------------------------------------------------------------------------------------------
	  Convergence Criteria     1.00e-06 *    3.00e-04 *             o    1.20e-03 *             o
	----------------------------------------------------------------------------------------------
	    15    -489.46724886   -3.75e-07 *    5.72e-05 *    5.72e-05 o    9.54e-04 *    9.54e-04 o  ~
	----------------------------------------------------------------------------------------------

Next Geometry in Ang
	Fragment 1 (Ang)

	   Mg   0.0000000000   0.0000000000   1.3764048342
	   Si   0.0000000000   0.0000000000  -1.1800486672

    Final optimized geometry and variables:
    Molecular point group: c2v
    Full point group: C_inf_v

    Geometry (in Angstrom), charge = 0, multiplicity = 5:

    MG           0.000000000000     0.000000000000     1.376152440114
    SI           0.000000000000     0.000000000000    -1.179796273071

    Psi4 stopped on: Wednesday, 16 July 2025 07:57PM
    Psi4 wall time for execution: 0:00:23.16

*** Psi4 exiting successfully. Buy a developer a beer!
