                               Psi4 1.9.1 release

  ==> Input File <==

--------------------------------------------------------------------------
molecule {
0 5
Be   0.00000        0.60000        0.00000
O   0.00000       -0.60000        0.00000
}

set {
basis              cc-pvdz
reference          uks
maxiter            500
geom_maxiter       500
DAMPING_PERCENTAGE 1
guess              SAP
}

optimize('b3lyp')
--------------------------------------------------------------------------

    Molecular point group: c2v
  Charge       = 0
  Multiplicity = 5
  Basis Set: CC-PVDZ
    Blend: CC-PVDZ
  Basis Set: (CC-PVDZ AUX)
    Blend: CC-PVDZ-JKFIT + DEF2-UNIVERSAL-JKFIT
  @DF-UKS Final Energy:   -89.47154882974898
    Total Energy =                        -89.4715488297489685
 Dipole X            :          0.0000000            0.0000000            0.0000000
 Dipole Y            :          0.0000000            0.0000000            0.0000000
 Dipole Z            :         -0.5462409           -0.7361317           -1.2823726
 Magnitude           :                                                    1.2823726
    Molecular point group: c2v
  Basis Set: CC-PVDZ
    Blend: CC-PVDZ
  Basis Set: (CC-PVDZ AUX)
    Blend: CC-PVDZ-JKFIT + DEF2-UNIVERSAL-JKFIT
  Basis Set: CC-PVDZ
    Blend: CC-PVDZ
  Basis Set: (CC-PVDZ AUX)
    Blend: CC-PVDZ-JKFIT + DEF2-UNIVERSAL-JKFIT
  @DF-UKS Final Energy:   -89.59957678491052
    Total Energy =                        -89.5995767849105107
  Basis Set: CC-PVDZ
    Blend: CC-PVDZ
  Basis Set: (CC-PVDZ AUX)
    Blend: CC-PVDZ-JKFIT + DEF2-UNIVERSAL-JKFIT
  Basis Set: CC-PVDZ
    Blend: CC-PVDZ
  @DF-UKS Final Energy:   -89.62962991575964
    Total Energy =                        -89.6296299157596508
  @DF-UKS Final Energy:   -89.64914361302675
    Total Energy =                        -89.6491436130267516
  @DF-UKS Final Energy:   -89.65581350953420
    Total Energy =                        -89.6558135095342124
  @DF-UKS Final Energy:   -89.65941534784415
    Total Energy =                        -89.6594153478441456
  @DF-UKS Final Energy:   -89.66125141043293
    Total Energy =                        -89.6612514104329250
  @DF-UKS Final Energy:   -89.66182377862648
    Total Energy =                        -89.6618237786264842
  @DF-UKS Final Energy:   -89.66208024197246
    Total Energy =                        -89.6620802419724612
  @DF-UKS Final Energy:   -89.66215574983939
    Total Energy =                        -89.6621557498393997
  @DF-UKS Final Energy:   -89.66218492163148
    Total Energy =                        -89.6621849216314786
  Basis Set: (CC-PVDZ AUX)
    Blend: CC-PVDZ-JKFIT + DEF2-UNIVERSAL-JKFIT
  Basis Set: CC-PVDZ
    Blend: CC-PVDZ
  Basis Set: (CC-PVDZ AUX)
    Blend: CC-PVDZ-JKFIT + DEF2-UNIVERSAL-JKFIT
  @DF-UKS Final Energy:   -89.66219223122812
    Total Energy =                        -89.6621922312281185
  Basis Set: CC-PVDZ
    Blend: CC-PVDZ
  Basis Set: (CC-PVDZ AUX)
    Blend: CC-PVDZ-JKFIT + DEF2-UNIVERSAL-JKFIT
  Charge       = 0
  Multiplicity = 5
  Basis Set: CC-PVDZ
    Blend: CC-PVDZ
  Basis Set: (CC-PVDZ AUX)
    Blend: CC-PVDZ-JKFIT + DEF2-UNIVERSAL-JKFIT

    Orbital Energies [Eh]
    ---------------------

    Alpha Occupied:

       1A1   -19.384620     2A1    -4.085234     3A1    -1.109960
       1B2    -0.540395     1B1    -0.539850     4A1    -0.491814
       5A1    -0.229858     2B1    -0.120359

    Alpha Virtual:

       2B2    -0.051778     6A1    -0.002341     3B1     0.174846
       7A1     0.183171     3B2     0.194057     8A1     0.200547
       4B1     0.452380     1A2     0.453615     9A1     0.462199
       4B2     0.465036    10A1     0.562480     5B2     0.836459
       5B1     0.837598    11A1     0.897437    12A1     1.435937
       2A2     2.348333    13A1     2.348402     6B2     2.431566
       6B1     2.432847    14A1     2.534189

    Beta Occupied:

       1A1   -19.330943     2A1    -4.068245     3A1    -0.946124
       4A1    -0.431895

    Beta Virtual:

       1B2    -0.257121     1B1    -0.253097     5A1    -0.087126
       2B2     0.000857     2B1     0.027706     6A1     0.044785
       7A1     0.212989     3B2     0.218992     3B1     0.243902
       8A1     0.246329     4B2     0.521613     9A1     0.544213
       4B1     0.546510     1A2     0.547350    10A1     0.631541
      11A1     0.935550     5B2     0.941387     5B1     0.947014
      12A1     1.514125     2A2     2.524990    13A1     2.525050
       6B2     2.527779     6B1     2.530803    14A1     2.619266

    Final Occupation by Irrep:
             A1    A2    B1    B2
    DOCC [     4,    0,    0,    0 ]
    SOCC [     1,    0,    2,    1 ]
    NA   [     5,    0,    2,    1 ]
    NB   [     4,    0,    0,    0 ]

  @DF-UKS Final Energy:   -89.66219309874235

   => Energetics <=

    Nuclear Repulsion Energy =              8.1608746484318715
    One-Electron Energy =                -137.8207593335678212
    Two-Electron Energy =                  49.0911470117424429
    DFT Exchange-Correlation Energy =      -9.0934554253488376
    Empirical Dispersion Energy =           0.0000000000000000
    VV10 Nonlocal Energy =                  0.0000000000000000
    Total Energy =                        -89.6621930987423497

  UHF NO Occupations:
  HONO-2 :    1 B1 1.0000000
  HONO-1 :    5 A1 1.0000000
  HONO-0 :    2 B1 1.0000000
  LUNO+0 :    6 A1 0.0013733
  LUNO+1 :    7 A1 0.0005313
  LUNO+2 :    8 A1 0.0000005
  LUNO+3 :    9 A1 0.0000002

Computation Completed

Properties will be evaluated at   0.000000,   0.000000,   0.000000 [a0]

Properties computed using the SCF density matrix

 Multipole Moments:

 ------------------------------------------------------------------------------------
     Multipole            Electronic (a.u.)      Nuclear  (a.u.)        Total (a.u.)
 ------------------------------------------------------------------------------------

 L = 1.  Multiply by 2.5417464519 to convert [e a0] to [Debye]
 Dipole X            :          0.0000000            0.0000000            0.0000000
 Dipole Y            :          0.0000000            0.0000000            0.0000000
 Dipole Z            :          0.3894308           -1.2728835           -0.8834526
 Magnitude           :                                                    0.8834526

 ------------------------------------------------------------------------------------

*** tstop() called on Joses-MacBook-Pro-2.local at Wed Jul 16 18:41:13 2025
Module time:
	user time   =       2.89 seconds =       0.05 minutes
	system time =       2.85 seconds =       0.05 minutes
	total time  =          1 seconds =       0.02 minutes
Total time:
	user time   =      48.73 seconds =       0.81 minutes
	system time =      55.64 seconds =       0.93 minutes
	total time  =         10 seconds =       0.17 minutes

*** tstart() called on Joses-MacBook-Pro-2.local
*** at Wed Jul 16 18:41:13 2025

         ------------------------------------------------------------
                                   SCF GRAD
                          Rob Parrish, Justin Turney,
                       Andy Simmonett, and Alex Sokolov
         ------------------------------------------------------------

  ==> Geometry <==

    Molecular point group: c2v
    Full point group: C_inf_v

    Geometry (in Angstrom), charge = 0, multiplicity = 5:

       Center              X                  Y                   Z               Mass
    ------------   -----------------  -----------------  -----------------  -----------------
         BE           0.000000000000     0.000000000000     1.327189813042     9.012183065000
         O            0.000000000000     0.000000000000    -0.747792522913    15.994914619570

  Nuclear repulsion =    8.160874648431871

  ==> Basis Set <==

  Basis Set: CC-PVDZ
    Blend: CC-PVDZ
    Number of shells: 12
    Number of basis functions: 28
    Number of Cartesian functions: 30
    Spherical Harmonics?: true
    Max angular momentum: 2

  ==> DFJKGrad: Density-Fitted SCF Gradients <==

    Gradient:                    1
    J tasked:                  Yes
    K tasked:                  Yes
    wK tasked:                  No
    OpenMP threads:              1
    Integrals threads:           1
    Memory [MiB]:              375
    Schwarz Cutoff:          1E-12
    Fitting Condition:       1E-10

   => Auxiliary Basis Set <=

  Basis Set: (CC-PVDZ AUX)
    Blend: CC-PVDZ-JKFIT + DEF2-UNIVERSAL-JKFIT
    Number of shells: 41
    Number of basis functions: 121
    Number of Cartesian functions: 141
    Spherical Harmonics?: true
    Max angular momentum: 3

  ==> DFT Potential <==

   => LibXC <=

    Version 6.2.2
    S. Lehtola, C. Steigemann, M. J.T. Oliveira, and M. A.L. Marques.,  SoftwareX 7, 1â€“5 (2018) (10.1016/j.softx.2017.11.002)

   => Composite Functional: B3LYP <=

    B3LYP Hyb-GGA Exchange-Correlation Functional

    P. J. Stephens, F. J. Devlin, C. F. Chabalowski, and M. J. Frisch.,  J. Phys. Chem. 98, 11623 (1994) (10.1021/j100096a001)

    Deriv               =              1
    GGA                 =           TRUE
    Meta                =          FALSE

    Exchange Hybrid     =           TRUE
    MP2 Hybrid          =          FALSE

   => Exchange Functionals <=

    0.0800   Slater exchange
    0.7200         Becke 88

   => Exact (HF) Exchange <=

    0.2000               HF

   => Correlation Functionals <=

    0.1900   Vosko, Wilk & Nusair (VWN5_RPA)
    0.8100   Lee, Yang & Parr

   => LibXC Density Thresholds  <==

    XC_HYB_GGA_XC_B3LYP:  1.00E-15

   => Molecular Quadrature <=

    Radial Scheme          =       TREUTLER
    Pruning Scheme         =           NONE
    Nuclear Scheme         =       TREUTLER

    Blocking Scheme        =         OCTREE
    BS radius alpha        =              1
    Pruning alpha          =              1
    Radial Points          =             75
    Spherical Points       =            302
    Total Points           =          43603
    Total Blocks           =            406
    Max Points             =            254
    Max Functions          =             28
    Weights Tolerance      =       1.00E-15

  -Total Gradient:
     Atom            X                  Y                   Z
    ------   -----------------  -----------------  -----------------
       1       -0.000000000000    -0.000000000000    -0.000032659979
       2        0.000000000000     0.000000000000     0.000056438421

*** tstop() called on Joses-MacBook-Pro-2.local at Wed Jul 16 18:41:13 2025
Module time:
	user time   =       0.44 seconds =       0.01 minutes
	system time =       1.10 seconds =       0.02 minutes
	total time  =          0 seconds =       0.00 minutes
Total time:
	user time   =      49.18 seconds =       0.82 minutes
	system time =      56.74 seconds =       0.95 minutes
	total time  =         10 seconds =       0.17 minutes

    			-----------------------------------------

    			 OPTKING 3.0: for geometry optimizations

    			     By R.A. King, Bethel University

    			        with contributions from

    			    A.V. Copan, J. Cayton, A. Heide

    			-----------------------------------------

	                            ===> Fragment 1 <==

	 Z (Atomic Numbers)          Masses                          Geom
	       4.000000             9.012183          0.00000000  0.00000000  2.50802526
	       8.000000            15.994915          0.00000000  0.00000000 -1.41312307

	 - Coordinate -           - BOHR/RAD -       - ANG/DEG -
	 R(1,2)           =         3.921148           2.074982

	        --- Internal Coordinate Step in ANG or DEG, aJ/ANG or AJ/DEG ---
	-------------------------------------------------------------------------------
	           Coordinate      Previous         Force          Change          New
	           ----------      --------        ------          ------        ------
	               R(1,2)       2.07498        0.00037        0.00106       2.07604
	-------------------------------------------------------------------------------

	                                 ==> Convergence Check <==

	Measures of convergence in internal coordinates in au.

	Criteria marked as inactive (o), active & met (*), and active & unmet ( ).

	----------------------------------------------------------------------------------------------
	   Step    Total Energy     Delta E     Max Force     RMS Force      Max Disp      RMS Disp
	----------------------------------------------------------------------------------------------
	  Convergence Criteria     1.00e-06 *    3.00e-04 *             o    1.20e-03 *             o
	----------------------------------------------------------------------------------------------
	    13     -89.66219310   -8.68e-07 *    4.45e-05 *    4.45e-05 o    2.01e-03      2.01e-03 o  ~
	----------------------------------------------------------------------------------------------

Next Geometry in Ang
	Fragment 1 (Ang)

	   Be   0.0000000000   0.0000000000   1.3277204911
	    O   0.0000000000   0.0000000000  -0.7483232009

    Final optimized geometry and variables:
    Molecular point group: c2v
    Full point group: C_inf_v

    Geometry (in Angstrom), charge = 0, multiplicity = 5:

    BE           0.000000000000     0.000000000000     1.327189813042
    O            0.000000000000     0.000000000000    -0.747792522913

    Psi4 stopped on: Wednesday, 16 July 2025 06:41PM
    Psi4 wall time for execution: 0:00:10.61

*** Psi4 exiting successfully. Buy a developer a beer!
