                               Psi4 1.9.1 release

  ==> Input File <==

--------------------------------------------------------------------------
molecule {
0 5
Be   0.00000        0.60000        0.00000
Ar   0.00000       -0.60000        0.00000
}

set {
basis              cc-pvdz
reference          uks
maxiter            500
geom_maxiter       500
DAMPING_PERCENTAGE 1
guess              SAP
}

optimize('b3lyp')
--------------------------------------------------------------------------

    Molecular point group: c2v
  Charge       = 0
  Multiplicity = 5
  Basis Set: CC-PVDZ
    Blend: CC-PVDZ
  Basis Set: (CC-PVDZ AUX)
    Blend: CC-PVDZ-JKFIT + DEF2-UNIVERSAL-JKFIT
  @DF-UKS Final Energy:  -541.10702332565654
    Total Energy =                       -541.1070233256565416
 Dipole X            :          0.0000000            0.0000000            0.0000000
 Dipole Y            :          0.0000000            0.0000000            0.0000000
 Dipole Z            :         -2.5137230           -0.1097272           -2.6234502
 Magnitude           :                                                    2.6234502
    Molecular point group: c2v
  Basis Set: CC-PVDZ
    Blend: CC-PVDZ
  Basis Set: (CC-PVDZ AUX)
    Blend: CC-PVDZ-JKFIT + DEF2-UNIVERSAL-JKFIT
  Basis Set: CC-PVDZ
    Blend: CC-PVDZ
  Basis Set: (CC-PVDZ AUX)
    Blend: CC-PVDZ-JKFIT + DEF2-UNIVERSAL-JKFIT
  @DF-UKS Final Energy:  -541.30156623992741
    Total Energy =                       -541.3015662399274106
  Basis Set: CC-PVDZ
    Blend: CC-PVDZ
  Basis Set: (CC-PVDZ AUX)
    Blend: CC-PVDZ-JKFIT + DEF2-UNIVERSAL-JKFIT
  Basis Set: CC-PVDZ
    Blend: CC-PVDZ
  @DF-UKS Final Energy:  -541.43752241705238
    Total Energy =                       -541.4375224170523779
  @DF-UKS Final Energy:  -541.52676744535825
    Total Energy =                       -541.5267674453582458
  @DF-UKS Final Energy:  -541.59314739258946
    Total Energy =                       -541.5931473925894579
  @DF-UKS Final Energy:  -541.64190932911390
    Total Energy =                       -541.6419093291140143
  @DF-UKS Final Energy:  -541.66978172896324
    Total Energy =                       -541.6697817289632439
  @DF-UKS Final Energy:  -541.68044553295636
    Total Energy =                       -541.6804455329563552
  @DF-UKS Final Energy:  -541.68349520784818
    Total Energy =                       -541.6834952078481820
  @DF-UKS Final Energy:  -541.68403588917101
    Total Energy =                       -541.6840358891710139
  @DF-UKS Final Energy:  -541.68407135053019
    Total Energy =                       -541.6840713505301892
  Basis Set: (CC-PVDZ AUX)
    Blend: CC-PVDZ-JKFIT + DEF2-UNIVERSAL-JKFIT
  Basis Set: CC-PVDZ
    Blend: CC-PVDZ
  Basis Set: (CC-PVDZ AUX)
    Blend: CC-PVDZ-JKFIT + DEF2-UNIVERSAL-JKFIT
  @DF-UKS Final Energy:  -541.68407356703528
    Total Energy =                       -541.6840735670353979
  Basis Set: CC-PVDZ
    Blend: CC-PVDZ
  Basis Set: (CC-PVDZ AUX)
    Blend: CC-PVDZ-JKFIT + DEF2-UNIVERSAL-JKFIT
  Charge       = 0
  Multiplicity = 5
  Basis Set: CC-PVDZ
    Blend: CC-PVDZ
  Basis Set: (CC-PVDZ AUX)
    Blend: CC-PVDZ-JKFIT + DEF2-UNIVERSAL-JKFIT

    Orbital Energies [Eh]
    ---------------------

    Alpha Occupied:

       1A1  -115.450127     2A1   -11.476157     3A1    -9.048880
       1B1    -9.018831     1B2    -9.018831     4A1    -4.004057
       5A1    -1.274287     6A1    -0.753637     2B2    -0.687013
       2B1    -0.687013     7A1    -0.216968     3B2    -0.074138
       3B1    -0.074138

    Alpha Virtual:

       8A1    -0.014650     9A1     0.173781     4B2     0.220934
       4B1     0.220934    10A1     0.245563     5B2     0.386744
       5B1     0.386744    11A1     0.390846    12A1     0.441148
       6B2     0.477830     6B1     0.477830     1A2     0.508794
      13A1     0.508794    14A1     0.549056     2A2     0.570181
      15A1     0.570195     7B2     0.589925     7B1     0.589925
      16A1     0.900873

    Beta Occupied:

       1A1  -115.440746     2A1   -11.467132     3A1    -9.020133
       1B1    -9.013099     1B2    -9.013099     4A1    -3.985482
       5A1    -1.209895     2B2    -0.666050     2B1    -0.666050

    Beta Virtual:

       6A1    -0.561593     7A1    -0.049297     8A1     0.041300
       3B1     0.073069     3B2     0.073069     9A1     0.227087
      10A1     0.290656     4B2     0.293104     4B1     0.293104
       5B2     0.411670     5B1     0.411670    11A1     0.438523
      12A1     0.508892     6B2     0.551328     6B1     0.551328
       1A2     0.580143    13A1     0.580158    14A1     0.627004
      15A1     0.646379     2A2     0.646421     7B2     0.671635
       7B1     0.671635    16A1     0.950389

    Final Occupation by Irrep:
             A1    A2    B1    B2
    DOCC [     5,    0,    2,    2 ]
    SOCC [     2,    0,    1,    1 ]
    NA   [     7,    0,    3,    3 ]
    NB   [     5,    0,    2,    2 ]

  @DF-UKS Final Energy:  -541.68407367931809

   => Energetics <=

    Nuclear Repulsion Energy =             13.4544692556881031
    One-Electron Energy =                -768.8183966323221057
    Two-Electron Energy =                 240.6719237168428265
    DFT Exchange-Correlation Energy =     -26.9920700195268708
    Empirical Dispersion Energy =           0.0000000000000000
    VV10 Nonlocal Energy =                  0.0000000000000000
    Total Energy =                       -541.6840736793180895

  UHF NO Occupations:
  HONO-2 :    3 B1 1.0000000
  HONO-1 :    3 B2 1.0000000
  HONO-0 :    7 A1 1.0000000
  LUNO+0 :    8 A1 0.0008172
  LUNO+1 :    4 B2 0.0000437
  LUNO+2 :    4 B1 0.0000437
  LUNO+3 :    9 A1 0.0000005

Computation Completed

Properties will be evaluated at   0.000000,   0.000000,   0.000000 [a0]

Properties computed using the SCF density matrix

 Multipole Moments:

 ------------------------------------------------------------------------------------
     Multipole            Electronic (a.u.)      Nuclear  (a.u.)        Total (a.u.)
 ------------------------------------------------------------------------------------

 L = 1.  Multiply by 2.5417464519 to convert [e a0] to [Debye]
 Dipole X            :          0.0000000            0.0000000            0.0000000
 Dipole Y            :          0.0000000            0.0000000            0.0000000
 Dipole Z            :         -4.0980332           -0.2589406           -4.3569738
 Magnitude           :                                                    4.3569738

 ------------------------------------------------------------------------------------

*** tstop() called on Joses-MacBook-Pro-2.local at Wed Jul 16 18:48:40 2025
Module time:
	user time   =       2.53 seconds =       0.04 minutes
	system time =       4.00 seconds =       0.07 minutes
	total time  =          1 seconds =       0.02 minutes
Total time:
	user time   =      54.11 seconds =       0.90 minutes
	system time =      92.26 seconds =       1.54 minutes
	total time  =         16 seconds =       0.27 minutes

*** tstart() called on Joses-MacBook-Pro-2.local
*** at Wed Jul 16 18:48:40 2025

         ------------------------------------------------------------
                                   SCF GRAD
                          Rob Parrish, Justin Turney,
                       Andy Simmonett, and Alex Sokolov
         ------------------------------------------------------------

  ==> Geometry <==

    Molecular point group: c2v
    Full point group: C_inf_v

    Geometry (in Angstrom), charge = 0, multiplicity = 5:

       Center              X                  Y                   Z               Mass
    ------------   -----------------  -----------------  -----------------  -----------------
         BE           0.000000000000     0.000000000000     2.310722748742     9.012183065000
         AR           0.000000000000     0.000000000000    -0.521106470544    39.962383123700

  Nuclear repulsion =   13.454469255688103

  ==> Basis Set <==

  Basis Set: CC-PVDZ
    Blend: CC-PVDZ
    Number of shells: 14
    Number of basis functions: 32
    Number of Cartesian functions: 34
    Spherical Harmonics?: true
    Max angular momentum: 2

  ==> DFJKGrad: Density-Fitted SCF Gradients <==

    Gradient:                    1
    J tasked:                  Yes
    K tasked:                  Yes
    wK tasked:                  No
    OpenMP threads:              1
    Integrals threads:           1
    Memory [MiB]:              375
    Schwarz Cutoff:          1E-12
    Fitting Condition:       1E-10

   => Auxiliary Basis Set <=

  Basis Set: (CC-PVDZ AUX)
    Blend: CC-PVDZ-JKFIT + DEF2-UNIVERSAL-JKFIT
    Number of shells: 53
    Number of basis functions: 163
    Number of Cartesian functions: 190
    Spherical Harmonics?: true
    Max angular momentum: 3

  ==> DFT Potential <==

   => LibXC <=

    Version 6.2.2
    S. Lehtola, C. Steigemann, M. J.T. Oliveira, and M. A.L. Marques.,  SoftwareX 7, 1â€“5 (2018) (10.1016/j.softx.2017.11.002)

   => Composite Functional: B3LYP <=

    B3LYP Hyb-GGA Exchange-Correlation Functional

    P. J. Stephens, F. J. Devlin, C. F. Chabalowski, and M. J. Frisch.,  J. Phys. Chem. 98, 11623 (1994) (10.1021/j100096a001)

    Deriv               =              1
    GGA                 =           TRUE
    Meta                =          FALSE

    Exchange Hybrid     =           TRUE
    MP2 Hybrid          =          FALSE

   => Exchange Functionals <=

    0.0800   Slater exchange
    0.7200         Becke 88

   => Exact (HF) Exchange <=

    0.2000               HF

   => Correlation Functionals <=

    0.1900   Vosko, Wilk & Nusair (VWN5_RPA)
    0.8100   Lee, Yang & Parr

   => LibXC Density Thresholds  <==

    XC_HYB_GGA_XC_B3LYP:  1.00E-15

   => Molecular Quadrature <=

    Radial Scheme          =       TREUTLER
    Pruning Scheme         =           NONE
    Nuclear Scheme         =       TREUTLER

    Blocking Scheme        =         OCTREE
    BS radius alpha        =              1
    Pruning alpha          =              1
    Radial Points          =             75
    Spherical Points       =            302
    Total Points           =          42818
    Total Blocks           =            401
    Max Points             =            254
    Max Functions          =             32
    Weights Tolerance      =       1.00E-15

  -Total Gradient:
     Atom            X                  Y                   Z
    ------   -----------------  -----------------  -----------------
       1        0.000000000000     0.000000000000    -0.000014407018
       2       -0.000000000000    -0.000000000000     0.000034817362

*** tstop() called on Joses-MacBook-Pro-2.local at Wed Jul 16 18:48:40 2025
Module time:
	user time   =       0.95 seconds =       0.02 minutes
	system time =       1.95 seconds =       0.03 minutes
	total time  =          0 seconds =       0.00 minutes
Total time:
	user time   =      55.06 seconds =       0.92 minutes
	system time =      94.22 seconds =       1.57 minutes
	total time  =         16 seconds =       0.27 minutes

    			-----------------------------------------

    			 OPTKING 3.0: for geometry optimizations

    			     By R.A. King, Bethel University

    			        with contributions from

    			    A.V. Copan, J. Cayton, A. Heide

    			-----------------------------------------

	                            ===> Fragment 1 <==

	 Z (Atomic Numbers)          Masses                          Geom
	       4.000000             9.012183          0.00000000  0.00000000  4.36663315
	      18.000000            39.962383          0.00000000  0.00000000 -0.98474851

	 - Coordinate -           - BOHR/RAD -       - ANG/DEG -
	 R(1,2)           =         5.351382           2.831829

	        --- Internal Coordinate Step in ANG or DEG, aJ/ANG or AJ/DEG ---
	-------------------------------------------------------------------------------
	           Coordinate      Previous         Force          Change          New
	           ----------      --------        ------          ------        ------
	               R(1,2)       2.83183        0.00020        0.00046       2.83229
	-------------------------------------------------------------------------------

	                                 ==> Convergence Check <==

	Measures of convergence in internal coordinates in au.

	Criteria marked as inactive (o), active & met (*), and active & unmet ( ).

	----------------------------------------------------------------------------------------------
	   Step    Total Energy     Delta E     Max Force     RMS Force      Max Disp      RMS Disp
	----------------------------------------------------------------------------------------------
	  Convergence Criteria     1.00e-06 *    3.00e-04 *             o    1.20e-03 *             o
	----------------------------------------------------------------------------------------------
	    13    -541.68407368   -1.12e-07 *    2.46e-05 *    2.46e-05 o    8.75e-04 *    8.75e-04 o  ~
	----------------------------------------------------------------------------------------------

Next Geometry in Ang
	Fragment 1 (Ang)

	   Be   0.0000000000   0.0000000000   2.3109542018
	   Ar   0.0000000000   0.0000000000  -0.5213379236

    Final optimized geometry and variables:
    Molecular point group: c2v
    Full point group: C_inf_v

    Geometry (in Angstrom), charge = 0, multiplicity = 5:

    BE           0.000000000000     0.000000000000     2.310722748742
    AR           0.000000000000     0.000000000000    -0.521106470544

    Psi4 stopped on: Wednesday, 16 July 2025 06:48PM
    Psi4 wall time for execution: 0:00:16.88

*** Psi4 exiting successfully. Buy a developer a beer!
