                               Psi4 1.9.1 release

  ==> Input File <==

--------------------------------------------------------------------------
molecule {
0 5
C   0.00000        0.60000        0.00000
Mg   0.00000       -0.60000        0.00000
}

set {
basis              cc-pvdz
reference          uks
maxiter            500
geom_maxiter       500
DAMPING_PERCENTAGE 1
guess              SAP
}

optimize('b3lyp')
--------------------------------------------------------------------------

    Molecular point group: c2v
  Charge       = 0
  Multiplicity = 5
  Basis Set: CC-PVDZ
    Blend: CC-PVDZ
  Basis Set: (CC-PVDZ AUX)
    Blend: CC-PVDZ-JKFIT + DEF2-UNIVERSAL-JKFIT
  @DF-UKS Final Energy:  -237.42300191916138
    Total Energy =                       -237.4230019191613792
 Dipole X            :          0.0000000            0.0000000            0.0000000
 Dipole Y            :          0.0000000            0.0000000            0.0000000
 Dipole Z            :         -0.1702807           -0.0056558           -0.1759365
 Magnitude           :                                                    0.1759365
    Molecular point group: c2v
  Basis Set: CC-PVDZ
    Blend: CC-PVDZ
  Basis Set: (CC-PVDZ AUX)
    Blend: CC-PVDZ-JKFIT + DEF2-UNIVERSAL-JKFIT
  Basis Set: CC-PVDZ
    Blend: CC-PVDZ
  Basis Set: (CC-PVDZ AUX)
    Blend: CC-PVDZ-JKFIT + DEF2-UNIVERSAL-JKFIT
  @DF-UKS Final Energy:  -237.67375477594970
    Total Energy =                       -237.6737547759497033
  Basis Set: CC-PVDZ
    Blend: CC-PVDZ
  Basis Set: (CC-PVDZ AUX)
    Blend: CC-PVDZ-JKFIT + DEF2-UNIVERSAL-JKFIT
  Basis Set: CC-PVDZ
    Blend: CC-PVDZ
  @DF-UKS Final Energy:  -237.83880812333965
    Total Energy =                       -237.8388081233396463
  @DF-UKS Final Energy:  -237.91960010224511
    Total Energy =                       -237.9196001022451128
  @DF-UKS Final Energy:  -237.95381551901050
    Total Energy =                       -237.9538155190105044
  @DF-UKS Final Energy:  -237.96699949071393
    Total Energy =                       -237.9669994907139312
  @DF-UKS Final Energy:  -237.97009766491803
    Total Energy =                       -237.9700976649180291
  @DF-UKS Final Energy:  -237.97109976752347
    Total Energy =                       -237.9710997675234694
  @DF-UKS Final Energy:  -237.97125232169623
    Total Energy =                       -237.9712523216962268
  @DF-UKS Final Energy:  -237.97127731056383
    Total Energy =                       -237.9712773105638348
  Basis Set: (CC-PVDZ AUX)
    Blend: CC-PVDZ-JKFIT + DEF2-UNIVERSAL-JKFIT
  Basis Set: CC-PVDZ
    Blend: CC-PVDZ
  Basis Set: (CC-PVDZ AUX)
    Blend: CC-PVDZ-JKFIT + DEF2-UNIVERSAL-JKFIT
  @DF-UKS Final Energy:  -237.97128209513176
    Total Energy =                       -237.9712820951317553
  Basis Set: CC-PVDZ
    Blend: CC-PVDZ
  Basis Set: (CC-PVDZ AUX)
    Blend: CC-PVDZ-JKFIT + DEF2-UNIVERSAL-JKFIT
  Charge       = 0
  Multiplicity = 5
  Basis Set: CC-PVDZ
    Blend: CC-PVDZ
  Basis Set: (CC-PVDZ AUX)
    Blend: CC-PVDZ-JKFIT + DEF2-UNIVERSAL-JKFIT

    Orbital Energies [Eh]
    ---------------------

    Alpha Occupied:

       1A1   -46.867032     2A1   -10.204525     3A1    -3.149426
       1B2    -1.893683     1B1    -1.893683     4A1    -1.891220
       5A1    -0.563440     6A1    -0.271017     2B1    -0.217366
       2B2    -0.217366     7A1    -0.184250

    Alpha Virtual:

       3B1    -0.033608     3B2    -0.033608     8A1     0.023819
       9A1     0.088607     4B1     0.141262     4B2     0.141262
      10A1     0.208487     1A2     0.283427    11A1     0.283427
       5B1     0.322544     5B2     0.322544    12A1     0.447754
       6B2     0.545912     6B1     0.545912    13A1     0.622145
      14A1     0.843910    15A1     1.171127     2A2     1.171131
       7B2     1.276492     7B1     1.276492    16A1     1.594533

    Beta Occupied:

       1A1   -46.863436     2A1   -10.168807     3A1    -3.143454
       1B2    -1.889449     1B1    -1.889449     4A1    -1.884535
       5A1    -0.425188

    Beta Virtual:

       6A1    -0.128802     2B1    -0.063788     2B2    -0.063788
       7A1    -0.037916     3B1     0.028708     3B2     0.028708
       8A1     0.051444     9A1     0.116272     4B2     0.163779
       4B1     0.163779    10A1     0.259670    11A1     0.320126
       1A2     0.320126     5B1     0.380762     5B2     0.380762
      12A1     0.502816     6B2     0.620267     6B1     0.620267
      13A1     0.699086    14A1     0.920312     2A2     1.280715
      15A1     1.280716     7B2     1.382609     7B1     1.382609
      16A1     1.687115

    Final Occupation by Irrep:
             A1    A2    B1    B2
    DOCC [     5,    0,    1,    1 ]
    SOCC [     2,    0,    1,    1 ]
    NA   [     7,    0,    2,    2 ]
    NB   [     5,    0,    1,    1 ]

  @DF-UKS Final Energy:  -237.97128238574248

   => Energetics <=

    Nuclear Repulsion Energy =             18.4560228578743306
    One-Electron Energy =                -366.6478465053121454
    Two-Electron Energy =                 127.8162580396938068
    DFT Exchange-Correlation Energy =     -17.5957167779984900
    Empirical Dispersion Energy =           0.0000000000000000
    VV10 Nonlocal Energy =                  0.0000000000000000
    Total Energy =                       -237.9712823857424553

  UHF NO Occupations:
  HONO-2 :    2 B1 1.0000000
  HONO-1 :    6 A1 1.0000000
  HONO-0 :    7 A1 1.0000000
  LUNO+0 :    8 A1 0.0014277
  LUNO+1 :    3 B2 0.0000007
  LUNO+2 :    3 B1 0.0000007
  LUNO+3 :    9 A1 0.0000004

Computation Completed

Properties will be evaluated at   0.000000,   0.000000,   0.000000 [a0]

Properties computed using the SCF density matrix

 Multipole Moments:

 ------------------------------------------------------------------------------------
     Multipole            Electronic (a.u.)      Nuclear  (a.u.)        Total (a.u.)
 ------------------------------------------------------------------------------------

 L = 1.  Multiply by 2.5417464519 to convert [e a0] to [Debye]
 Dipole X            :          0.0000000            0.0000000            0.0000000
 Dipole Y            :          0.0000000            0.0000000            0.0000000
 Dipole Z            :         -0.9533321           -0.0097298           -0.9630620
 Magnitude           :                                                    0.9630620

 ------------------------------------------------------------------------------------

*** tstop() called on Joses-MacBook-Pro-2.local at Wed Jul 16 19:02:35 2025
Module time:
	user time   =       3.55 seconds =       0.06 minutes
	system time =       2.95 seconds =       0.05 minutes
	total time  =          1 seconds =       0.02 minutes
Total time:
	user time   =      57.10 seconds =       0.95 minutes
	system time =      69.32 seconds =       1.16 minutes
	total time  =         13 seconds =       0.22 minutes

*** tstart() called on Joses-MacBook-Pro-2.local
*** at Wed Jul 16 19:02:35 2025

         ------------------------------------------------------------
                                   SCF GRAD
                          Rob Parrish, Justin Turney,
                       Andy Simmonett, and Alex Sokolov
         ------------------------------------------------------------

  ==> Geometry <==

    Molecular point group: c2v
    Full point group: C_inf_v

    Geometry (in Angstrom), charge = 0, multiplicity = 5:

       Center              X                  Y                   Z               Mass
    ------------   -----------------  -----------------  -----------------  -----------------
         C            0.000000000000     0.000000000000     1.375985880171    12.000000000000
         MG           0.000000000000     0.000000000000    -0.688422007793    23.985041697000

  Nuclear repulsion =   18.456022857874331

  ==> Basis Set <==

  Basis Set: CC-PVDZ
    Blend: CC-PVDZ
    Number of shells: 14
    Number of basis functions: 32
    Number of Cartesian functions: 34
    Spherical Harmonics?: true
    Max angular momentum: 2

  ==> DFJKGrad: Density-Fitted SCF Gradients <==

    Gradient:                    1
    J tasked:                  Yes
    K tasked:                  Yes
    wK tasked:                  No
    OpenMP threads:              1
    Integrals threads:           1
    Memory [MiB]:              375
    Schwarz Cutoff:          1E-12
    Fitting Condition:       1E-10

   => Auxiliary Basis Set <=

  Basis Set: (CC-PVDZ AUX)
    Blend: CC-PVDZ-JKFIT + DEF2-UNIVERSAL-JKFIT
    Number of shells: 58
    Number of basis functions: 182
    Number of Cartesian functions: 218
    Spherical Harmonics?: true
    Max angular momentum: 4

  ==> DFT Potential <==

   => LibXC <=

    Version 6.2.2
    S. Lehtola, C. Steigemann, M. J.T. Oliveira, and M. A.L. Marques.,  SoftwareX 7, 1â€“5 (2018) (10.1016/j.softx.2017.11.002)

   => Composite Functional: B3LYP <=

    B3LYP Hyb-GGA Exchange-Correlation Functional

    P. J. Stephens, F. J. Devlin, C. F. Chabalowski, and M. J. Frisch.,  J. Phys. Chem. 98, 11623 (1994) (10.1021/j100096a001)

    Deriv               =              1
    GGA                 =           TRUE
    Meta                =          FALSE

    Exchange Hybrid     =           TRUE
    MP2 Hybrid          =          FALSE

   => Exchange Functionals <=

    0.0800   Slater exchange
    0.7200         Becke 88

   => Exact (HF) Exchange <=

    0.2000               HF

   => Correlation Functionals <=

    0.1900   Vosko, Wilk & Nusair (VWN5_RPA)
    0.8100   Lee, Yang & Parr

   => LibXC Density Thresholds  <==

    XC_HYB_GGA_XC_B3LYP:  1.00E-15

   => Molecular Quadrature <=

    Radial Scheme          =       TREUTLER
    Pruning Scheme         =           NONE
    Nuclear Scheme         =       TREUTLER

    Blocking Scheme        =         OCTREE
    BS radius alpha        =              1
    Pruning alpha          =              1
    Radial Points          =             75
    Spherical Points       =            302
    Total Points           =          43470
    Total Blocks           =            415
    Max Points             =            254
    Max Functions          =             32
    Weights Tolerance      =       1.00E-15

  -Total Gradient:
     Atom            X                  Y                   Z
    ------   -----------------  -----------------  -----------------
       1        0.000000000000    -0.000000000000    -0.000044402818
       2        0.000000000000     0.000000000000     0.000028305112

*** tstop() called on Joses-MacBook-Pro-2.local at Wed Jul 16 19:02:35 2025
Module time:
	user time   =       0.70 seconds =       0.01 minutes
	system time =       1.89 seconds =       0.03 minutes
	total time  =          0 seconds =       0.00 minutes
Total time:
	user time   =      57.81 seconds =       0.96 minutes
	system time =      71.21 seconds =       1.19 minutes
	total time  =         13 seconds =       0.22 minutes

    			-----------------------------------------

    			 OPTKING 3.0: for geometry optimizations

    			     By R.A. King, Bethel University

    			        with contributions from

    			    A.V. Copan, J. Cayton, A. Heide

    			-----------------------------------------

	                            ===> Fragment 1 <==

	 Z (Atomic Numbers)          Masses                          Geom
	       6.000000            12.000000          0.00000000  0.00000000  2.60023647
	      12.000000            23.985042          0.00000000  0.00000000 -1.30092905

	 - Coordinate -           - BOHR/RAD -       - ANG/DEG -
	 R(1,2)           =         3.901166           2.064408

	        --- Internal Coordinate Step in ANG or DEG, aJ/ANG or AJ/DEG ---
	-------------------------------------------------------------------------------
	           Coordinate      Previous         Force          Change          New
	           ----------      --------        ------          ------        ------
	               R(1,2)       2.06441        0.00030        0.00018       2.06459
	-------------------------------------------------------------------------------

	                                 ==> Convergence Check <==

	Measures of convergence in internal coordinates in au.

	Criteria marked as inactive (o), active & met (*), and active & unmet ( ).

	----------------------------------------------------------------------------------------------
	   Step    Total Energy     Delta E     Max Force     RMS Force      Max Disp      RMS Disp
	----------------------------------------------------------------------------------------------
	  Convergence Criteria     1.00e-06 *    3.00e-04 *             o    1.20e-03 *             o
	----------------------------------------------------------------------------------------------
	    12    -237.97128239   -2.91e-07 *    3.64e-05 *    3.64e-05 o    3.36e-04 *    3.36e-04 o  ~
	----------------------------------------------------------------------------------------------

Next Geometry in Ang
	Fragment 1 (Ang)

	    C   0.0000000000   0.0000000000   1.3760748220
	   Mg   0.0000000000   0.0000000000  -0.6885109497

    Final optimized geometry and variables:
    Molecular point group: c2v
    Full point group: C_inf_v

    Geometry (in Angstrom), charge = 0, multiplicity = 5:

    C            0.000000000000     0.000000000000     1.375985880171
    MG           0.000000000000     0.000000000000    -0.688422007793

    Psi4 stopped on: Wednesday, 16 July 2025 07:02PM
    Psi4 wall time for execution: 0:00:13.18

*** Psi4 exiting successfully. Buy a developer a beer!
