                               Psi4 1.9.1 release

  ==> Input File <==

--------------------------------------------------------------------------
molecule {
0 5
Ne   0.00000        0.60000        0.00000
S   0.00000       -0.60000        0.00000
}

set {
basis              cc-pvdz
reference          uks
maxiter            500
geom_maxiter       500
DAMPING_PERCENTAGE 1
guess              SAP
}

optimize('b3lyp')
--------------------------------------------------------------------------

    Molecular point group: c2v
  Charge       = 0
  Multiplicity = 5
  Basis Set: CC-PVDZ
    Blend: CC-PVDZ
  Basis Set: (CC-PVDZ AUX)
    Blend: CC-PVDZ-JKFIT
  @DF-UKS Final Energy:  -525.76281710987541
    Total Energy =                       -525.7628171098754137
 Dipole X            :          0.0000000            0.0000000            0.0000000
 Dipole Y            :          0.0000000            0.0000000            0.0000000
 Dipole Z            :          1.5432519           -0.0069094            1.5363425
 Magnitude           :                                                    1.5363425
    Molecular point group: c2v
  Basis Set: CC-PVDZ
    Blend: CC-PVDZ
  Basis Set: (CC-PVDZ AUX)
    Blend: CC-PVDZ-JKFIT
  Basis Set: CC-PVDZ
    Blend: CC-PVDZ
  Basis Set: (CC-PVDZ AUX)
    Blend: CC-PVDZ-JKFIT
  @DF-UKS Final Energy:  -526.01246162825635
    Total Energy =                       -526.0124616282563466
  Basis Set: CC-PVDZ
    Blend: CC-PVDZ
  Basis Set: (CC-PVDZ AUX)
    Blend: CC-PVDZ-JKFIT
  Basis Set: CC-PVDZ
    Blend: CC-PVDZ
  @DF-UKS Final Energy:  -526.17985150145887
    Total Energy =                       -526.1798515014588702
  @DF-UKS Final Energy:  -526.28535125517647
    Total Energy =                       -526.2853512551764652
  @DF-UKS Final Energy:  -526.34385898446010
    Total Energy =                       -526.3438589844600983
  @DF-UKS Final Energy:  -526.37663548130092
    Total Energy =                       -526.3766354813009229
  @DF-UKS Final Energy:  -526.39409051362861
    Total Energy =                       -526.3940905136286119
  @DF-UKS Final Energy:  -526.40210423798169
    Total Energy =                       -526.4021042379816890
  @DF-UKS Final Energy:  -526.40556441170770
    Total Energy =                       -526.4055644117077009
  @DF-UKS Final Energy:  -526.40693205269474
    Total Energy =                       -526.4069320526947422
  @DF-UKS Final Energy:  -526.40740310148908
    Total Energy =                       -526.4074031014890807
  @DF-UKS Final Energy:  -526.40751036461290
    Total Energy =                       -526.4075103646129037
  @DF-UKS Final Energy:  -526.40754759708648
    Total Energy =                       -526.4075475970864773
  @DF-UKS Final Energy:  -526.40755383840599
    Total Energy =                       -526.4075538384059882
  Basis Set: (CC-PVDZ AUX)
    Blend: CC-PVDZ-JKFIT
  Basis Set: CC-PVDZ
    Blend: CC-PVDZ
  Basis Set: (CC-PVDZ AUX)
    Blend: CC-PVDZ-JKFIT
  @DF-UKS Final Energy:  -526.40755499702880
    Total Energy =                       -526.4075549970287966
  Basis Set: CC-PVDZ
    Blend: CC-PVDZ
  Basis Set: (CC-PVDZ AUX)
    Blend: CC-PVDZ-JKFIT
  Charge       = 0
  Multiplicity = 5
  Basis Set: CC-PVDZ
    Blend: CC-PVDZ
  Basis Set: (CC-PVDZ AUX)
    Blend: CC-PVDZ-JKFIT

    Orbital Energies [Eh]
    ---------------------

    Alpha Occupied:

       1A1   -88.931930     2A1   -30.975794     3A1    -8.014569
       1B1    -5.979205     4A1    -5.979163     1B2    -5.976133
       5A1    -1.440471     6A1    -0.787003     7A1    -0.551939
       2B1    -0.548199     2B2    -0.547861     3B1    -0.374563
       8A1    -0.372041     3B2    -0.370472     4B2     0.350812

    Alpha Virtual:

       9A1     0.388768     4B1     0.418234    10A1     0.425573
      11A1     0.476901     5B1     0.478207     1A2     0.491327
       5B2     0.491336    12A1     0.496912     6B1     1.354489
       6B2     1.355204    13A1     1.405505    14A1     1.845703
       7B1     4.716160     7B2     4.716404    15A1     4.717212
       2A2     4.717479    16A1     4.717744

    Beta Occupied:

       1A1   -88.908554     2A1   -30.975319     3A1    -7.991057
       1B1    -5.950170     4A1    -5.950015     1B2    -5.929380
       5A1    -1.439602     6A1    -0.635159     7A1    -0.548998
       2B1    -0.547803     2B2    -0.547309

    Beta Virtual:

       3B1    -0.198580     8A1    -0.196173     3B2    -0.168571
       9A1     0.466404     4B1     0.483708    10A1     0.488688
       4B2     0.513173    11A1     0.589469     5B1     0.591128
       1A2     0.612615     5B2     0.612716    12A1     0.620059
       6B1     1.354448     6B2     1.355414    13A1     1.408222
      14A1     1.847518     7B1     4.717027     7B2     4.717331
       2A2     4.717820    15A1     4.717988    16A1     4.718393

    Final Occupation by Irrep:
             A1    A2    B1    B2
    DOCC [     7,    0,    2,    2 ]
    SOCC [     1,    0,    1,    2 ]
    NA   [     8,    0,    3,    4 ]
    NB   [     7,    0,    2,    2 ]

  @DF-UKS Final Energy:  -526.40755524899760

   => Energetics <=

    Nuclear Repulsion Energy =             28.5618152545114548
    One-Electron Energy =                -788.0825173076792680
    Two-Electron Energy =                 263.8935681349722131
    DFT Exchange-Correlation Energy =     -30.7804213308019676
    Empirical Dispersion Energy =           0.0000000000000000
    VV10 Nonlocal Energy =                  0.0000000000000000
    Total Energy =                       -526.4075552489975962

  UHF NO Occupations:
  HONO-2 :    8 A1 1.0000000
  HONO-1 :    3 B2 1.0000000
  HONO-0 :    4 B2 1.0000000
  LUNO+0 :    9 A1 0.0003793
  LUNO+1 :   10 A1 0.0000039
  LUNO+2 :    5 B2 0.0000001
  LUNO+3 :    4 B1 0.0000001

Computation Completed

Properties will be evaluated at   0.000000,   0.000000,   0.000000 [a0]

Properties computed using the SCF density matrix

 Multipole Moments:

 ------------------------------------------------------------------------------------
     Multipole            Electronic (a.u.)      Nuclear  (a.u.)        Total (a.u.)
 ------------------------------------------------------------------------------------

 L = 1.  Multiply by 2.5417464519 to convert [e a0] to [Debye]
 Dipole X            :          0.0000000            0.0000000            0.0000000
 Dipole Y            :          0.0000000            0.0000000            0.0000000
 Dipole Z            :          0.0729807           -0.0170684            0.0559123
 Magnitude           :                                                    0.0559123

 ------------------------------------------------------------------------------------

*** tstop() called on Joses-MacBook-Pro-2.local at Wed Jul 16 19:37:19 2025
Module time:
	user time   =       2.15 seconds =       0.04 minutes
	system time =       3.32 seconds =       0.06 minutes
	total time  =          1 seconds =       0.02 minutes
Total time:
	user time   =      78.33 seconds =       1.31 minutes
	system time =      78.47 seconds =       1.31 minutes
	total time  =         15 seconds =       0.25 minutes

*** tstart() called on Joses-MacBook-Pro-2.local
*** at Wed Jul 16 19:37:19 2025

         ------------------------------------------------------------
                                   SCF GRAD
                          Rob Parrish, Justin Turney,
                       Andy Simmonett, and Alex Sokolov
         ------------------------------------------------------------

  ==> Geometry <==

    Molecular point group: c2v
    Full point group: C_inf_v

    Geometry (in Angstrom), charge = 0, multiplicity = 5:

       Center              X                  Y                   Z               Mass
    ------------   -----------------  -----------------  -----------------  -----------------
         NE           0.000000000000     0.000000000000     1.823892481540    19.992440176200
         S            0.000000000000     0.000000000000    -1.140497314863    31.972071174400

  Nuclear repulsion =   28.561815254511455

  ==> Basis Set <==

  Basis Set: CC-PVDZ
    Blend: CC-PVDZ
    Number of shells: 14
    Number of basis functions: 32
    Number of Cartesian functions: 34
    Spherical Harmonics?: true
    Max angular momentum: 2

  ==> DFJKGrad: Density-Fitted SCF Gradients <==

    Gradient:                    1
    J tasked:                  Yes
    K tasked:                  Yes
    wK tasked:                  No
    OpenMP threads:              1
    Integrals threads:           1
    Memory [MiB]:              375
    Schwarz Cutoff:          1E-12
    Fitting Condition:       1E-10

   => Auxiliary Basis Set <=

  Basis Set: (CC-PVDZ AUX)
    Blend: CC-PVDZ-JKFIT
    Number of shells: 60
    Number of basis functions: 182
    Number of Cartesian functions: 211
    Spherical Harmonics?: true
    Max angular momentum: 3

  ==> DFT Potential <==

   => LibXC <=

    Version 6.2.2
    S. Lehtola, C. Steigemann, M. J.T. Oliveira, and M. A.L. Marques.,  SoftwareX 7, 1â€“5 (2018) (10.1016/j.softx.2017.11.002)

   => Composite Functional: B3LYP <=

    B3LYP Hyb-GGA Exchange-Correlation Functional

    P. J. Stephens, F. J. Devlin, C. F. Chabalowski, and M. J. Frisch.,  J. Phys. Chem. 98, 11623 (1994) (10.1021/j100096a001)

    Deriv               =              1
    GGA                 =           TRUE
    Meta                =          FALSE

    Exchange Hybrid     =           TRUE
    MP2 Hybrid          =          FALSE

   => Exchange Functionals <=

    0.0800   Slater exchange
    0.7200         Becke 88

   => Exact (HF) Exchange <=

    0.2000               HF

   => Correlation Functionals <=

    0.1900   Vosko, Wilk & Nusair (VWN5_RPA)
    0.8100   Lee, Yang & Parr

   => LibXC Density Thresholds  <==

    XC_HYB_GGA_XC_B3LYP:  1.00E-15

   => Molecular Quadrature <=

    Radial Scheme          =       TREUTLER
    Pruning Scheme         =           NONE
    Nuclear Scheme         =       TREUTLER

    Blocking Scheme        =         OCTREE
    BS radius alpha        =              1
    Pruning alpha          =              1
    Radial Points          =             75
    Spherical Points       =            302
    Total Points           =          42301
    Total Blocks           =            383
    Max Points             =            252
    Max Functions          =             32
    Weights Tolerance      =       1.00E-15

  -Total Gradient:
     Atom            X                  Y                   Z
    ------   -----------------  -----------------  -----------------
       1        0.000000000000    -0.000000000000    -0.000018818262
       2        0.000000000000     0.000000000000     0.000010799544

*** tstop() called on Joses-MacBook-Pro-2.local at Wed Jul 16 19:37:19 2025
Module time:
	user time   =       0.61 seconds =       0.01 minutes
	system time =       1.76 seconds =       0.03 minutes
	total time  =          0 seconds =       0.00 minutes
Total time:
	user time   =      78.94 seconds =       1.32 minutes
	system time =      80.23 seconds =       1.34 minutes
	total time  =         15 seconds =       0.25 minutes

    			-----------------------------------------

    			 OPTKING 3.0: for geometry optimizations

    			     By R.A. King, Bethel University

    			        with contributions from

    			    A.V. Copan, J. Cayton, A. Heide

    			-----------------------------------------

	                            ===> Fragment 1 <==

	 Z (Atomic Numbers)          Masses                          Geom
	      10.000000            19.992440          0.00000000  0.00000000  3.44665727
	      16.000000            31.972071          0.00000000  0.00000000 -2.15522757

	 - Coordinate -           - BOHR/RAD -       - ANG/DEG -
	 R(1,2)           =         5.601885           2.964390

	        --- Internal Coordinate Step in ANG or DEG, aJ/ANG or AJ/DEG ---
	-------------------------------------------------------------------------------
	           Coordinate      Previous         Force          Change          New
	           ----------      --------        ------          ------        ------
	               R(1,2)       2.96439        0.00012        0.00149       2.96588
	-------------------------------------------------------------------------------

	                                 ==> Convergence Check <==

	Measures of convergence in internal coordinates in au.

	Criteria marked as inactive (o), active & met (*), and active & unmet ( ).

	----------------------------------------------------------------------------------------------
	   Step    Total Energy     Delta E     Max Force     RMS Force      Max Disp      RMS Disp
	----------------------------------------------------------------------------------------------
	  Convergence Criteria     1.00e-06 *    3.00e-04 *             o    1.20e-03 *             o
	----------------------------------------------------------------------------------------------
	    16    -526.40755525   -2.52e-07 *    1.48e-05 *    1.48e-05 o    2.82e-03      2.82e-03 o  ~
	----------------------------------------------------------------------------------------------

Next Geometry in Ang
	Fragment 1 (Ang)

	   Ne   0.0000000000   0.0000000000   1.8246391507
	    S   0.0000000000   0.0000000000  -1.1412439841

    Final optimized geometry and variables:
    Molecular point group: c2v
    Full point group: C_inf_v

    Geometry (in Angstrom), charge = 0, multiplicity = 5:

    NE           0.000000000000     0.000000000000     1.823892481540
    S            0.000000000000     0.000000000000    -1.140497314863

    Psi4 stopped on: Wednesday, 16 July 2025 07:37PM
    Psi4 wall time for execution: 0:00:15.70

*** Psi4 exiting successfully. Buy a developer a beer!
