                               Psi4 1.9.1 release

  ==> Input File <==

--------------------------------------------------------------------------
molecule {
0 5
Ne   0.00000        0.60000        0.00000
Ar   0.00000       -0.60000        0.00000
}

set {
basis              cc-pvdz
reference          uks
maxiter            500
geom_maxiter       500
DAMPING_PERCENTAGE 1
guess              SAP
}

optimize('b3lyp')
--------------------------------------------------------------------------

    Molecular point group: c2v
  Charge       = 0
  Multiplicity = 5
  Basis Set: CC-PVDZ
    Blend: CC-PVDZ
  Basis Set: (CC-PVDZ AUX)
    Blend: CC-PVDZ-JKFIT
  @DF-UKS Final Energy:  -654.05366030173866
    Total Energy =                       -654.0536603017387733
 Dipole X            :          0.0000000            0.0000000            0.0000000
 Dipole Y            :          0.0000000            0.0000000            0.0000000
 Dipole Z            :          0.1683595            1.5038390            1.6721986
 Magnitude           :                                                    1.6721986
    Molecular point group: c2v
  Basis Set: CC-PVDZ
    Blend: CC-PVDZ
  Basis Set: (CC-PVDZ AUX)
    Blend: CC-PVDZ-JKFIT
  Basis Set: CC-PVDZ
    Blend: CC-PVDZ
  Basis Set: (CC-PVDZ AUX)
    Blend: CC-PVDZ-JKFIT
  @DF-UKS Final Energy:  -654.32904196556774
    Total Energy =                       -654.3290419655677397
  Basis Set: CC-PVDZ
    Blend: CC-PVDZ
  Basis Set: (CC-PVDZ AUX)
    Blend: CC-PVDZ-JKFIT
  Basis Set: CC-PVDZ
    Blend: CC-PVDZ
  @DF-UKS Final Energy:  -654.56572805283531
    Total Energy =                       -654.5657280528353112
  @DF-UKS Final Energy:  -654.64157895769790
    Total Energy =                       -654.6415789576979023
  @DF-UKS Final Energy:  -654.65954311182008
    Total Energy =                       -654.6595431118200850
  @DF-UKS Final Energy:  -654.66398056912863
    Total Energy =                       -654.6639805691286256
  @DF-UKS Final Energy:  -654.66571446682133
    Total Energy =                       -654.6657144668213277
  @DF-UKS Final Energy:  -654.66601740778822
    Total Energy =                       -654.6660174077882175
  @DF-UKS Final Energy:  -654.66608127355187
    Total Energy =                       -654.6660812735517538
  Basis Set: (CC-PVDZ AUX)
    Blend: CC-PVDZ-JKFIT
  Basis Set: CC-PVDZ
    Blend: CC-PVDZ
  Basis Set: (CC-PVDZ AUX)
    Blend: CC-PVDZ-JKFIT
  @DF-UKS Final Energy:  -654.66609863699000
    Total Energy =                       -654.6660986369900002
  Basis Set: CC-PVDZ
    Blend: CC-PVDZ
  Basis Set: (CC-PVDZ AUX)
    Blend: CC-PVDZ-JKFIT
  Charge       = 0
  Multiplicity = 5
  Basis Set: CC-PVDZ
    Blend: CC-PVDZ
  Basis Set: (CC-PVDZ AUX)
    Blend: CC-PVDZ-JKFIT

    Orbital Energies [Eh]
    ---------------------

    Alpha Occupied:

       1A1  -115.217087     2A1   -31.102792     3A1   -11.272959
       1B2    -8.835855     4A1    -8.834236     1B1    -8.811450
       5A1    -1.574082     6A1    -1.146816     7A1    -0.734542
       2B2    -0.673783     2B1    -0.668895     3B2    -0.595787
       3B1    -0.543171     8A1    -0.528596     4B2     0.393150
       9A1     0.399499

    Alpha Virtual:

       4B1     0.497436    10A1     0.602492     5B2     0.644779
      11A1     0.668425     5B1     0.674006     1A2     0.679975
      12A1     0.709933     6B2     1.308178     6B1     1.311217
      13A1     1.410469    14A1     2.121667     7B2     4.587298
       7B1     4.588102    15A1     4.601566     2A2     4.601758
      16A1     4.608612

    Beta Occupied:

       1A1  -115.188325     2A1   -31.093808     3A1   -11.245636
       1B1    -8.795088     4A1    -8.784180     1B2    -8.780085
       5A1    -1.554740     6A1    -1.004398     7A1    -0.669418
       2B1    -0.660058     2B2    -0.655001     3B1    -0.494309

    Beta Virtual:

       3B2    -0.355914     8A1    -0.315153     4B1     0.536251
       4B2     0.573994     9A1     0.587881    10A1     0.709091
       5B1     0.751151    11A1     0.767712     1A2     0.771556
       5B2     0.788715    12A1     0.804968     6B1     1.318286
       6B2     1.323129    13A1     1.434740    14A1     2.148791
       7B1     4.605491     7B2     4.606890    15A1     4.607943
       2A2     4.608134    16A1     4.631002

    Final Occupation by Irrep:
             A1    A2    B1    B2
    DOCC [     7,    0,    3,    2 ]
    SOCC [     2,    0,    0,    2 ]
    NA   [     9,    0,    3,    4 ]
    NB   [     7,    0,    3,    2 ]

  @DF-UKS Final Energy:  -654.66610091880841

   => Energetics <=

    Nuclear Repulsion Energy =             50.1548634716762791
    One-Electron Energy =               -1006.0909569289158298
    Two-Electron Energy =                 336.2335140214651688
    DFT Exchange-Correlation Energy =     -34.9635214830340928
    Empirical Dispersion Energy =           0.0000000000000000
    VV10 Nonlocal Energy =                  0.0000000000000000
    Total Energy =                       -654.6661009188085245

  UHF NO Occupations:
  HONO-2 :    8 A1 1.0000000
  HONO-1 :    4 B2 1.0000000
  HONO-0 :    9 A1 1.0000000
  LUNO+0 :   10 A1 0.0011906
  LUNO+1 :   11 A1 0.0001463
  LUNO+2 :    4 B1 0.0001154
  LUNO+3 :    5 B2 0.0000125

Computation Completed

Properties will be evaluated at   0.000000,   0.000000,   0.000000 [a0]

Properties computed using the SCF density matrix

 Multipole Moments:

 ------------------------------------------------------------------------------------
     Multipole            Electronic (a.u.)      Nuclear  (a.u.)        Total (a.u.)
 ------------------------------------------------------------------------------------

 L = 1.  Multiply by 2.5417464519 to convert [e a0] to [Debye]
 Dipole X            :          0.0000000            0.0000000            0.0000000
 Dipole Y            :          0.0000000            0.0000000            0.0000000
 Dipole Z            :         -1.2612666            2.3800205            1.1187539
 Magnitude           :                                                    1.1187539

 ------------------------------------------------------------------------------------

*** tstop() called on Joses-MacBook-Pro-2.local at Wed Jul 16 19:38:46 2025
Module time:
	user time   =       2.97 seconds =       0.05 minutes
	system time =       3.86 seconds =       0.06 minutes
	total time  =          0 seconds =       0.00 minutes
Total time:
	user time   =      53.29 seconds =       0.89 minutes
	system time =      57.12 seconds =       0.95 minutes
	total time  =         10 seconds =       0.17 minutes

*** tstart() called on Joses-MacBook-Pro-2.local
*** at Wed Jul 16 19:38:46 2025

         ------------------------------------------------------------
                                   SCF GRAD
                          Rob Parrish, Justin Turney,
                       Andy Simmonett, and Alex Sokolov
         ------------------------------------------------------------

  ==> Geometry <==

    Molecular point group: c2v
    Full point group: C_inf_v

    Geometry (in Angstrom), charge = 0, multiplicity = 5:

       Center              X                  Y                   Z               Mass
    ------------   -----------------  -----------------  -----------------  -----------------
         NE           0.000000000000     0.000000000000     1.265866296794    19.992440176200
         AR           0.000000000000     0.000000000000    -0.633289464529    39.962383123700

  Nuclear repulsion =   50.154863471676279

  ==> Basis Set <==

  Basis Set: CC-PVDZ
    Blend: CC-PVDZ
    Number of shells: 14
    Number of basis functions: 32
    Number of Cartesian functions: 34
    Spherical Harmonics?: true
    Max angular momentum: 2

  ==> DFJKGrad: Density-Fitted SCF Gradients <==

    Gradient:                    1
    J tasked:                  Yes
    K tasked:                  Yes
    wK tasked:                  No
    OpenMP threads:              1
    Integrals threads:           1
    Memory [MiB]:              375
    Schwarz Cutoff:          1E-12
    Fitting Condition:       1E-10

   => Auxiliary Basis Set <=

  Basis Set: (CC-PVDZ AUX)
    Blend: CC-PVDZ-JKFIT
    Number of shells: 60
    Number of basis functions: 182
    Number of Cartesian functions: 211
    Spherical Harmonics?: true
    Max angular momentum: 3

  ==> DFT Potential <==

   => LibXC <=

    Version 6.2.2
    S. Lehtola, C. Steigemann, M. J.T. Oliveira, and M. A.L. Marques.,  SoftwareX 7, 1â€“5 (2018) (10.1016/j.softx.2017.11.002)

   => Composite Functional: B3LYP <=

    B3LYP Hyb-GGA Exchange-Correlation Functional

    P. J. Stephens, F. J. Devlin, C. F. Chabalowski, and M. J. Frisch.,  J. Phys. Chem. 98, 11623 (1994) (10.1021/j100096a001)

    Deriv               =              1
    GGA                 =           TRUE
    Meta                =          FALSE

    Exchange Hybrid     =           TRUE
    MP2 Hybrid          =          FALSE

   => Exchange Functionals <=

    0.0800   Slater exchange
    0.7200         Becke 88

   => Exact (HF) Exchange <=

    0.2000               HF

   => Correlation Functionals <=

    0.1900   Vosko, Wilk & Nusair (VWN5_RPA)
    0.8100   Lee, Yang & Parr

   => LibXC Density Thresholds  <==

    XC_HYB_GGA_XC_B3LYP:  1.00E-15

   => Molecular Quadrature <=

    Radial Scheme          =       TREUTLER
    Pruning Scheme         =           NONE
    Nuclear Scheme         =       TREUTLER

    Blocking Scheme        =         OCTREE
    BS radius alpha        =              1
    Pruning alpha          =              1
    Radial Points          =             75
    Spherical Points       =            302
    Total Points           =          41417
    Total Blocks           =            366
    Max Points             =            256
    Max Functions          =             32
    Weights Tolerance      =       1.00E-15

  -Total Gradient:
     Atom            X                  Y                   Z
    ------   -----------------  -----------------  -----------------
       1        0.000000000000    -0.000000000000    -0.000171231187
       2       -0.000000000000     0.000000000000     0.000227735015

*** tstop() called on Joses-MacBook-Pro-2.local at Wed Jul 16 19:38:46 2025
Module time:
	user time   =       0.56 seconds =       0.01 minutes
	system time =       1.87 seconds =       0.03 minutes
	total time  =          0 seconds =       0.00 minutes
Total time:
	user time   =      53.85 seconds =       0.90 minutes
	system time =      58.99 seconds =       0.98 minutes
	total time  =         10 seconds =       0.17 minutes

    			-----------------------------------------

    			 OPTKING 3.0: for geometry optimizations

    			     By R.A. King, Bethel University

    			        with contributions from

    			    A.V. Copan, J. Cayton, A. Heide

    			-----------------------------------------

	                            ===> Fragment 1 <==

	 Z (Atomic Numbers)          Masses                          Geom
	      10.000000            19.992440          0.00000000  0.00000000  2.39214061
	      18.000000            39.962383          0.00000000  0.00000000 -1.19674365

	 - Coordinate -           - BOHR/RAD -       - ANG/DEG -
	 R(1,2)           =         3.588884           1.899156

	        --- Internal Coordinate Step in ANG or DEG, aJ/ANG or AJ/DEG ---
	-------------------------------------------------------------------------------
	           Coordinate      Previous         Force          Change          New
	           ----------      --------        ------          ------        ------
	               R(1,2)       1.89916        0.00164        0.00055       1.89971
	-------------------------------------------------------------------------------

	                                 ==> Convergence Check <==

	Measures of convergence in internal coordinates in au.

	Criteria marked as inactive (o), active & met (*), and active & unmet ( ).

	----------------------------------------------------------------------------------------------
	   Step    Total Energy     Delta E     Max Force     RMS Force      Max Disp      RMS Disp
	----------------------------------------------------------------------------------------------
	  Convergence Criteria     1.00e-06 *    3.00e-04 *             o    1.20e-03 *             o
	----------------------------------------------------------------------------------------------
	    11    -654.66610092   -2.28e-06      1.99e-04 *    1.99e-04 o    1.04e-03 *    1.04e-03 o  ~
	----------------------------------------------------------------------------------------------

Next Geometry in Ang
	Fragment 1 (Ang)

	   Ne   0.0000000000   0.0000000000   1.2661413733
	   Ar   0.0000000000   0.0000000000  -0.6335645411

    Final optimized geometry and variables:
    Molecular point group: c2v
    Full point group: C_inf_v

    Geometry (in Angstrom), charge = 0, multiplicity = 5:

    NE           0.000000000000     0.000000000000     1.265866296794
    AR           0.000000000000     0.000000000000    -0.633289464529

    Psi4 stopped on: Wednesday, 16 July 2025 07:38PM
    Psi4 wall time for execution: 0:00:11.38

*** Psi4 exiting successfully. Buy a developer a beer!
