                               Psi4 1.9.1 release

  ==> Input File <==

--------------------------------------------------------------------------
molecule {
0 5
N   0.00000        0.60000        0.00000
P   0.00000       -0.60000        0.00000
}

set {
basis              cc-pvdz
reference          uks
maxiter            500
geom_maxiter       500
DAMPING_PERCENTAGE 1
guess              SAP
}

optimize('b3lyp')
--------------------------------------------------------------------------

    Molecular point group: c2v
  Charge       = 0
  Multiplicity = 5
  Basis Set: CC-PVDZ
    Blend: CC-PVDZ
  Basis Set: (CC-PVDZ AUX)
    Blend: CC-PVDZ-JKFIT
  @DF-UKS Final Energy:  -395.43679335590861
    Total Energy =                       -395.4367933559086055
 Dipole X            :          0.0000000            0.0000000            0.0000000
 Dipole Y            :          0.0000000            0.0000000            0.0000000
 Dipole Z            :         -0.4263526            0.3413456           -0.0850070
 Magnitude           :                                                    0.0850070
    Molecular point group: c2v
  Basis Set: CC-PVDZ
    Blend: CC-PVDZ
  Basis Set: (CC-PVDZ AUX)
    Blend: CC-PVDZ-JKFIT
  Basis Set: CC-PVDZ
    Blend: CC-PVDZ
  Basis Set: (CC-PVDZ AUX)
    Blend: CC-PVDZ-JKFIT
  @DF-UKS Final Energy:  -395.59430661551528
    Total Energy =                       -395.5943066155152792
  Basis Set: CC-PVDZ
    Blend: CC-PVDZ
  Basis Set: (CC-PVDZ AUX)
    Blend: CC-PVDZ-JKFIT
  Basis Set: CC-PVDZ
    Blend: CC-PVDZ
  @DF-UKS Final Energy:  -395.75716338942573
    Total Energy =                       -395.7571633894256706
  @DF-UKS Final Energy:  -395.82847317313997
    Total Energy =                       -395.8284731731399688
  @DF-UKS Final Energy:  -395.85668327076479
    Total Energy =                       -395.8566832707648473
  @DF-UKS Final Energy:  -395.86208065251100
    Total Energy =                       -395.8620806525109401
  @DF-UKS Final Energy:  -395.86320863722892
    Total Energy =                       -395.8632086372289791
  @DF-UKS Final Energy:  -395.86348416354605
    Total Energy =                       -395.8634841635460475
  @DF-UKS Final Energy:  -395.86355718137963
    Total Energy =                       -395.8635571813796332
  Basis Set: (CC-PVDZ AUX)
    Blend: CC-PVDZ-JKFIT
  Basis Set: CC-PVDZ
    Blend: CC-PVDZ
  Basis Set: (CC-PVDZ AUX)
    Blend: CC-PVDZ-JKFIT
  @DF-UKS Final Energy:  -395.86358254004739
    Total Energy =                       -395.8635825400474459
  Basis Set: CC-PVDZ
    Blend: CC-PVDZ
  Basis Set: (CC-PVDZ AUX)
    Blend: CC-PVDZ-JKFIT
  Charge       = 0
  Multiplicity = 5
  Basis Set: CC-PVDZ
    Blend: CC-PVDZ
  Basis Set: (CC-PVDZ AUX)
    Blend: CC-PVDZ-JKFIT

    Orbital Energies [Eh]
    ---------------------

    Alpha Occupied:

       1A1   -77.148024     2A1   -14.422657     3A1    -6.613363
       4A1    -4.779447     1B1    -4.777625     1B2    -4.771150
       5A1    -0.848365     6A1    -0.583666     7A1    -0.389320
       2B1    -0.379347     2B2    -0.345206     3B1    -0.237041
       3B2    -0.213679

    Alpha Virtual:

       8A1    -0.012354     9A1     0.325652    10A1     0.382198
       4B1     0.383524     4B2     0.397932     1A2     0.427241
      11A1     0.427353     5B1     0.437379     5B2     0.455799
      12A1     0.596089     6B1     0.729422     6B2     0.753026
      13A1     0.786906    14A1     1.166780     2A2     1.699959
      15A1     1.699969     7B1     1.768122     7B2     1.797541
      16A1     2.143901

    Beta Occupied:

       1A1   -77.139283     2A1   -14.380924     3A1    -6.604097
       4A1    -4.769527     1B1    -4.759815     1B2    -4.757983
       5A1    -0.731248     6A1    -0.468089     2B2    -0.260279

    Beta Virtual:

       7A1    -0.215225     2B1    -0.179473     3B2    -0.078823
       3B1    -0.051378     8A1     0.056654     9A1     0.360721
      10A1     0.419478     4B2     0.427259     4B1     0.430427
       1A2     0.506396    11A1     0.507736     5B2     0.516793
       5B1     0.524033    12A1     0.660751     6B2     0.806192
       6B1     0.821359    13A1     0.862240    14A1     1.231172
       2A2     1.805485    15A1     1.810186     7B2     1.881436
       7B1     1.893924    16A1     2.239961

    Final Occupation by Irrep:
             A1    A2    B1    B2
    DOCC [     6,    0,    1,    2 ]
    SOCC [     1,    0,    2,    1 ]
    NA   [     7,    0,    3,    3 ]
    NB   [     6,    0,    1,    2 ]

  @DF-UKS Final Energy:  -395.86358523617639

   => Energetics <=

    Nuclear Repulsion Energy =             30.3563363183353339
    One-Electron Energy =                -605.7952281558285677
    Two-Electron Energy =                 203.7695188401048654
    DFT Exchange-Correlation Energy =     -24.1942122387880403
    Empirical Dispersion Energy =           0.0000000000000000
    VV10 Nonlocal Energy =                  0.0000000000000000
    Total Energy =                       -395.8635852361763909

  UHF NO Occupations:
  HONO-2 :    3 B1 1.0000000
  HONO-1 :    7 A1 1.0000000
  HONO-0 :    3 B2 1.0000000
  LUNO+0 :    4 B2 0.0020888
  LUNO+1 :    8 A1 0.0008742
  LUNO+2 :    9 A1 0.0006431
  LUNO+3 :   10 A1 0.0000002

Computation Completed

Properties will be evaluated at   0.000000,   0.000000,   0.000000 [a0]

Properties computed using the SCF density matrix

 Multipole Moments:

 ------------------------------------------------------------------------------------
     Multipole            Electronic (a.u.)      Nuclear  (a.u.)        Total (a.u.)
 ------------------------------------------------------------------------------------

 L = 1.  Multiply by 2.5417464519 to convert [e a0] to [Debye]
 Dipole X            :          0.0000000            0.0000000            0.0000000
 Dipole Y            :          0.0000000            0.0000000            0.0000000
 Dipole Z            :         -0.8699717            0.5206598           -0.3493118
 Magnitude           :                                                    0.3493118

 ------------------------------------------------------------------------------------

*** tstop() called on Joses-MacBook-Pro-2.local at Wed Jul 16 19:13:47 2025
Module time:
	user time   =       4.98 seconds =       0.08 minutes
	system time =       3.86 seconds =       0.06 minutes
	total time  =          1 seconds =       0.02 minutes
Total time:
	user time   =      81.00 seconds =       1.35 minutes
	system time =      59.50 seconds =       0.99 minutes
	total time  =         15 seconds =       0.25 minutes

*** tstart() called on Joses-MacBook-Pro-2.local
*** at Wed Jul 16 19:13:47 2025

         ------------------------------------------------------------
                                   SCF GRAD
                          Rob Parrish, Justin Turney,
                       Andy Simmonett, and Alex Sokolov
         ------------------------------------------------------------

  ==> Geometry <==

    Molecular point group: c2v
    Full point group: C_inf_v

    Geometry (in Angstrom), charge = 0, multiplicity = 5:

       Center              X                  Y                   Z               Mass
    ------------   -----------------  -----------------  -----------------  -----------------
         N            0.000000000000     0.000000000000     1.260509526504    14.003074004430
         P            0.000000000000     0.000000000000    -0.569869691122    30.973761998420

  Nuclear repulsion =   30.356336318335334

  ==> Basis Set <==

  Basis Set: CC-PVDZ
    Blend: CC-PVDZ
    Number of shells: 14
    Number of basis functions: 32
    Number of Cartesian functions: 34
    Spherical Harmonics?: true
    Max angular momentum: 2

  ==> DFJKGrad: Density-Fitted SCF Gradients <==

    Gradient:                    1
    J tasked:                  Yes
    K tasked:                  Yes
    wK tasked:                  No
    OpenMP threads:              1
    Integrals threads:           1
    Memory [MiB]:              375
    Schwarz Cutoff:          1E-12
    Fitting Condition:       1E-10

   => Auxiliary Basis Set <=

  Basis Set: (CC-PVDZ AUX)
    Blend: CC-PVDZ-JKFIT
    Number of shells: 60
    Number of basis functions: 182
    Number of Cartesian functions: 211
    Spherical Harmonics?: true
    Max angular momentum: 3

  ==> DFT Potential <==

   => LibXC <=

    Version 6.2.2
    S. Lehtola, C. Steigemann, M. J.T. Oliveira, and M. A.L. Marques.,  SoftwareX 7, 1â€“5 (2018) (10.1016/j.softx.2017.11.002)

   => Composite Functional: B3LYP <=

    B3LYP Hyb-GGA Exchange-Correlation Functional

    P. J. Stephens, F. J. Devlin, C. F. Chabalowski, and M. J. Frisch.,  J. Phys. Chem. 98, 11623 (1994) (10.1021/j100096a001)

    Deriv               =              1
    GGA                 =           TRUE
    Meta                =          FALSE

    Exchange Hybrid     =           TRUE
    MP2 Hybrid          =          FALSE

   => Exchange Functionals <=

    0.0800   Slater exchange
    0.7200         Becke 88

   => Exact (HF) Exchange <=

    0.2000               HF

   => Correlation Functionals <=

    0.1900   Vosko, Wilk & Nusair (VWN5_RPA)
    0.8100   Lee, Yang & Parr

   => LibXC Density Thresholds  <==

    XC_HYB_GGA_XC_B3LYP:  1.00E-15

   => Molecular Quadrature <=

    Radial Scheme          =       TREUTLER
    Pruning Scheme         =           NONE
    Nuclear Scheme         =       TREUTLER

    Blocking Scheme        =         OCTREE
    BS radius alpha        =              1
    Pruning alpha          =              1
    Radial Points          =             75
    Spherical Points       =            302
    Total Points           =          42170
    Total Blocks           =            379
    Max Points             =            255
    Max Functions          =             32
    Weights Tolerance      =       1.00E-15

  -Total Gradient:
     Atom            X                  Y                   Z
    ------   -----------------  -----------------  -----------------
       1       -0.000000000000     0.000000000000    -0.000169851196
       2        0.000000000000     0.000000000000     0.000153233170

*** tstop() called on Joses-MacBook-Pro-2.local at Wed Jul 16 19:13:47 2025
Module time:
	user time   =       1.19 seconds =       0.02 minutes
	system time =       1.76 seconds =       0.03 minutes
	total time  =          0 seconds =       0.00 minutes
Total time:
	user time   =      82.19 seconds =       1.37 minutes
	system time =      61.26 seconds =       1.02 minutes
	total time  =         15 seconds =       0.25 minutes

    			-----------------------------------------

    			 OPTKING 3.0: for geometry optimizations

    			     By R.A. King, Bethel University

    			        with contributions from

    			    A.V. Copan, J. Cayton, A. Heide

    			-----------------------------------------

	                            ===> Fragment 1 <==

	 Z (Atomic Numbers)          Masses                          Geom
	       7.000000            14.003074          0.00000000  0.00000000  2.38201778
	      15.000000            30.973762          0.00000000  0.00000000 -1.07689764

	 - Coordinate -           - BOHR/RAD -       - ANG/DEG -
	 R(1,2)           =         3.458915           1.830379

	        --- Internal Coordinate Step in ANG or DEG, aJ/ANG or AJ/DEG ---
	-------------------------------------------------------------------------------
	           Coordinate      Previous         Force          Change          New
	           ----------      --------        ------          ------        ------
	               R(1,2)       1.83038        0.00133        0.00050       1.83087
	-------------------------------------------------------------------------------

	                                 ==> Convergence Check <==

	Measures of convergence in internal coordinates in au.

	Criteria marked as inactive (o), active & met (*), and active & unmet ( ).

	----------------------------------------------------------------------------------------------
	   Step    Total Energy     Delta E     Max Force     RMS Force      Max Disp      RMS Disp
	----------------------------------------------------------------------------------------------
	  Convergence Criteria     1.00e-06 *    3.00e-04 *             o    1.20e-03 *             o
	----------------------------------------------------------------------------------------------
	    11    -395.86358524   -2.70e-06      1.62e-04 *    1.62e-04 o    9.36e-04 *    9.36e-04 o  ~
	----------------------------------------------------------------------------------------------

Next Geometry in Ang
	Fragment 1 (Ang)

	    N   0.0000000000   0.0000000000   1.2607570659
	    P   0.0000000000   0.0000000000  -0.5701172305

    Final optimized geometry and variables:
    Molecular point group: c2v
    Full point group: C_inf_v

    Geometry (in Angstrom), charge = 0, multiplicity = 5:

    N            0.000000000000     0.000000000000     1.260509526504
    P            0.000000000000     0.000000000000    -0.569869691122

    Psi4 stopped on: Wednesday, 16 July 2025 07:13PM
    Psi4 wall time for execution: 0:00:15.29

*** Psi4 exiting successfully. Buy a developer a beer!
