                               Psi4 1.9.1 release

  ==> Input File <==

--------------------------------------------------------------------------
molecule {
0 5
C   0.00000        0.60000        0.00000
S   0.00000       -0.60000        0.00000
}

set {
basis              cc-pvdz
reference          uks
maxiter            500
geom_maxiter       500
DAMPING_PERCENTAGE 1
guess              SAP
}

optimize('b3lyp')
--------------------------------------------------------------------------

    Molecular point group: c2v
  Charge       = 0
  Multiplicity = 5
  Basis Set: CC-PVDZ
    Blend: CC-PVDZ
  Basis Set: (CC-PVDZ AUX)
    Blend: CC-PVDZ-JKFIT
  @DF-UKS Final Energy:  -435.58509771544982
    Total Energy =                       -435.5850977154498196
 Dipole X            :          0.0000000            0.0000000            0.0000000
 Dipole Y            :          0.0000000            0.0000000            0.0000000
 Dipole Z            :          0.1751553           -0.0086419            0.1665134
 Magnitude           :                                                    0.1665134
    Molecular point group: c2v
  Basis Set: CC-PVDZ
    Blend: CC-PVDZ
  Basis Set: (CC-PVDZ AUX)
    Blend: CC-PVDZ-JKFIT
  Basis Set: CC-PVDZ
    Blend: CC-PVDZ
  Basis Set: (CC-PVDZ AUX)
    Blend: CC-PVDZ-JKFIT
  @DF-UKS Final Energy:  -435.84059273453300
    Total Energy =                       -435.8405927345330042
  Basis Set: CC-PVDZ
    Blend: CC-PVDZ
  Basis Set: (CC-PVDZ AUX)
    Blend: CC-PVDZ-JKFIT
  Basis Set: CC-PVDZ
    Blend: CC-PVDZ
  @DF-UKS Final Energy:  -435.94385029506515
    Total Energy =                       -435.9438502950651468
  @DF-UKS Final Energy:  -435.99055872532767
    Total Energy =                       -435.9905587253276735
  @DF-UKS Final Energy:  -436.00471124472159
    Total Energy =                       -436.0047112447215909
  @DF-UKS Final Energy:  -436.01162239684220
    Total Energy =                       -436.0116223968421991
  @DF-UKS Final Energy:  -436.01367888170051
    Total Energy =                       -436.0136788817005140
  @DF-UKS Final Energy:  -436.01458911322828
    Total Energy =                       -436.0145891132282827
  @DF-UKS Final Energy:  -436.01479250087186
    Total Energy =                       -436.0147925008718630
  @DF-UKS Final Energy:  -436.01484986751979
    Total Energy =                       -436.0148498675197288
  Basis Set: (CC-PVDZ AUX)
    Blend: CC-PVDZ-JKFIT
  Basis Set: CC-PVDZ
    Blend: CC-PVDZ
  Basis Set: (CC-PVDZ AUX)
    Blend: CC-PVDZ-JKFIT
  @DF-UKS Final Energy:  -436.01485961192054
    Total Energy =                       -436.0148596119205422
  Basis Set: CC-PVDZ
    Blend: CC-PVDZ
  Basis Set: (CC-PVDZ AUX)
    Blend: CC-PVDZ-JKFIT
  Charge       = 0
  Multiplicity = 5
  Basis Set: CC-PVDZ
    Blend: CC-PVDZ
  Basis Set: (CC-PVDZ AUX)
    Blend: CC-PVDZ-JKFIT

    Orbital Energies [Eh]
    ---------------------

    Alpha Occupied:

       1A1   -88.957972     2A1   -10.270418     3A1    -8.015416
       1B1    -5.984921     4A1    -5.980012     1B2    -5.967238
       5A1    -0.800576     6A1    -0.580262     2B1    -0.378100
       7A1    -0.370713     2B2    -0.343140     3B1    -0.231565
       3B2    -0.212478

    Alpha Virtual:

       8A1     0.018878     9A1     0.405588    10A1     0.425089
       4B1     0.435657     5B1     0.450292     4B2     0.456903
      11A1     0.459060     5B2     0.471919     1A2     0.531237
      12A1     0.532438     6B1     0.556665     6B2     0.580092
      13A1     0.762090    14A1     0.911002     2A2     1.116955
      15A1     1.117010     7B1     1.273748     7B2     1.287428
      16A1     1.662340

    Beta Occupied:

       1A1   -88.949708     2A1   -10.229885     3A1    -8.006994
       4A1    -5.970101     1B1    -5.964347     1B2    -5.959989
       5A1    -0.727078     6A1    -0.462700     2B2    -0.292728

    Beta Virtual:

       2B1    -0.215298     7A1    -0.189406     3B2    -0.034740
       3B1    -0.026329     8A1     0.083638     9A1     0.439177
      10A1     0.463829     4B2     0.480588     4B1     0.486466
      11A1     0.533726     5B2     0.548733     5B1     0.552174
       1A2     0.593310    12A1     0.597875     6B2     0.620712
       6B1     0.624941    13A1     0.817156    14A1     0.963848
       2A2     1.242394    15A1     1.242888     7B2     1.380179
       7B1     1.381440    16A1     1.750777

    Final Occupation by Irrep:
             A1    A2    B1    B2
    DOCC [     6,    0,    1,    2 ]
    SOCC [     1,    0,    2,    1 ]
    NA   [     7,    0,    3,    3 ]
    NB   [     6,    0,    1,    2 ]

  @DF-UKS Final Energy:  -436.01486032764763

   => Energetics <=

    Nuclear Repulsion Energy =             27.8254000742418022
    One-Electron Energy =                -655.2323442501084401
    Two-Electron Energy =                 216.3561850892014320
    DFT Exchange-Correlation Energy =     -24.9641012409823340
    Empirical Dispersion Energy =           0.0000000000000000
    VV10 Nonlocal Energy =                  0.0000000000000000
    Total Energy =                       -436.0148603276476251

  UHF NO Occupations:
  HONO-2 :    2 B1 1.0000000
  HONO-1 :    7 A1 1.0000000
  HONO-0 :    3 B1 1.0000000
  LUNO+0 :    8 A1 0.0007977
  LUNO+1 :    4 B2 0.0007543
  LUNO+2 :    9 A1 0.0005690
  LUNO+3 :   10 A1 0.0000002

Computation Completed

Properties will be evaluated at   0.000000,   0.000000,   0.000000 [a0]

Properties computed using the SCF density matrix

 Multipole Moments:

 ------------------------------------------------------------------------------------
     Multipole            Electronic (a.u.)      Nuclear  (a.u.)        Total (a.u.)
 ------------------------------------------------------------------------------------

 L = 1.  Multiply by 2.5417464519 to convert [e a0] to [Debye]
 Dipole X            :          0.0000000            0.0000000            0.0000000
 Dipole Y            :          0.0000000            0.0000000            0.0000000
 Dipole Z            :         -0.3002552           -0.0131479           -0.3134031
 Magnitude           :                                                    0.3134031

 ------------------------------------------------------------------------------------

*** tstop() called on Joses-MacBook-Pro-2.local at Wed Jul 16 19:05:32 2025
Module time:
	user time   =       3.77 seconds =       0.06 minutes
	system time =       3.88 seconds =       0.06 minutes
	total time  =          1 seconds =       0.02 minutes
Total time:
	user time   =      66.40 seconds =       1.11 minutes
	system time =      65.74 seconds =       1.10 minutes
	total time  =         13 seconds =       0.22 minutes

*** tstart() called on Joses-MacBook-Pro-2.local
*** at Wed Jul 16 19:05:32 2025

         ------------------------------------------------------------
                                   SCF GRAD
                          Rob Parrish, Justin Turney,
                       Andy Simmonett, and Alex Sokolov
         ------------------------------------------------------------

  ==> Geometry <==

    Molecular point group: c2v
    Full point group: C_inf_v

    Geometry (in Angstrom), charge = 0, multiplicity = 5:

       Center              X                  Y                   Z               Mass
    ------------   -----------------  -----------------  -----------------  -----------------
         C            0.000000000000     0.000000000000     1.327470251328    12.000000000000
         S            0.000000000000     0.000000000000    -0.498236192740    31.972071174400

  Nuclear repulsion =   27.825400074241802

  ==> Basis Set <==

  Basis Set: CC-PVDZ
    Blend: CC-PVDZ
    Number of shells: 14
    Number of basis functions: 32
    Number of Cartesian functions: 34
    Spherical Harmonics?: true
    Max angular momentum: 2

  ==> DFJKGrad: Density-Fitted SCF Gradients <==

    Gradient:                    1
    J tasked:                  Yes
    K tasked:                  Yes
    wK tasked:                  No
    OpenMP threads:              1
    Integrals threads:           1
    Memory [MiB]:              375
    Schwarz Cutoff:          1E-12
    Fitting Condition:       1E-10

   => Auxiliary Basis Set <=

  Basis Set: (CC-PVDZ AUX)
    Blend: CC-PVDZ-JKFIT
    Number of shells: 60
    Number of basis functions: 182
    Number of Cartesian functions: 211
    Spherical Harmonics?: true
    Max angular momentum: 3

  ==> DFT Potential <==

   => LibXC <=

    Version 6.2.2
    S. Lehtola, C. Steigemann, M. J.T. Oliveira, and M. A.L. Marques.,  SoftwareX 7, 1â€“5 (2018) (10.1016/j.softx.2017.11.002)

   => Composite Functional: B3LYP <=

    B3LYP Hyb-GGA Exchange-Correlation Functional

    P. J. Stephens, F. J. Devlin, C. F. Chabalowski, and M. J. Frisch.,  J. Phys. Chem. 98, 11623 (1994) (10.1021/j100096a001)

    Deriv               =              1
    GGA                 =           TRUE
    Meta                =          FALSE

    Exchange Hybrid     =           TRUE
    MP2 Hybrid          =          FALSE

   => Exchange Functionals <=

    0.0800   Slater exchange
    0.7200         Becke 88

   => Exact (HF) Exchange <=

    0.2000               HF

   => Correlation Functionals <=

    0.1900   Vosko, Wilk & Nusair (VWN5_RPA)
    0.8100   Lee, Yang & Parr

   => LibXC Density Thresholds  <==

    XC_HYB_GGA_XC_B3LYP:  1.00E-15

   => Molecular Quadrature <=

    Radial Scheme          =       TREUTLER
    Pruning Scheme         =           NONE
    Nuclear Scheme         =       TREUTLER

    Blocking Scheme        =         OCTREE
    BS radius alpha        =              1
    Pruning alpha          =              1
    Radial Points          =             75
    Spherical Points       =            302
    Total Points           =          41389
    Total Blocks           =            367
    Max Points             =            256
    Max Functions          =             32
    Weights Tolerance      =       1.00E-15

  -Total Gradient:
     Atom            X                  Y                   Z
    ------   -----------------  -----------------  -----------------
       1        0.000000000000     0.000000000000    -0.000090046954
       2       -0.000000000000    -0.000000000000     0.000080360424

*** tstop() called on Joses-MacBook-Pro-2.local at Wed Jul 16 19:05:32 2025
Module time:
	user time   =       0.44 seconds =       0.01 minutes
	system time =       1.94 seconds =       0.03 minutes
	total time  =          0 seconds =       0.00 minutes
Total time:
	user time   =      66.84 seconds =       1.11 minutes
	system time =      67.68 seconds =       1.13 minutes
	total time  =         13 seconds =       0.22 minutes

    			-----------------------------------------

    			 OPTKING 3.0: for geometry optimizations

    			     By R.A. King, Bethel University

    			        with contributions from

    			    A.V. Copan, J. Cayton, A. Heide

    			-----------------------------------------

	                            ===> Fragment 1 <==

	 Z (Atomic Numbers)          Masses                          Geom
	       6.000000            12.000000          0.00000000  0.00000000  2.50855521
	      16.000000            31.972071          0.00000000  0.00000000 -0.94152995

	 - Coordinate -           - BOHR/RAD -       - ANG/DEG -
	 R(1,2)           =         3.450085           1.825706

	        --- Internal Coordinate Step in ANG or DEG, aJ/ANG or AJ/DEG ---
	-------------------------------------------------------------------------------
	           Coordinate      Previous         Force          Change          New
	           ----------      --------        ------          ------        ------
	               R(1,2)       1.82571        0.00070        0.00027       1.82598
	-------------------------------------------------------------------------------

	                                 ==> Convergence Check <==

	Measures of convergence in internal coordinates in au.

	Criteria marked as inactive (o), active & met (*), and active & unmet ( ).

	----------------------------------------------------------------------------------------------
	   Step    Total Energy     Delta E     Max Force     RMS Force      Max Disp      RMS Disp
	----------------------------------------------------------------------------------------------
	  Convergence Criteria     1.00e-06 *    3.00e-04 *             o    1.20e-03 *             o
	----------------------------------------------------------------------------------------------
	    12    -436.01486033   -7.16e-07 *    8.52e-05 *    8.52e-05 o    5.18e-04 *    5.18e-04 o  ~
	----------------------------------------------------------------------------------------------

Next Geometry in Ang
	Fragment 1 (Ang)

	    C   0.0000000000   0.0000000000   1.3276072700
	    S   0.0000000000   0.0000000000  -0.4983732114

    Final optimized geometry and variables:
    Molecular point group: c2v
    Full point group: C_inf_v

    Geometry (in Angstrom), charge = 0, multiplicity = 5:

    C            0.000000000000     0.000000000000     1.327470251328
    S            0.000000000000     0.000000000000    -0.498236192740

    Psi4 stopped on: Wednesday, 16 July 2025 07:05PM
    Psi4 wall time for execution: 0:00:14.07

*** Psi4 exiting successfully. Buy a developer a beer!
