                               Psi4 1.9.1 release

  ==> Input File <==

--------------------------------------------------------------------------
molecule {
0 5
O   0.00000        0.60000        0.00000
Ne   0.00000       -0.60000        0.00000
}

set {
basis              cc-pvdz
reference          uks
maxiter            500
geom_maxiter       500
DAMPING_PERCENTAGE 1
guess              SAP
}

optimize('b3lyp')
--------------------------------------------------------------------------

    Molecular point group: c2v
  Charge       = 0
  Multiplicity = 5
  Basis Set: CC-PVDZ
    Blend: CC-PVDZ
  Basis Set: (CC-PVDZ AUX)
    Blend: CC-PVDZ-JKFIT
  @DF-UKS Final Energy:  -202.62831079894079
    Total Energy =                       -202.6283107989407881
 Dipole X            :          0.0000000            0.0000000            0.0000000
 Dipole Y            :          0.0000000            0.0000000            0.0000000
 Dipole Z            :         -1.1665486           -0.0006065           -1.1671551
 Magnitude           :                                                    1.1671551
    Molecular point group: c2v
  Basis Set: CC-PVDZ
    Blend: CC-PVDZ
  Basis Set: (CC-PVDZ AUX)
    Blend: CC-PVDZ-JKFIT
  Basis Set: CC-PVDZ
    Blend: CC-PVDZ
  Basis Set: (CC-PVDZ AUX)
    Blend: CC-PVDZ-JKFIT
  @DF-UKS Final Energy:  -202.81798468200870
    Total Energy =                       -202.8179846820086993
  Basis Set: CC-PVDZ
    Blend: CC-PVDZ
  Basis Set: (CC-PVDZ AUX)
    Blend: CC-PVDZ-JKFIT
  Basis Set: CC-PVDZ
    Blend: CC-PVDZ
  @DF-UKS Final Energy:  -202.84617012682463
    Total Energy =                       -202.8461701268246316
  @DF-UKS Final Energy:  -202.88041421849681
    Total Energy =                       -202.8804142184968100
  @DF-UKS Final Energy:  -202.93387645935883
    Total Energy =                       -202.9338764593588280
  @DF-UKS Final Energy:  -202.96078133526493
    Total Energy =                       -202.9607813352649259
  @DF-UKS Final Energy:  -202.99219080177690
    Total Energy =                       -202.9921908017768999
  @DF-UKS Final Energy:  -202.99270757078344
    Total Energy =                       -202.9927075707834661
  @DF-UKS Final Energy:  -202.99331642808278
    Total Energy =                       -202.9933164280828066
  Basis Set: (CC-PVDZ AUX)
    Blend: CC-PVDZ-JKFIT
  Basis Set: CC-PVDZ
    Blend: CC-PVDZ
  Basis Set: (CC-PVDZ AUX)
    Blend: CC-PVDZ-JKFIT
  @DF-UKS Final Energy:  -202.99333758536787
    Total Energy =                       -202.9933375853678683
  Basis Set: CC-PVDZ
    Blend: CC-PVDZ
  Basis Set: (CC-PVDZ AUX)
    Blend: CC-PVDZ-JKFIT
  Charge       = 0
  Multiplicity = 5
  Basis Set: CC-PVDZ
    Blend: CC-PVDZ
  Basis Set: (CC-PVDZ AUX)
    Blend: CC-PVDZ-JKFIT

    Orbital Energies [Eh]
    ---------------------

    Alpha Occupied:

       1A1   -30.923701     2A1   -19.372458     3A1    -1.395748
       4A1    -1.144422     5A1    -0.566772     1B2    -0.555720
       1B1    -0.555720     2B2    -0.504309     2B1    -0.504309
       6A1    -0.502250     7A1     0.626205

    Alpha Virtual:

       3B1     0.740395     3B2     0.740395     8A1     0.945343
       4B2     1.392728     4B1     1.392728     9A1     1.456491
      10A1     1.874593    11A1     2.336443     1A2     2.336449
       5B1     2.357475     5B2     2.357475    12A1     2.368011
       2A2     4.761520    13A1     4.761553     6B2     4.762669
       6B1     4.762669    14A1     4.764157

    Beta Occupied:

       1A1   -30.921144     2A1   -19.273496     3A1    -1.392510
       4A1    -0.888824     1B2    -0.502901     1B1    -0.502901
       5A1    -0.498521

    Beta Virtual:

       2B2    -0.234128     2B1    -0.234128     6A1    -0.189736
       3B1     0.877562     3B2     0.877562     7A1     0.900098
       8A1     1.098780     4B2     1.393846     4B1     1.393846
       9A1     1.477852    10A1     1.882381    11A1     2.518213
       1A2     2.518219     5B1     2.545829     5B2     2.545829
      12A1     2.557449     2A2     4.762395    13A1     4.762428
       6B2     4.765519     6B1     4.765519    14A1     4.767676

    Final Occupation by Irrep:
             A1    A2    B1    B2
    DOCC [     5,    0,    1,    1 ]
    SOCC [     2,    0,    1,    1 ]
    NA   [     7,    0,    2,    2 ]
    NB   [     5,    0,    1,    1 ]

  @DF-UKS Final Energy:  -202.99333846373494

   => Energetics <=

    Nuclear Repulsion Energy =             16.2566920059004509
    One-Electron Energy =                -316.9521529848715318
    Two-Electron Energy =                 114.6864233724535893
    DFT Exchange-Correlation Energy =     -16.9843008572174483
    Empirical Dispersion Energy =           0.0000000000000000
    VV10 Nonlocal Energy =                  0.0000000000000000
    Total Energy =                       -202.9933384637349434

  UHF NO Occupations:
  HONO-2 :    2 B1 1.0000000
  HONO-1 :    6 A1 1.0000000
  HONO-0 :    7 A1 1.0000000
  LUNO+0 :    8 A1 0.0010273
  LUNO+1 :    9 A1 0.0000066
  LUNO+2 :    3 B1 0.0000005
  LUNO+3 :    3 B2 0.0000005

Computation Completed

Properties will be evaluated at   0.000000,   0.000000,   0.000000 [a0]

Properties computed using the SCF density matrix

 Multipole Moments:

 ------------------------------------------------------------------------------------
     Multipole            Electronic (a.u.)      Nuclear  (a.u.)        Total (a.u.)
 ------------------------------------------------------------------------------------

 L = 1.  Multiply by 2.5417464519 to convert [e a0] to [Debye]
 Dipole X            :          0.0000000            0.0000000            0.0000000
 Dipole Y            :          0.0000000            0.0000000            0.0000000
 Dipole Z            :          0.1973357           -0.0013161            0.1960195
 Magnitude           :                                                    0.1960195

 ------------------------------------------------------------------------------------

*** tstop() called on Joses-MacBook-Pro-2.local at Wed Jul 16 19:18:23 2025
Module time:
	user time   =       3.86 seconds =       0.06 minutes
	system time =       2.76 seconds =       0.05 minutes
	total time  =          1 seconds =       0.02 minutes
Total time:
	user time   =      58.83 seconds =       0.98 minutes
	system time =      51.18 seconds =       0.85 minutes
	total time  =         11 seconds =       0.18 minutes

*** tstart() called on Joses-MacBook-Pro-2.local
*** at Wed Jul 16 19:18:23 2025

         ------------------------------------------------------------
                                   SCF GRAD
                          Rob Parrish, Justin Turney,
                       Andy Simmonett, and Alex Sokolov
         ------------------------------------------------------------

  ==> Geometry <==

    Molecular point group: c2v
    Full point group: C_inf_v

    Geometry (in Angstrom), charge = 0, multiplicity = 5:

       Center              X                  Y                   Z               Mass
    ------------   -----------------  -----------------  -----------------  -----------------
         O            0.000000000000     0.000000000000     1.446687808266    15.994914619570
         NE           0.000000000000     0.000000000000    -1.157419893242    19.992440176200

  Nuclear repulsion =   16.256692005900451

  ==> Basis Set <==

  Basis Set: CC-PVDZ
    Blend: CC-PVDZ
    Number of shells: 12
    Number of basis functions: 28
    Number of Cartesian functions: 30
    Spherical Harmonics?: true
    Max angular momentum: 2

  ==> DFJKGrad: Density-Fitted SCF Gradients <==

    Gradient:                    1
    J tasked:                  Yes
    K tasked:                  Yes
    wK tasked:                  No
    OpenMP threads:              1
    Integrals threads:           1
    Memory [MiB]:              375
    Schwarz Cutoff:          1E-12
    Fitting Condition:       1E-10

   => Auxiliary Basis Set <=

  Basis Set: (CC-PVDZ AUX)
    Blend: CC-PVDZ-JKFIT
    Number of shells: 48
    Number of basis functions: 140
    Number of Cartesian functions: 162
    Spherical Harmonics?: true
    Max angular momentum: 3

  ==> DFT Potential <==

   => LibXC <=

    Version 6.2.2
    S. Lehtola, C. Steigemann, M. J.T. Oliveira, and M. A.L. Marques.,  SoftwareX 7, 1â€“5 (2018) (10.1016/j.softx.2017.11.002)

   => Composite Functional: B3LYP <=

    B3LYP Hyb-GGA Exchange-Correlation Functional

    P. J. Stephens, F. J. Devlin, C. F. Chabalowski, and M. J. Frisch.,  J. Phys. Chem. 98, 11623 (1994) (10.1021/j100096a001)

    Deriv               =              1
    GGA                 =           TRUE
    Meta                =          FALSE

    Exchange Hybrid     =           TRUE
    MP2 Hybrid          =          FALSE

   => Exchange Functionals <=

    0.0800   Slater exchange
    0.7200         Becke 88

   => Exact (HF) Exchange <=

    0.2000               HF

   => Correlation Functionals <=

    0.1900   Vosko, Wilk & Nusair (VWN5_RPA)
    0.8100   Lee, Yang & Parr

   => LibXC Density Thresholds  <==

    XC_HYB_GGA_XC_B3LYP:  1.00E-15

   => Molecular Quadrature <=

    Radial Scheme          =       TREUTLER
    Pruning Scheme         =           NONE
    Nuclear Scheme         =       TREUTLER

    Blocking Scheme        =         OCTREE
    BS radius alpha        =              1
    Pruning alpha          =              1
    Radial Points          =             75
    Spherical Points       =            302
    Total Points           =          42381
    Total Blocks           =            378
    Max Points             =            255
    Max Functions          =             28
    Weights Tolerance      =       1.00E-15

  -Total Gradient:
     Atom            X                  Y                   Z
    ------   -----------------  -----------------  -----------------
       1        0.000000000000    -0.000000000000    -0.000061790235
       2        0.000000000000    -0.000000000000     0.000073209919

*** tstop() called on Joses-MacBook-Pro-2.local at Wed Jul 16 19:18:23 2025
Module time:
	user time   =       1.11 seconds =       0.02 minutes
	system time =       1.20 seconds =       0.02 minutes
	total time  =          0 seconds =       0.00 minutes
Total time:
	user time   =      59.95 seconds =       1.00 minutes
	system time =      52.38 seconds =       0.87 minutes
	total time  =         11 seconds =       0.18 minutes

    			-----------------------------------------

    			 OPTKING 3.0: for geometry optimizations

    			     By R.A. King, Bethel University

    			        with contributions from

    			    A.V. Copan, J. Cayton, A. Heide

    			-----------------------------------------

	                            ===> Fragment 1 <==

	 Z (Atomic Numbers)          Masses                          Geom
	       8.000000            15.994915          0.00000000  0.00000000  2.73384375
	      10.000000            19.992440          0.00000000  0.00000000 -2.18720661

	 - Coordinate -           - BOHR/RAD -       - ANG/DEG -
	 R(1,2)           =         4.921050           2.604108

	        --- Internal Coordinate Step in ANG or DEG, aJ/ANG or AJ/DEG ---
	-------------------------------------------------------------------------------
	           Coordinate      Previous         Force          Change          New
	           ----------      --------        ------          ------        ------
	               R(1,2)       2.60411        0.00056        0.00053       2.60463
	-------------------------------------------------------------------------------

	                                 ==> Convergence Check <==

	Measures of convergence in internal coordinates in au.

	Criteria marked as inactive (o), active & met (*), and active & unmet ( ).

	----------------------------------------------------------------------------------------------
	   Step    Total Energy     Delta E     Max Force     RMS Force      Max Disp      RMS Disp
	----------------------------------------------------------------------------------------------
	  Convergence Criteria     1.00e-06 *    3.00e-04 *             o    1.20e-03 *             o
	----------------------------------------------------------------------------------------------
	    11    -202.99333846   -8.78e-07 *    6.75e-05 *    6.75e-05 o    9.92e-04 *    9.92e-04 o  ~
	----------------------------------------------------------------------------------------------

Next Geometry in Ang
	Fragment 1 (Ang)

	    O   0.0000000000   0.0000000000   1.4469504080
	   Ne   0.0000000000   0.0000000000  -1.1576824930

    Final optimized geometry and variables:
    Molecular point group: c2v
    Full point group: C_inf_v

    Geometry (in Angstrom), charge = 0, multiplicity = 5:

    O            0.000000000000     0.000000000000     1.446687808266
    NE           0.000000000000     0.000000000000    -1.157419893242

    Psi4 stopped on: Wednesday, 16 July 2025 07:18PM
    Psi4 wall time for execution: 0:00:11.94

*** Psi4 exiting successfully. Buy a developer a beer!
