                               Psi4 1.9.1 release

  ==> Input File <==

--------------------------------------------------------------------------
molecule {
0 5
Mg   0.00000        0.60000        0.00000
S   0.00000       -0.60000        0.00000
}

set {
basis              cc-pvdz
reference          uks
maxiter            500
geom_maxiter       500
DAMPING_PERCENTAGE 1
guess              SAP
}

optimize('b3lyp')
--------------------------------------------------------------------------

    Molecular point group: c2v
  Charge       = 0
  Multiplicity = 5
  Basis Set: CC-PVDZ
    Blend: CC-PVDZ
  Basis Set: (CC-PVDZ AUX)
    Blend: CC-PVDZ-JKFIT + DEF2-UNIVERSAL-JKFIT
  @DF-UKS Final Energy:  -596.85652950155031
    Total Energy =                       -596.8565295015503125
 Dipole X            :          0.0000000            0.0000000            0.0000000
 Dipole Y            :          0.0000000            0.0000000            0.0000000
 Dipole Z            :         -1.8433548           -0.0038828           -1.8472377
 Magnitude           :                                                    1.8472377
    Molecular point group: c2v
  Basis Set: CC-PVDZ
    Blend: CC-PVDZ
  Basis Set: (CC-PVDZ AUX)
    Blend: CC-PVDZ-JKFIT + DEF2-UNIVERSAL-JKFIT
  Basis Set: CC-PVDZ
    Blend: CC-PVDZ
  Basis Set: (CC-PVDZ AUX)
    Blend: CC-PVDZ-JKFIT + DEF2-UNIVERSAL-JKFIT
  @DF-UKS Final Energy:  -596.87653773892430
    Total Energy =                       -596.8765377389244122
  Basis Set: CC-PVDZ
    Blend: CC-PVDZ
  Basis Set: (CC-PVDZ AUX)
    Blend: CC-PVDZ-JKFIT + DEF2-UNIVERSAL-JKFIT
  Basis Set: CC-PVDZ
    Blend: CC-PVDZ
  @DF-UKS Final Energy:  -596.91498813985572
    Total Energy =                       -596.9149881398557227
  @DF-UKS Final Energy:  -597.05254105271536
    Total Energy =                       -597.0525410527153554
  @DF-UKS Final Energy:  -597.59449594568173
    Total Energy =                       -597.5944959456816150
  @DF-UKS Final Energy:  -597.81640404932455
    Total Energy =                       -597.8164040493245466
  @DF-UKS Final Energy:  -597.94455286564846
    Total Energy =                       -597.9445528656483475
  @DF-UKS Final Energy:  -598.01333482351777
    Total Energy =                       -598.0133348235177664
  @DF-UKS Final Energy:  -598.05289525467333
    Total Energy =                       -598.0528952546733308
  @DF-UKS Final Energy:  -598.07611772274947
    Total Energy =                       -598.0761177227494727
  @DF-UKS Final Energy:  -598.09037108730729
    Total Energy =                       -598.0903710873072896
  @DF-UKS Final Energy:  -598.09932566534746
    Total Energy =                       -598.0993256653474646
  @DF-UKS Final Energy:  -598.10491531407615
    Total Energy =                       -598.1049153140760382
  @DF-UKS Final Energy:  -598.10830697103574
    Total Energy =                       -598.1083069710357449
  @DF-UKS Final Energy:  -598.10835806146679
    Total Energy =                       -598.1083580614667881
  @DF-UKS Final Energy:  -598.11057374209111
    Total Energy =                       -598.1105737420911055
  @DF-UKS Final Energy:  -598.11059014523107
    Total Energy =                       -598.1105901452310718
  @DF-UKS Final Energy:  -598.11179848707945
    Total Energy =                       -598.1117984870793407
  @DF-UKS Final Energy:  -598.11180382302052
    Total Energy =                       -598.1118038230205229
  @DF-UKS Final Energy:  -598.11180912622274
    Total Energy =                       -598.1118091262227381
  @DF-UKS Final Energy:  -598.11247585580543
    Total Energy =                       -598.1124758558054282
  @DF-UKS Final Energy:  -598.11247762960022
    Total Energy =                       -598.1124776296002210
  @DF-UKS Final Energy:  -598.11247939646535
    Total Energy =                       -598.1124793964652326
  @DF-UKS Final Energy:  -598.11248115666638
    Total Energy =                       -598.1124811566663766
  @DF-UKS Final Energy:  -598.11248291004927
    Total Energy =                       -598.1124829100492661
  @DF-UKS Final Energy:  -598.11248465668029
    Total Energy =                       -598.1124846566802944
  @DF-UKS Final Energy:  -598.11285543556437
    Total Energy =                       -598.1128554355643701
  @DF-UKS Final Energy:  -598.11285606978504
    Total Energy =                       -598.1128560697850389
  @DF-UKS Final Energy:  -598.11285670263578
    Total Energy =                       -598.1128567026357814
  @DF-UKS Final Energy:  -598.11285733415252
    Total Energy =                       -598.1128573341525225
  @DF-UKS Final Energy:  -598.11285796426841
    Total Energy =                       -598.1128579642684144
  @DF-UKS Final Energy:  -598.11285859299801
    Total Energy =                       -598.1128585929980090
  @DF-UKS Final Energy:  -598.11285922036097
    Total Energy =                       -598.1128592203610879
  @DF-UKS Final Energy:  -598.11285984637243
    Total Energy =                       -598.1128598463724302
  @DF-UKS Final Energy:  -598.11286047099702
    Total Energy =                       -598.1128604709970205
  @DF-UKS Final Energy:  -598.11286109431978
    Total Energy =                       -598.1128610943197828
  @DF-UKS Final Energy:  -598.11286171630866
    Total Energy =                       -598.1128617163086574
  @DF-UKS Final Energy:  -598.11286233689316
    Total Energy =                       -598.1128623368931585
  Basis Set: (CC-PVDZ AUX)
    Blend: CC-PVDZ-JKFIT + DEF2-UNIVERSAL-JKFIT
  Basis Set: CC-PVDZ
    Blend: CC-PVDZ
  Basis Set: (CC-PVDZ AUX)
    Blend: CC-PVDZ-JKFIT + DEF2-UNIVERSAL-JKFIT
  @DF-UKS Final Energy:  -598.11286295616981
    Total Energy =                       -598.1128629561698062
  Basis Set: CC-PVDZ
    Blend: CC-PVDZ
  Basis Set: (CC-PVDZ AUX)
    Blend: CC-PVDZ-JKFIT + DEF2-UNIVERSAL-JKFIT
  Charge       = 0
  Multiplicity = 5
  Basis Set: CC-PVDZ
    Blend: CC-PVDZ
  Basis Set: (CC-PVDZ AUX)
    Blend: CC-PVDZ-JKFIT + DEF2-UNIVERSAL-JKFIT

    Orbital Energies [Eh]
    ---------------------

    Alpha Occupied:

       1A1   -88.935243     2A1   -46.883924     3A1    -7.993533
       4A1    -5.962792     1B2    -5.962761     1B1    -5.942958
       5A1    -3.162851     6A1    -1.907131     2B2    -1.907116
       2B1    -1.904089     7A1    -0.724805     8A1    -0.334200
       3B2    -0.333499     3B1    -0.284722     9A1    -0.245291
       4B1    -0.107116

    Alpha Virtual:

       4B2    -0.057949    10A1    -0.057575    11A1     0.080268
       5B1     0.130294     5B2     0.139541    12A1     0.140431
       6B1     0.269862     1A2     0.270017    13A1     0.273140
      14A1     0.280458     6B2     0.281220    15A1     0.445469
       7B2     0.451412     7B1     0.482724    16A1     0.487836
       8B2     0.517496    17A1     0.520576     8B1     0.556261
       2A2     0.556321    18A1     0.571250

    Beta Occupied:

       1A1   -88.924459     2A1   -46.879682     3A1    -7.982527
       4A1    -5.941465     1B2    -5.941387     1B1    -5.936442
       5A1    -3.155731     6A1    -1.902868     2B2    -1.902854
       2B1    -1.895264     7A1    -0.631990     3B1    -0.257922

    Beta Virtual:

       8A1    -0.178290     3B2    -0.176057     9A1    -0.138554
       4B2    -0.015882    10A1    -0.015649     4B1     0.000647
      11A1     0.108397    12A1     0.162495     5B2     0.163339
       5B1     0.178206    13A1     0.316467     6B2     0.316941
       1A2     0.337524     6B1     0.337844    14A1     0.343991
      15A1     0.485058     7B1     0.495606     7B2     0.501273
      16A1     0.534253     8B1     0.613359     2A2     0.613556
      17A1     0.617091     8B2     0.625338    18A1     0.626983

    Final Occupation by Irrep:
             A1    A2    B1    B2
    DOCC [     7,    0,    3,    2 ]
    SOCC [     2,    0,    1,    1 ]
    NA   [     9,    0,    4,    3 ]
    NB   [     7,    0,    3,    2 ]

  @DF-UKS Final Energy:  -598.11308793490980

   => Energetics <=

    Nuclear Repulsion Energy =             19.7991773601644603
    One-Electron Energy =                -867.7282380230807348
    Two-Electron Energy =                 283.7191948502147625
    DFT Exchange-Correlation Energy =     -33.9032221222082342
    Empirical Dispersion Energy =           0.0000000000000000
    VV10 Nonlocal Energy =                  0.0000000000000000
    Total Energy =                       -598.1130879349097995

  UHF NO Occupations:
  HONO-2 :    3 B2 1.0000000
  HONO-1 :    8 A1 1.0000000
  HONO-0 :    9 A1 1.0000000
  LUNO+0 :   10 A1 0.0010175
  LUNO+1 :    5 B1 0.0001015
  LUNO+2 :   11 A1 0.0000009
  LUNO+3 :    4 B2 0.0000008

Computation Completed

Properties will be evaluated at   0.000000,   0.000000,   0.000000 [a0]

Properties computed using the SCF density matrix

 Multipole Moments:

 ------------------------------------------------------------------------------------
     Multipole            Electronic (a.u.)      Nuclear  (a.u.)        Total (a.u.)
 ------------------------------------------------------------------------------------

 L = 1.  Multiply by 2.5417464519 to convert [e a0] to [Debye]
 Dipole X            :          0.0000000            0.0000000            0.0000000
 Dipole Y            :          0.0000000            0.0000000            0.0000000
 Dipole Z            :         -0.0065373           -0.0166044           -0.0231418
 Magnitude           :                                                    0.0231418

 ------------------------------------------------------------------------------------

*** tstop() called on Joses-MacBook-Pro-2.local at Wed Jul 16 20:00:29 2025
Module time:
	user time   =       5.65 seconds =       0.09 minutes
	system time =       3.03 seconds =       0.05 minutes
	total time  =          0 seconds =       0.00 minutes
Total time:
	user time   =     408.15 seconds =       6.80 minutes
	system time =     172.96 seconds =       2.88 minutes
	total time  =         56 seconds =       0.93 minutes

*** tstart() called on Joses-MacBook-Pro-2.local
*** at Wed Jul 16 20:00:29 2025

         ------------------------------------------------------------
                                   SCF GRAD
                          Rob Parrish, Justin Turney,
                       Andy Simmonett, and Alex Sokolov
         ------------------------------------------------------------

  ==> Geometry <==

    Molecular point group: c2v
    Full point group: C_inf_v

    Geometry (in Angstrom), charge = 0, multiplicity = 5:

       Center              X                  Y                   Z               Mass
    ------------   -----------------  -----------------  -----------------  -----------------
         MG           0.000000000000     0.000000000000     2.932045380055    23.985041697000
         S            0.000000000000     0.000000000000    -2.199583202305    31.972071174400

  Nuclear repulsion =   19.799177360164460

  ==> Basis Set <==

  Basis Set: CC-PVDZ
    Blend: CC-PVDZ
    Number of shells: 16
    Number of basis functions: 36
    Number of Cartesian functions: 38
    Spherical Harmonics?: true
    Max angular momentum: 2

  ==> DFJKGrad: Density-Fitted SCF Gradients <==

    Gradient:                    1
    J tasked:                  Yes
    K tasked:                  Yes
    wK tasked:                  No
    OpenMP threads:              1
    Integrals threads:           1
    Memory [MiB]:              375
    Schwarz Cutoff:          1E-12
    Fitting Condition:       1E-10

   => Auxiliary Basis Set <=

  Basis Set: (CC-PVDZ AUX)
    Blend: CC-PVDZ-JKFIT + DEF2-UNIVERSAL-JKFIT
    Number of shells: 70
    Number of basis functions: 224
    Number of Cartesian functions: 267
    Spherical Harmonics?: true
    Max angular momentum: 4

  ==> DFT Potential <==

   => LibXC <=

    Version 6.2.2
    S. Lehtola, C. Steigemann, M. J.T. Oliveira, and M. A.L. Marques.,  SoftwareX 7, 1â€“5 (2018) (10.1016/j.softx.2017.11.002)

   => Composite Functional: B3LYP <=

    B3LYP Hyb-GGA Exchange-Correlation Functional

    P. J. Stephens, F. J. Devlin, C. F. Chabalowski, and M. J. Frisch.,  J. Phys. Chem. 98, 11623 (1994) (10.1021/j100096a001)

    Deriv               =              1
    GGA                 =           TRUE
    Meta                =          FALSE

    Exchange Hybrid     =           TRUE
    MP2 Hybrid          =          FALSE

   => Exchange Functionals <=

    0.0800   Slater exchange
    0.7200         Becke 88

   => Exact (HF) Exchange <=

    0.2000               HF

   => Correlation Functionals <=

    0.1900   Vosko, Wilk & Nusair (VWN5_RPA)
    0.8100   Lee, Yang & Parr

   => LibXC Density Thresholds  <==

    XC_HYB_GGA_XC_B3LYP:  1.00E-15

   => Molecular Quadrature <=

    Radial Scheme          =       TREUTLER
    Pruning Scheme         =           NONE
    Nuclear Scheme         =       TREUTLER

    Blocking Scheme        =         OCTREE
    BS radius alpha        =              1
    Pruning alpha          =              1
    Radial Points          =             75
    Spherical Points       =            302
    Total Points           =          43159
    Total Blocks           =            451
    Max Points             =            256
    Max Functions          =             36
    Weights Tolerance      =       1.00E-15

  -Total Gradient:
     Atom            X                  Y                   Z
    ------   -----------------  -----------------  -----------------
       1       -0.000000000000     0.000000000000    -0.000257267451
       2        0.000000000000     0.000000000000     0.000262409266

*** tstop() called on Joses-MacBook-Pro-2.local at Wed Jul 16 20:00:30 2025
Module time:
	user time   =       1.48 seconds =       0.02 minutes
	system time =       2.11 seconds =       0.04 minutes
	total time  =          1 seconds =       0.02 minutes
Total time:
	user time   =     409.63 seconds =       6.83 minutes
	system time =     175.07 seconds =       2.92 minutes
	total time  =         57 seconds =       0.95 minutes

    			-----------------------------------------

    			 OPTKING 3.0: for geometry optimizations

    			     By R.A. King, Bethel University

    			        with contributions from

    			    A.V. Copan, J. Cayton, A. Heide

    			-----------------------------------------

	                            ===> Fragment 1 <==

	 Z (Atomic Numbers)          Masses                          Geom
	      12.000000            23.985042          0.00000000  0.00000000  5.54076276
	      16.000000            31.972071          0.00000000  0.00000000 -4.15660984

	 - Coordinate -           - BOHR/RAD -       - ANG/DEG -
	 R(1,2)           =         9.697373           5.131629

	        --- Internal Coordinate Step in ANG or DEG, aJ/ANG or AJ/DEG ---
	-------------------------------------------------------------------------------
	           Coordinate      Previous         Force          Change          New
	           ----------      --------        ------          ------        ------
	               R(1,2)       5.13163        0.00214        0.00049       5.13212
	-------------------------------------------------------------------------------

	                                 ==> Convergence Check <==

	Measures of convergence in internal coordinates in au.

	Criteria marked as inactive (o), active & met (*), and active & unmet ( ).

	----------------------------------------------------------------------------------------------
	   Step    Total Energy     Delta E     Max Force     RMS Force      Max Disp      RMS Disp
	----------------------------------------------------------------------------------------------
	  Convergence Criteria     1.00e-06 *    3.00e-04 *             o    1.20e-03 *             o
	----------------------------------------------------------------------------------------------
	    42    -598.11308793   -2.25e-04      2.60e-04 *    2.60e-04 o    9.21e-04 *    9.21e-04 o  ~
	----------------------------------------------------------------------------------------------

Next Geometry in Ang
	Fragment 1 (Ang)

	   Mg   0.0000000000   0.0000000000   2.9322891010
	    S   0.0000000000   0.0000000000  -2.1998269233

    Final optimized geometry and variables:
    Molecular point group: c2v
    Full point group: C_inf_v

    Geometry (in Angstrom), charge = 0, multiplicity = 5:

    MG           0.000000000000     0.000000000000     2.932045380055
    S            0.000000000000     0.000000000000    -2.199583202305

    Psi4 stopped on: Wednesday, 16 July 2025 08:00PM
    Psi4 wall time for execution: 0:00:56.88

*** Psi4 exiting successfully. Buy a developer a beer!
