                               Psi4 1.9.1 release

  ==> Input File <==

--------------------------------------------------------------------------
molecule {
0 5
F   0.00000        0.60000        0.00000
P   0.00000       -0.60000        0.00000
}

set {
basis              cc-pvdz
reference          uks
maxiter            500
geom_maxiter       500
DAMPING_PERCENTAGE 1
guess              SAP
}

optimize('b3lyp')
--------------------------------------------------------------------------

    Molecular point group: c2v
  Charge       = 0
  Multiplicity = 5
  Basis Set: CC-PVDZ
    Blend: CC-PVDZ
  Basis Set: (CC-PVDZ AUX)
    Blend: CC-PVDZ-JKFIT
  @DF-UKS Final Energy:  -440.54820019139561
    Total Energy =                       -440.5482001913956083
 Dipole X            :          0.0000000            0.0000000            0.0000000
 Dipole Y            :          0.0000000            0.0000000            0.0000000
 Dipole Z            :          0.3119008           -0.2819010            0.0299998
 Magnitude           :                                                    0.0299998
    Molecular point group: c2v
  Basis Set: CC-PVDZ
    Blend: CC-PVDZ
  Basis Set: (CC-PVDZ AUX)
    Blend: CC-PVDZ-JKFIT
  Basis Set: CC-PVDZ
    Blend: CC-PVDZ
  Basis Set: (CC-PVDZ AUX)
    Blend: CC-PVDZ-JKFIT
  @DF-UKS Final Energy:  -440.71630036597702
    Total Energy =                       -440.7163003659769629
  Basis Set: CC-PVDZ
    Blend: CC-PVDZ
  Basis Set: (CC-PVDZ AUX)
    Blend: CC-PVDZ-JKFIT
  Basis Set: CC-PVDZ
    Blend: CC-PVDZ
  @DF-UKS Final Energy:  -440.81065495127194
    Total Energy =                       -440.8106549512719425
  @DF-UKS Final Energy:  -440.85290863999791
    Total Energy =                       -440.8529086399979064
  @DF-UKS Final Energy:  -440.88869719891437
    Total Energy =                       -440.8886971989143149
  @DF-UKS Final Energy:  -440.92382092336936
    Total Energy =                       -440.9238209233693624
  @DF-UKS Final Energy:  -440.96381963719875
    Total Energy =                       -440.9638196371987533
  @DF-UKS Final Energy:  -440.96894753202599
    Total Energy =                       -440.9689475320259930
  @DF-UKS Final Energy:  -440.98849255390434
    Total Energy =                       -440.9884925539043365
  @DF-UKS Final Energy:  -440.98977235136124
    Total Energy =                       -440.9897723513612391
  @DF-UKS Final Energy:  -440.99736846552230
    Total Energy =                       -440.9973684655222996
  @DF-UKS Final Energy:  -440.99766072111589
    Total Energy =                       -440.9976607211158921
  @DF-UKS Final Energy:  -441.00078782244975
    Total Energy =                       -441.0007878224497517
  @DF-UKS Final Energy:  -441.00188905448215
    Total Energy =                       -441.0018890544822057
  @DF-UKS Final Energy:  -441.00247832803683
    Total Energy =                       -441.0024783280368297
  @DF-UKS Final Energy:  -441.00276283294875
    Total Energy =                       -441.0027628329487470
  @DF-UKS Final Energy:  -441.00290450456180
    Total Energy =                       -441.0029045045617977
  @DF-UKS Final Energy:  -441.00297460375504
    Total Energy =                       -441.0029746037550353
  @DF-UKS Final Energy:  -441.00301013548466
    Total Energy =                       -441.0030101354846579
  @DF-UKS Final Energy:  -441.00302552487716
    Total Energy =                       -441.0030255248771596
  @DF-UKS Final Energy:  -441.00303426349660
    Total Energy =                       -441.0030342634966019
  @DF-UKS Final Energy:  -441.00303882977772
    Total Energy =                       -441.0030388297777222
  @DF-UKS Final Energy:  -441.00304054541823
    Total Energy =                       -441.0030405454182301
  @DF-UKS Final Energy:  -441.00304395290641
    Total Energy =                       -441.0030439529064097
  Basis Set: (CC-PVDZ AUX)
    Blend: CC-PVDZ-JKFIT
  Basis Set: CC-PVDZ
    Blend: CC-PVDZ
  Basis Set: (CC-PVDZ AUX)
    Blend: CC-PVDZ-JKFIT
  @DF-UKS Final Energy:  -441.00304638855636
    Total Energy =                       -441.0030463885563563
  Basis Set: CC-PVDZ
    Blend: CC-PVDZ
  Basis Set: (CC-PVDZ AUX)
    Blend: CC-PVDZ-JKFIT
  Charge       = 0
  Multiplicity = 5
  Basis Set: CC-PVDZ
    Blend: CC-PVDZ
  Basis Set: (CC-PVDZ AUX)
    Blend: CC-PVDZ-JKFIT

    Orbital Energies [Eh]
    ---------------------

    Alpha Occupied:

       1A1   -77.117210     2A1   -24.780733     3A1    -6.585374
       4A1    -4.748792     1B1    -4.748788     1B2    -4.748788
       5A1    -1.210786     6A1    -0.596137     7A1    -0.538115
       2B1    -0.448825     2B2    -0.448825     8A1    -0.256882
       3B2    -0.256726     3B1    -0.256726

    Alpha Virtual:

       9A1     0.330663    10A1     0.400273     4B1     0.400581
       4B2     0.400581    11A1     0.432235     5B2     0.432282
       5B1     0.432282    12A1     0.432357     1A2     0.432359
      13A1     1.036332     6B1     1.091610     6B2     1.091610
      14A1     1.423808    15A1     3.439622     7B1     3.461581
       7B2     3.461581     2A2     3.531024    16A1     3.531060

    Beta Occupied:

       1A1   -77.104986     2A1   -24.750084     3A1    -6.572448
       4A1    -4.729683     1B1    -4.729672     1B2    -4.729672
       5A1    -1.119934     6A1    -0.479357     2B1    -0.417470
       2B2    -0.417470

    Beta Virtual:

       7A1    -0.243998     8A1    -0.109886     3B2    -0.109704
       3B1    -0.109704     9A1     0.374612    10A1     0.450107
       4B1     0.450383     4B2     0.450383    11A1     0.529230
       5B2     0.529280     5B1     0.529280    12A1     0.529367
       1A2     0.529369     6B1     1.109607     6B2     1.109607
      13A1     1.147820    14A1     1.471072     2A2     3.546173
      15A1     3.546206     7B1     3.556659     7B2     3.556659
      16A1     3.576125

    Final Occupation by Irrep:
             A1    A2    B1    B2
    DOCC [     6,    0,    2,    2 ]
    SOCC [     2,    0,    1,    1 ]
    NA   [     8,    0,    3,    3 ]
    NB   [     6,    0,    2,    2 ]

  @DF-UKS Final Energy:  -441.00305416008700

   => Energetics <=

    Nuclear Repulsion Energy =             14.2160412682115087
    One-Electron Energy =                -639.3274226856442510
    Two-Electron Energy =                 211.1770989194852461
    DFT Exchange-Correlation Energy =     -27.0687716621394792
    Empirical Dispersion Energy =           0.0000000000000000
    VV10 Nonlocal Energy =                  0.0000000000000000
    Total Energy =                       -441.0030541600869469

  UHF NO Occupations:
  HONO-2 :    3 B1 1.0000000
  HONO-1 :    7 A1 1.0000000
  HONO-0 :    8 A1 1.0000000
  LUNO+0 :    9 A1 0.0003066
  LUNO+1 :   10 A1 0.0000885
  LUNO+2 :    4 B2 0.0000545
  LUNO+3 :    4 B1 0.0000545

Computation Completed

Properties will be evaluated at   0.000000,   0.000000,   0.000000 [a0]

Properties computed using the SCF density matrix

 Multipole Moments:

 ------------------------------------------------------------------------------------
     Multipole            Electronic (a.u.)      Nuclear  (a.u.)        Total (a.u.)
 ------------------------------------------------------------------------------------

 L = 1.  Multiply by 2.5417464519 to convert [e a0] to [Debye]
 Dipole X            :          0.0000000            0.0000000            0.0000000
 Dipole Y            :          0.0000000            0.0000000            0.0000000
 Dipole Z            :          1.1776223           -1.1805153           -0.0028930
 Magnitude           :                                                    0.0028930

 ------------------------------------------------------------------------------------

*** tstop() called on Joses-MacBook-Pro-2.local at Wed Jul 16 19:29:44 2025
Module time:
	user time   =       2.23 seconds =       0.04 minutes
	system time =       2.71 seconds =       0.05 minutes
	total time  =          0 seconds =       0.00 minutes
Total time:
	user time   =     125.72 seconds =       2.10 minutes
	system time =     119.00 seconds =       1.98 minutes
	total time  =         23 seconds =       0.38 minutes

*** tstart() called on Joses-MacBook-Pro-2.local
*** at Wed Jul 16 19:29:44 2025

         ------------------------------------------------------------
                                   SCF GRAD
                          Rob Parrish, Justin Turney,
                       Andy Simmonett, and Alex Sokolov
         ------------------------------------------------------------

  ==> Geometry <==

    Molecular point group: c2v
    Full point group: C_inf_v

    Geometry (in Angstrom), charge = 0, multiplicity = 5:

       Center              X                  Y                   Z               Mass
    ------------   -----------------  -----------------  -----------------  -----------------
         F            0.000000000000     0.000000000000     3.114741547694    18.998403162730
         P            0.000000000000     0.000000000000    -1.910491714691    30.973761998420

  Nuclear repulsion =   14.216041268211509

  ==> Basis Set <==

  Basis Set: CC-PVDZ
    Blend: CC-PVDZ
    Number of shells: 14
    Number of basis functions: 32
    Number of Cartesian functions: 34
    Spherical Harmonics?: true
    Max angular momentum: 2

  ==> DFJKGrad: Density-Fitted SCF Gradients <==

    Gradient:                    1
    J tasked:                  Yes
    K tasked:                  Yes
    wK tasked:                  No
    OpenMP threads:              1
    Integrals threads:           1
    Memory [MiB]:              375
    Schwarz Cutoff:          1E-12
    Fitting Condition:       1E-10

   => Auxiliary Basis Set <=

  Basis Set: (CC-PVDZ AUX)
    Blend: CC-PVDZ-JKFIT
    Number of shells: 60
    Number of basis functions: 182
    Number of Cartesian functions: 211
    Spherical Harmonics?: true
    Max angular momentum: 3

  ==> DFT Potential <==

   => LibXC <=

    Version 6.2.2
    S. Lehtola, C. Steigemann, M. J.T. Oliveira, and M. A.L. Marques.,  SoftwareX 7, 1â€“5 (2018) (10.1016/j.softx.2017.11.002)

   => Composite Functional: B3LYP <=

    B3LYP Hyb-GGA Exchange-Correlation Functional

    P. J. Stephens, F. J. Devlin, C. F. Chabalowski, and M. J. Frisch.,  J. Phys. Chem. 98, 11623 (1994) (10.1021/j100096a001)

    Deriv               =              1
    GGA                 =           TRUE
    Meta                =          FALSE

    Exchange Hybrid     =           TRUE
    MP2 Hybrid          =          FALSE

   => Exchange Functionals <=

    0.0800   Slater exchange
    0.7200         Becke 88

   => Exact (HF) Exchange <=

    0.2000               HF

   => Correlation Functionals <=

    0.1900   Vosko, Wilk & Nusair (VWN5_RPA)
    0.8100   Lee, Yang & Parr

   => LibXC Density Thresholds  <==

    XC_HYB_GGA_XC_B3LYP:  1.00E-15

   => Molecular Quadrature <=

    Radial Scheme          =       TREUTLER
    Pruning Scheme         =           NONE
    Nuclear Scheme         =       TREUTLER

    Blocking Scheme        =         OCTREE
    BS radius alpha        =              1
    Pruning alpha          =              1
    Radial Points          =             75
    Spherical Points       =            302
    Total Points           =          42666
    Total Blocks           =            434
    Max Points             =            254
    Max Functions          =             32
    Weights Tolerance      =       1.00E-15

  -Total Gradient:
     Atom            X                  Y                   Z
    ------   -----------------  -----------------  -----------------
       1        0.000000000000    -0.000000000000    -0.000018378726
       2        0.000000000000    -0.000000000000     0.000012355703

*** tstop() called on Joses-MacBook-Pro-2.local at Wed Jul 16 19:29:44 2025
Module time:
	user time   =       1.16 seconds =       0.02 minutes
	system time =       1.01 seconds =       0.02 minutes
	total time  =          0 seconds =       0.00 minutes
Total time:
	user time   =     126.88 seconds =       2.11 minutes
	system time =     120.01 seconds =       2.00 minutes
	total time  =         23 seconds =       0.38 minutes

    			-----------------------------------------

    			 OPTKING 3.0: for geometry optimizations

    			     By R.A. King, Bethel University

    			        with contributions from

    			    A.V. Copan, J. Cayton, A. Heide

    			-----------------------------------------

	                            ===> Fragment 1 <==

	 Z (Atomic Numbers)          Masses                          Geom
	       9.000000            18.998403          0.00000000  0.00000000  5.88600848
	      15.000000            30.973762          0.00000000  0.00000000 -3.61030611

	 - Coordinate -           - BOHR/RAD -       - ANG/DEG -
	 R(1,2)           =         9.496315           5.025233

	        --- Internal Coordinate Step in ANG or DEG, aJ/ANG or AJ/DEG ---
	-------------------------------------------------------------------------------
	           Coordinate      Previous         Force          Change          New
	           ----------      --------        ------          ------        ------
	               R(1,2)       5.02523        0.00013        0.00006       5.02529
	-------------------------------------------------------------------------------

	                                 ==> Convergence Check <==

	Measures of convergence in internal coordinates in au.

	Criteria marked as inactive (o), active & met (*), and active & unmet ( ).

	----------------------------------------------------------------------------------------------
	   Step    Total Energy     Delta E     Max Force     RMS Force      Max Disp      RMS Disp
	----------------------------------------------------------------------------------------------
	  Convergence Criteria     1.00e-06 *    3.00e-04 *             o    1.20e-03 *             o
	----------------------------------------------------------------------------------------------
	    26    -441.00305416   -7.77e-06      1.54e-05 *    1.54e-05 o    1.11e-04 *    1.11e-04 o  ~
	----------------------------------------------------------------------------------------------

Next Geometry in Ang
	Fragment 1 (Ang)

	    F   0.0000000000   0.0000000000   3.1147709115
	    P   0.0000000000   0.0000000000  -1.9105210785

    Final optimized geometry and variables:
    Molecular point group: c2v
    Full point group: C_inf_v

    Geometry (in Angstrom), charge = 0, multiplicity = 5:

    F            0.000000000000     0.000000000000     3.114741547694
    P            0.000000000000     0.000000000000    -1.910491714691

    Psi4 stopped on: Wednesday, 16 July 2025 07:29PM
    Psi4 wall time for execution: 0:00:24.35

*** Psi4 exiting successfully. Buy a developer a beer!
