                               Psi4 1.9.1 release

  ==> Input File <==

--------------------------------------------------------------------------
molecule {
0 5
F   0.00000        0.60000        0.00000
Al   0.00000       -0.60000        0.00000
}

set {
basis              cc-pvdz
reference          uks
maxiter            500
geom_maxiter       500
DAMPING_PERCENTAGE 1
guess              SAP
}

optimize('b3lyp')
--------------------------------------------------------------------------

    Molecular point group: c2v
  Charge       = 0
  Multiplicity = 5
  Basis Set: CC-PVDZ
    Blend: CC-PVDZ
  Basis Set: (CC-PVDZ AUX)
    Blend: CC-PVDZ-JKFIT
  @DF-UKS Final Energy:  -341.45638385142826
    Total Energy =                       -341.4563838514283134
 Dipole X            :          0.0000000            0.0000000            0.0000000
 Dipole Y            :          0.0000000            0.0000000            0.0000000
 Dipole Z            :          1.5192030           -0.2044455            1.3147575
 Magnitude           :                                                    1.3147575
    Molecular point group: c2v
  Basis Set: CC-PVDZ
    Blend: CC-PVDZ
  Basis Set: (CC-PVDZ AUX)
    Blend: CC-PVDZ-JKFIT
  Basis Set: CC-PVDZ
    Blend: CC-PVDZ
  Basis Set: (CC-PVDZ AUX)
    Blend: CC-PVDZ-JKFIT
  @DF-UKS Final Energy:  -341.66343730249201
    Total Energy =                       -341.6634373024920706
  Basis Set: CC-PVDZ
    Blend: CC-PVDZ
  Basis Set: (CC-PVDZ AUX)
    Blend: CC-PVDZ-JKFIT
  Basis Set: CC-PVDZ
    Blend: CC-PVDZ
  @DF-UKS Final Energy:  -341.78772904589277
    Total Energy =                       -341.7877290458927177
  @DF-UKS Final Energy:  -341.86242734943409
    Total Energy =                       -341.8624273494340855
  @DF-UKS Final Energy:  -341.90776239082356
    Total Energy =                       -341.9077623908235637
  @DF-UKS Final Energy:  -341.93429918232027
    Total Energy =                       -341.9342991823202738
  @DF-UKS Final Energy:  -341.94997934745811
    Total Energy =                       -341.9499793474581111
  @DF-UKS Final Energy:  -341.95895983371173
    Total Energy =                       -341.9589598337117309
  @DF-UKS Final Energy:  -341.96392895708789
    Total Energy =                       -341.9639289570880010
  @DF-UKS Final Energy:  -341.96660771928373
    Total Energy =                       -341.9666077192837292
  @DF-UKS Final Energy:  -341.96803021935824
    Total Energy =                       -341.9680302193582406
  @DF-UKS Final Energy:  -341.96878099485133
    Total Energy =                       -341.9687809948513291
  @DF-UKS Final Energy:  -341.96917975839091
    Total Energy =                       -341.9691797583909647
  @DF-UKS Final Energy:  -341.96939033519379
    Total Energy =                       -341.9693903351937934
  @DF-UKS Final Energy:  -341.96949744183223
    Total Energy =                       -341.9694974418321749
  @DF-UKS Final Energy:  -341.96954712043441
    Total Energy =                       -341.9695471204344130
  @DF-UKS Final Energy:  -341.96956828365586
    Total Energy =                       -341.9695682836558603
  @DF-UKS Final Energy:  -341.96957421752023
    Total Energy =                       -341.9695742175202895
  @DF-UKS Final Energy:  -341.96957770602353
    Total Energy =                       -341.9695777060235287
  Basis Set: (CC-PVDZ AUX)
    Blend: CC-PVDZ-JKFIT
  Basis Set: CC-PVDZ
    Blend: CC-PVDZ
  Basis Set: (CC-PVDZ AUX)
    Blend: CC-PVDZ-JKFIT
  @DF-UKS Final Energy:  -341.96957939919525
    Total Energy =                       -341.9695793991952542
  Basis Set: CC-PVDZ
    Blend: CC-PVDZ
  Basis Set: (CC-PVDZ AUX)
    Blend: CC-PVDZ-JKFIT
  Charge       = 0
  Multiplicity = 5
  Basis Set: CC-PVDZ
    Blend: CC-PVDZ
  Basis Set: (CC-PVDZ AUX)
    Blend: CC-PVDZ-JKFIT

    Orbital Energies [Eh]
    ---------------------

    Alpha Occupied:

       1A1   -56.123563     2A1   -24.792126     3A1    -4.203702
       4A1    -2.759248     1B1    -2.755227     1B2    -2.755227
       5A1    -1.221929     6A1    -0.549836     2B2    -0.459691
       2B1    -0.459691     7A1    -0.373210     3B1    -0.163567
       3B2    -0.163567

    Alpha Virtual:

       8A1    -0.106381     9A1     0.140397     4B2     0.188290
       4B1     0.188290    10A1     0.197451    11A1     0.219231
       1A2     0.219231     5B1     0.223448     5B2     0.223448
      12A1     0.232889    13A1     1.044955     6B2     1.082148
       6B1     1.082148    14A1     1.430643    15A1     3.428605
       7B2     3.450292     7B1     3.450292     2A2     3.520039
      16A1     3.520242

    Beta Occupied:

       1A1   -56.114442     2A1   -24.761531     3A1    -4.190437
       4A1    -2.751504     1B1    -2.740033     1B2    -2.740033
       5A1    -1.131225     2B1    -0.428371     2B2    -0.428371

    Beta Virtual:

       6A1    -0.257988     7A1    -0.212240     8A1    -0.045475
       3B2    -0.019572     3B1    -0.019572     9A1     0.189113
      10A1     0.228594     4B2     0.249902     4B1     0.249902
      11A1     0.301597     5B1     0.310475     5B2     0.310475
       1A2     0.333202    12A1     0.333202     6B2     1.100055
       6B1     1.100055    13A1     1.155198    14A1     1.477923
       2A2     3.535191    15A1     3.535379     7B2     3.545192
       7B1     3.545192    16A1     3.564792

    Final Occupation by Irrep:
             A1    A2    B1    B2
    DOCC [     5,    0,    2,    2 ]
    SOCC [     2,    0,    1,    1 ]
    NA   [     7,    0,    3,    3 ]
    NB   [     5,    0,    2,    2 ]

  @DF-UKS Final Energy:  -341.96958017848903

   => Energetics <=

    Nuclear Repulsion Energy =             14.9683898321232185
    One-Electron Energy =                -505.1104757551500484
    Two-Electron Energy =                 171.5370018612389060
    DFT Exchange-Correlation Energy =     -23.3644961167011012
    Empirical Dispersion Energy =           0.0000000000000000
    VV10 Nonlocal Energy =                  0.0000000000000000
    Total Energy =                       -341.9695801784890250

  UHF NO Occupations:
  HONO-2 :    6 A1 1.0000000
  HONO-1 :    3 B2 1.0000000
  HONO-0 :    7 A1 1.0000000
  LUNO+0 :    8 A1 0.0003065
  LUNO+1 :    4 B1 0.0000549
  LUNO+2 :    4 B2 0.0000549
  LUNO+3 :    9 A1 0.0000008

Computation Completed

Properties will be evaluated at   0.000000,   0.000000,   0.000000 [a0]

Properties computed using the SCF density matrix

 Multipole Moments:

 ------------------------------------------------------------------------------------
     Multipole            Electronic (a.u.)      Nuclear  (a.u.)        Total (a.u.)
 ------------------------------------------------------------------------------------

 L = 1.  Multiply by 2.5417464519 to convert [e a0] to [Debye]
 Dipole X            :          0.0000000            0.0000000            0.0000000
 Dipole Y            :          0.0000000            0.0000000            0.0000000
 Dipole Z            :          0.7110371           -0.7047064            0.0063307
 Magnitude           :                                                    0.0063307

 ------------------------------------------------------------------------------------

*** tstop() called on Joses-MacBook-Pro-2.local at Wed Jul 16 19:28:06 2025
Module time:
	user time   =       2.31 seconds =       0.04 minutes
	system time =       3.01 seconds =       0.05 minutes
	total time  =          0 seconds =       0.00 minutes
Total time:
	user time   =     102.71 seconds =       1.71 minutes
	system time =      96.38 seconds =       1.61 minutes
	total time  =         19 seconds =       0.32 minutes

*** tstart() called on Joses-MacBook-Pro-2.local
*** at Wed Jul 16 19:28:06 2025

         ------------------------------------------------------------
                                   SCF GRAD
                          Rob Parrish, Justin Turney,
                       Andy Simmonett, and Alex Sokolov
         ------------------------------------------------------------

  ==> Geometry <==

    Molecular point group: c2v
    Full point group: C_inf_v

    Geometry (in Angstrom), charge = 0, multiplicity = 5:

       Center              X                  Y                   Z               Mass
    ------------   -----------------  -----------------  -----------------  -----------------
         F            0.000000000000     0.000000000000     2.427225931204    18.998403162730
         AL           0.000000000000     0.000000000000    -1.709072918758    26.981538530000

  Nuclear repulsion =   14.968389832123222

  ==> Basis Set <==

  Basis Set: CC-PVDZ
    Blend: CC-PVDZ
    Number of shells: 14
    Number of basis functions: 32
    Number of Cartesian functions: 34
    Spherical Harmonics?: true
    Max angular momentum: 2

  ==> DFJKGrad: Density-Fitted SCF Gradients <==

    Gradient:                    1
    J tasked:                  Yes
    K tasked:                  Yes
    wK tasked:                  No
    OpenMP threads:              1
    Integrals threads:           1
    Memory [MiB]:              375
    Schwarz Cutoff:          1E-12
    Fitting Condition:       1E-10

   => Auxiliary Basis Set <=

  Basis Set: (CC-PVDZ AUX)
    Blend: CC-PVDZ-JKFIT
    Number of shells: 60
    Number of basis functions: 182
    Number of Cartesian functions: 211
    Spherical Harmonics?: true
    Max angular momentum: 3

  ==> DFT Potential <==

   => LibXC <=

    Version 6.2.2
    S. Lehtola, C. Steigemann, M. J.T. Oliveira, and M. A.L. Marques.,  SoftwareX 7, 1â€“5 (2018) (10.1016/j.softx.2017.11.002)

   => Composite Functional: B3LYP <=

    B3LYP Hyb-GGA Exchange-Correlation Functional

    P. J. Stephens, F. J. Devlin, C. F. Chabalowski, and M. J. Frisch.,  J. Phys. Chem. 98, 11623 (1994) (10.1021/j100096a001)

    Deriv               =              1
    GGA                 =           TRUE
    Meta                =          FALSE

    Exchange Hybrid     =           TRUE
    MP2 Hybrid          =          FALSE

   => Exchange Functionals <=

    0.0800   Slater exchange
    0.7200         Becke 88

   => Exact (HF) Exchange <=

    0.2000               HF

   => Correlation Functionals <=

    0.1900   Vosko, Wilk & Nusair (VWN5_RPA)
    0.8100   Lee, Yang & Parr

   => LibXC Density Thresholds  <==

    XC_HYB_GGA_XC_B3LYP:  1.00E-15

   => Molecular Quadrature <=

    Radial Scheme          =       TREUTLER
    Pruning Scheme         =           NONE
    Nuclear Scheme         =       TREUTLER

    Blocking Scheme        =         OCTREE
    BS radius alpha        =              1
    Pruning alpha          =              1
    Radial Points          =             75
    Spherical Points       =            302
    Total Points           =          43591
    Total Blocks           =            422
    Max Points             =            255
    Max Functions          =             32
    Weights Tolerance      =       1.00E-15

  -Total Gradient:
     Atom            X                  Y                   Z
    ------   -----------------  -----------------  -----------------
       1        0.000000000000    -0.000000000000     0.000036739774
       2        0.000000000000     0.000000000000     0.000039745068

*** tstop() called on Joses-MacBook-Pro-2.local at Wed Jul 16 19:28:07 2025
Module time:
	user time   =       0.85 seconds =       0.01 minutes
	system time =       1.23 seconds =       0.02 minutes
	total time  =          1 seconds =       0.02 minutes
Total time:
	user time   =     103.56 seconds =       1.73 minutes
	system time =      97.62 seconds =       1.63 minutes
	total time  =         20 seconds =       0.33 minutes

    			-----------------------------------------

    			 OPTKING 3.0: for geometry optimizations

    			     By R.A. King, Bethel University

    			        with contributions from

    			    A.V. Copan, J. Cayton, A. Heide

    			-----------------------------------------

	                            ===> Fragment 1 <==

	 Z (Atomic Numbers)          Masses                          Geom
	       9.000000            18.998403          0.00000000  0.00000000  4.58679225
	      13.000000            26.981539          0.00000000  0.00000000 -3.22967974

	 - Coordinate -           - BOHR/RAD -       - ANG/DEG -
	 R(1,2)           =         7.816472           4.136299

	        --- Internal Coordinate Step in ANG or DEG, aJ/ANG or AJ/DEG ---
	-------------------------------------------------------------------------------
	           Coordinate      Previous         Force          Change          New
	           ----------      --------        ------          ------        ------
	               R(1,2)       4.13630        0.00001        0.00430       4.14060
	-------------------------------------------------------------------------------

	                                 ==> Convergence Check <==

	Measures of convergence in internal coordinates in au.

	Criteria marked as inactive (o), active & met (*), and active & unmet ( ).

	----------------------------------------------------------------------------------------------
	   Step    Total Energy     Delta E     Max Force     RMS Force      Max Disp      RMS Disp
	----------------------------------------------------------------------------------------------
	  Convergence Criteria     1.00e-06 *    3.00e-04 *             o    1.20e-03 *             o
	----------------------------------------------------------------------------------------------
	    21    -341.96958018   -7.79e-07 *    1.50e-06 *    1.50e-06 o    8.12e-03      8.12e-03 o  ~
	----------------------------------------------------------------------------------------------

Next Geometry in Ang
	Fragment 1 (Ang)

	    F   0.0000000000   0.0000000000   2.4293747376
	   Al   0.0000000000   0.0000000000  -1.7112217251

    Final optimized geometry and variables:
    Molecular point group: c2v
    Full point group: C_inf_v

    Geometry (in Angstrom), charge = 0, multiplicity = 5:

    F            0.000000000000     0.000000000000     2.427225931204
    AL           0.000000000000     0.000000000000    -1.709072918758

    Psi4 stopped on: Wednesday, 16 July 2025 07:28PM
    Psi4 wall time for execution: 0:00:20.17

*** Psi4 exiting successfully. Buy a developer a beer!
