                               Psi4 1.9.1 release

  ==> Input File <==

--------------------------------------------------------------------------
molecule {
0 5
Li   0.00000        0.60000        0.00000
F   0.00000       -0.60000        0.00000
}

set {
basis              cc-pvdz
reference          uks
maxiter            500
geom_maxiter       500
DAMPING_PERCENTAGE 1
guess              SAP
}

optimize('b3lyp')
--------------------------------------------------------------------------

    Molecular point group: c2v
  Charge       = 0
  Multiplicity = 5
  Basis Set: CC-PVDZ
    Blend: CC-PVDZ
  Basis Set: (CC-PVDZ AUX)
    Blend: CC-PVDZ-JKFIT + DEF2-UNIVERSAL-JKFIT
  @DF-UKS Final Energy:  -106.45217287743415
    Total Energy =                       -106.4521728774341511
 Dipole X            :          0.0000000            0.0000000            0.0000000
 Dipole Y            :          0.0000000            0.0000000            0.0000000
 Dipole Z            :         -0.8069723           -0.5359917           -1.3429640
 Magnitude           :                                                    1.3429640
    Molecular point group: c2v
  Basis Set: CC-PVDZ
    Blend: CC-PVDZ
  Basis Set: (CC-PVDZ AUX)
    Blend: CC-PVDZ-JKFIT + DEF2-UNIVERSAL-JKFIT
  Basis Set: CC-PVDZ
    Blend: CC-PVDZ
  Basis Set: (CC-PVDZ AUX)
    Blend: CC-PVDZ-JKFIT + DEF2-UNIVERSAL-JKFIT
  @DF-UKS Final Energy:  -106.56859697065769
    Total Energy =                       -106.5685969706576941
  Basis Set: CC-PVDZ
    Blend: CC-PVDZ
  Basis Set: (CC-PVDZ AUX)
    Blend: CC-PVDZ-JKFIT + DEF2-UNIVERSAL-JKFIT
  Basis Set: CC-PVDZ
    Blend: CC-PVDZ
  @DF-UKS Final Energy:  -106.61970562946206
    Total Energy =                       -106.6197056294620609
  @DF-UKS Final Energy:  -106.65901604146222
    Total Energy =                       -106.6590160414622233
  @DF-UKS Final Energy:  -106.68781077847926
    Total Energy =                       -106.6878107784792604
  @DF-UKS Final Energy:  -106.70686677837986
    Total Energy =                       -106.7068667783798759
  @DF-UKS Final Energy:  -106.70981347458282
    Total Energy =                       -106.7098134745828162
  @DF-UKS Final Energy:  -106.71703748648875
    Total Energy =                       -106.7170374864887634
  @DF-UKS Final Energy:  -106.71853031117773
    Total Energy =                       -106.7185303111777301
  @DF-UKS Final Energy:  -106.71870982598520
    Total Energy =                       -106.7187098259852007
  Basis Set: (CC-PVDZ AUX)
    Blend: CC-PVDZ-JKFIT + DEF2-UNIVERSAL-JKFIT
  Basis Set: CC-PVDZ
    Blend: CC-PVDZ
  Basis Set: (CC-PVDZ AUX)
    Blend: CC-PVDZ-JKFIT + DEF2-UNIVERSAL-JKFIT
  @DF-UKS Final Energy:  -106.71871476958869
    Total Energy =                       -106.7187147695886864
  Basis Set: CC-PVDZ
    Blend: CC-PVDZ
  Basis Set: (CC-PVDZ AUX)
    Blend: CC-PVDZ-JKFIT + DEF2-UNIVERSAL-JKFIT
  Charge       = 0
  Multiplicity = 5
  Basis Set: CC-PVDZ
    Blend: CC-PVDZ
  Basis Set: (CC-PVDZ AUX)
    Blend: CC-PVDZ-JKFIT + DEF2-UNIVERSAL-JKFIT

    Orbital Energies [Eh]
    ---------------------

    Alpha Occupied:

       1A1   -25.378134     2A1    -2.002973     3A1    -1.720170
       4A1    -1.013750     1B1    -1.013474     1B2    -0.915650
       5A1    -0.154931     2B2    -0.070148

    Alpha Virtual:

       6A1    -0.029706     2B1    -0.026307     7A1     0.030733
       3B2     0.065709     3B1     0.082488     8A1     0.102117
       4B2     0.205644     4B1     0.221248     1A2     0.227226
       9A1     0.229482    10A1     0.242038     5B1     0.734607
       5B2     0.784709    11A1     0.792308    12A1     1.268190
       6B1     2.938473    13A1     2.940156     2A2     3.006947
       6B2     3.010273    14A1     3.034062

    Beta Occupied:

       1A1   -25.308262     2A1    -1.996494     3A1    -1.524850
       1B2    -0.846303

    Beta Virtual:

       1B1    -0.655177     4A1    -0.655076     5A1    -0.061759
       6A1    -0.011571     2B1     0.005626     2B2     0.012052
       7A1     0.074784     3B1     0.096950     3B2     0.108785
       8A1     0.113051     4B1     0.250473     4B2     0.261222
       9A1     0.266231     1A2     0.285469    10A1     0.289931
       5B2     0.817729     5B1     0.846866    11A1     0.902810
      12A1     1.362072     2A2     3.120075     6B2     3.123532
      13A1     3.130858     6B1     3.152400    14A1     3.154397

    Final Occupation by Irrep:
             A1    A2    B1    B2
    DOCC [     3,    0,    0,    1 ]
    SOCC [     2,    0,    1,    1 ]
    NA   [     5,    0,    1,    2 ]
    NB   [     3,    0,    0,    1 ]

  @DF-UKS Final Energy:  -106.71871487254745

   => Energetics <=

    Nuclear Repulsion Energy =              5.0180891851354854
    One-Electron Energy =                -154.6243495912790422
    Two-Electron Energy =                  52.4939580479051102
    DFT Exchange-Correlation Energy =      -9.6064125143090155
    Empirical Dispersion Energy =           0.0000000000000000
    VV10 Nonlocal Energy =                  0.0000000000000000
    Total Energy =                       -106.7187148725474515

  UHF NO Occupations:
  HONO-2 :    1 B1 1.0000000
  HONO-1 :    2 B2 1.0000000
  HONO-0 :    5 A1 1.0000000
  LUNO+0 :    6 A1 0.0006254
  LUNO+1 :    3 B2 0.0002129
  LUNO+2 :    7 A1 0.0000008
  LUNO+3 :    8 A1 0.0000000

Computation Completed

Properties will be evaluated at   0.000000,   0.000000,   0.000000 [a0]

Properties computed using the SCF density matrix

 Multipole Moments:

 ------------------------------------------------------------------------------------
     Multipole            Electronic (a.u.)      Nuclear  (a.u.)        Total (a.u.)
 ------------------------------------------------------------------------------------

 L = 1.  Multiply by 2.5417464519 to convert [e a0] to [Debye]
 Dipole X            :          0.0000000            0.0000000            0.0000000
 Dipole Y            :          0.0000000            0.0000000            0.0000000
 Dipole Z            :         -1.6280144           -1.2717547           -2.8997691
 Magnitude           :                                                    2.8997691

 ------------------------------------------------------------------------------------

*** tstop() called on Joses-MacBook-Pro-2.local at Wed Jul 16 18:31:44 2025
Module time:
	user time   =       3.69 seconds =       0.06 minutes
	system time =       1.74 seconds =       0.03 minutes
	total time  =          0 seconds =       0.00 minutes
Total time:
	user time   =      46.41 seconds =       0.77 minutes
	system time =      49.93 seconds =       0.83 minutes
	total time  =          9 seconds =       0.15 minutes

*** tstart() called on Joses-MacBook-Pro-2.local
*** at Wed Jul 16 18:31:44 2025

         ------------------------------------------------------------
                                   SCF GRAD
                          Rob Parrish, Justin Turney,
                       Andy Simmonett, and Alex Sokolov
         ------------------------------------------------------------

  ==> Geometry <==

    Molecular point group: c2v
    Full point group: C_inf_v

    Geometry (in Angstrom), charge = 0, multiplicity = 5:

       Center              X                  Y                   Z               Mass
    ------------   -----------------  -----------------  -----------------  -----------------
         LI           0.000000000000     0.000000000000     2.079360055597     7.016003436600
         F            0.000000000000     0.000000000000    -0.767895973732    18.998403162730

  Nuclear repulsion =    5.018089185135485

  ==> Basis Set <==

  Basis Set: CC-PVDZ
    Blend: CC-PVDZ
    Number of shells: 12
    Number of basis functions: 28
    Number of Cartesian functions: 30
    Spherical Harmonics?: true
    Max angular momentum: 2

  ==> DFJKGrad: Density-Fitted SCF Gradients <==

    Gradient:                    1
    J tasked:                  Yes
    K tasked:                  Yes
    wK tasked:                  No
    OpenMP threads:              1
    Integrals threads:           1
    Memory [MiB]:              375
    Schwarz Cutoff:          1E-12
    Fitting Condition:       1E-10

   => Auxiliary Basis Set <=

  Basis Set: (CC-PVDZ AUX)
    Blend: CC-PVDZ-JKFIT + DEF2-UNIVERSAL-JKFIT
    Number of shells: 41
    Number of basis functions: 121
    Number of Cartesian functions: 141
    Spherical Harmonics?: true
    Max angular momentum: 3

  ==> DFT Potential <==

   => LibXC <=

    Version 6.2.2
    S. Lehtola, C. Steigemann, M. J.T. Oliveira, and M. A.L. Marques.,  SoftwareX 7, 1â€“5 (2018) (10.1016/j.softx.2017.11.002)

   => Composite Functional: B3LYP <=

    B3LYP Hyb-GGA Exchange-Correlation Functional

    P. J. Stephens, F. J. Devlin, C. F. Chabalowski, and M. J. Frisch.,  J. Phys. Chem. 98, 11623 (1994) (10.1021/j100096a001)

    Deriv               =              1
    GGA                 =           TRUE
    Meta                =          FALSE

    Exchange Hybrid     =           TRUE
    MP2 Hybrid          =          FALSE

   => Exchange Functionals <=

    0.0800   Slater exchange
    0.7200         Becke 88

   => Exact (HF) Exchange <=

    0.2000               HF

   => Correlation Functionals <=

    0.1900   Vosko, Wilk & Nusair (VWN5_RPA)
    0.8100   Lee, Yang & Parr

   => LibXC Density Thresholds  <==

    XC_HYB_GGA_XC_B3LYP:  1.00E-15

   => Molecular Quadrature <=

    Radial Scheme          =       TREUTLER
    Pruning Scheme         =           NONE
    Nuclear Scheme         =       TREUTLER

    Blocking Scheme        =         OCTREE
    BS radius alpha        =              1
    Pruning alpha          =              1
    Radial Points          =             75
    Spherical Points       =            302
    Total Points           =          44365
    Total Blocks           =            417
    Max Points             =            256
    Max Functions          =             28
    Weights Tolerance      =       1.00E-15

  -Total Gradient:
     Atom            X                  Y                   Z
    ------   -----------------  -----------------  -----------------
       1        0.000000000000    -0.000000000000    -0.000012165326
       2        0.000000000000     0.000000000000     0.000009494195

*** tstop() called on Joses-MacBook-Pro-2.local at Wed Jul 16 18:31:44 2025
Module time:
	user time   =       0.50 seconds =       0.01 minutes
	system time =       1.09 seconds =       0.02 minutes
	total time  =          0 seconds =       0.00 minutes
Total time:
	user time   =      46.91 seconds =       0.78 minutes
	system time =      51.02 seconds =       0.85 minutes
	total time  =          9 seconds =       0.15 minutes

    			-----------------------------------------

    			 OPTKING 3.0: for geometry optimizations

    			     By R.A. King, Bethel University

    			        with contributions from

    			    A.V. Copan, J. Cayton, A. Heide

    			-----------------------------------------

	                            ===> Fragment 1 <==

	 Z (Atomic Numbers)          Masses                          Geom
	       3.000000             7.016003          0.00000000  0.00000000  3.92942102
	       9.000000            18.998403          0.00000000  0.00000000 -1.45111308

	 - Coordinate -           - BOHR/RAD -       - ANG/DEG -
	 R(1,2)           =         5.380534           2.847256

	        --- Internal Coordinate Step in ANG or DEG, aJ/ANG or AJ/DEG ---
	-------------------------------------------------------------------------------
	           Coordinate      Previous         Force          Change          New
	           ----------      --------        ------          ------        ------
	               R(1,2)       2.84726        0.00009        0.00030       2.84755
	-------------------------------------------------------------------------------

	                                 ==> Convergence Check <==

	Measures of convergence in internal coordinates in au.

	Criteria marked as inactive (o), active & met (*), and active & unmet ( ).

	----------------------------------------------------------------------------------------------
	   Step    Total Energy     Delta E     Max Force     RMS Force      Max Disp      RMS Disp
	----------------------------------------------------------------------------------------------
	  Convergence Criteria     1.00e-06 *    3.00e-04 *             o    1.20e-03 *             o
	----------------------------------------------------------------------------------------------
	    12    -106.71871487   -1.03e-07 *    1.08e-05 *    1.08e-05 o    5.62e-04 *    5.62e-04 o  ~
	----------------------------------------------------------------------------------------------

Next Geometry in Ang
	Fragment 1 (Ang)

	   Li   0.0000000000   0.0000000000   2.0795086707
	    F   0.0000000000   0.0000000000  -0.7680445889

    Final optimized geometry and variables:
    Molecular point group: c2v
    Full point group: C_inf_v

    Geometry (in Angstrom), charge = 0, multiplicity = 5:

    LI           0.000000000000     0.000000000000     2.079360055597
    F            0.000000000000     0.000000000000    -0.767895973732

    Psi4 stopped on: Wednesday, 16 July 2025 06:31PM
    Psi4 wall time for execution: 0:00:09.85

*** Psi4 exiting successfully. Buy a developer a beer!
