                               Psi4 1.9.1 release

  ==> Input File <==

--------------------------------------------------------------------------
molecule {
0 5
H   0.00000        0.60000        0.00000
Na   0.00000       -0.60000        0.00000
}

set {
basis              cc-pvdz
reference          uks
maxiter            500
geom_maxiter       500
DAMPING_PERCENTAGE 1
guess              SAP
}

optimize('b3lyp')
--------------------------------------------------------------------------

    Molecular point group: c2v
  Charge       = 0
  Multiplicity = 5
  Basis Set: CC-PVDZ
    Blend: CC-PVDZ
  Basis Set: (CC-PVDZ AUX)
    Blend: CC-PVDZ-JKFIT + DEF2-UNIVERSAL-JKFIT
  @DF-UKS Final Energy:  -161.29647505254411
    Total Energy =                       -161.2964750525441104
 Dipole X            :          0.0000000            0.0000000            0.0000000
 Dipole Y            :          0.0000000            0.0000000            0.0000000
 Dipole Z            :         -0.2597031            1.1248488            0.8651457
 Magnitude           :                                                    0.8651457
    Molecular point group: c2v
  Basis Set: CC-PVDZ
    Blend: CC-PVDZ
  Basis Set: (CC-PVDZ AUX)
    Blend: CC-PVDZ-JKFIT + DEF2-UNIVERSAL-JKFIT
  Basis Set: CC-PVDZ
    Blend: CC-PVDZ
  Basis Set: (CC-PVDZ AUX)
    Blend: CC-PVDZ-JKFIT + DEF2-UNIVERSAL-JKFIT
  @DF-UKS Final Energy:  -161.37620460553080
    Total Energy =                       -161.3762046055308019
  Basis Set: CC-PVDZ
    Blend: CC-PVDZ
  Basis Set: (CC-PVDZ AUX)
    Blend: CC-PVDZ-JKFIT + DEF2-UNIVERSAL-JKFIT
  Basis Set: CC-PVDZ
    Blend: CC-PVDZ
  @DF-UKS Final Energy:  -161.39605724259590
    Total Energy =                       -161.3960572425959015
  @DF-UKS Final Energy:  -161.41608612662733
    Total Energy =                       -161.4160861266273344
  @DF-UKS Final Energy:  -161.43297953186672
    Total Energy =                       -161.4329795318667209
  @DF-UKS Final Energy:  -161.43621771076073
    Total Energy =                       -161.4362177107607295
  @DF-UKS Final Energy:  -161.44332316917158
    Total Energy =                       -161.4433231691715775
  @DF-UKS Final Energy:  -161.44405998537979
    Total Energy =                       -161.4440599853797949
  @DF-UKS Final Energy:  -161.44692202148963
    Total Energy =                       -161.4469220214896268
  @DF-UKS Final Energy:  -161.44806377916714
    Total Energy =                       -161.4480637791671427
  @DF-UKS Final Energy:  -161.44869740537115
    Total Energy =                       -161.4486974053711492
  @DF-UKS Final Energy:  -161.44903240906154
    Total Energy =                       -161.4490324090615445
  @DF-UKS Final Energy:  -161.44923271624597
    Total Energy =                       -161.4492327162459731
  @DF-UKS Final Energy:  -161.44938130276662
    Total Energy =                       -161.4493813027666249
  Basis Set: (CC-PVDZ AUX)
    Blend: CC-PVDZ-JKFIT + DEF2-UNIVERSAL-JKFIT
  Basis Set: CC-PVDZ
    Blend: CC-PVDZ
  Basis Set: (CC-PVDZ AUX)
    Blend: CC-PVDZ-JKFIT + DEF2-UNIVERSAL-JKFIT
  @DF-UKS Final Energy:  -161.44952907389504
    Total Energy =                       -161.4495290738950359
  Basis Set: CC-PVDZ
    Blend: CC-PVDZ
  Basis Set: (CC-PVDZ AUX)
    Blend: CC-PVDZ-JKFIT + DEF2-UNIVERSAL-JKFIT
  Charge       = 0
  Multiplicity = 5
  Basis Set: CC-PVDZ
    Blend: CC-PVDZ
  Basis Set: (CC-PVDZ AUX)
    Blend: CC-PVDZ-JKFIT + DEF2-UNIVERSAL-JKFIT

    Orbital Energies [Eh]
    ---------------------

    Alpha Occupied:

       1A1   -39.758947     2A1    -3.043117     1B1    -2.058086
       3A1    -1.938270     1B2    -1.934678     4A1    -0.331022
       5A1    -0.236240     2B2    -0.113314

    Alpha Virtual:

       2B1    -0.073955     6A1    -0.065357     7A1     0.029118
       3B2     0.037296     3B1     0.038906     8A1     0.043618
       1A2     0.090029     4B2     0.093078     9A1     0.095816
       4B1     0.101803    10A1     0.106583    11A1     0.467809
       5B1     1.200011     5B2     1.200292    12A1     1.206856

    Beta Occupied:

       1A1   -39.715138     2A1    -2.923654     3A1    -1.893149
       1B2    -1.887660

    Beta Virtual:

       1B1    -1.657336     4A1    -0.138069     5A1    -0.056941
       2B1    -0.026438     2B2    -0.012246     6A1    -0.006621
       7A1     0.047604     3B1     0.055416     3B2     0.061540
       8A1     0.062960     4B1     0.136867     9A1     0.147819
       4B2     0.151949     1A2     0.153943    10A1     0.163098
      11A1     0.675416     5B1     1.450885     5B2     1.451277
      12A1     1.453249

    Final Occupation by Irrep:
             A1    A2    B1    B2
    DOCC [     3,    0,    0,    1 ]
    SOCC [     2,    0,    1,    1 ]
    NA   [     5,    0,    1,    2 ]
    NB   [     3,    0,    0,    1 ]

  @DF-UKS Final Energy:  -161.44953001327610

   => Energetics <=

    Nuclear Repulsion Energy =              1.3912409255917950
    One-Electron Energy =                -221.8125651782121963
    Two-Electron Energy =                  70.1850708952099609
    DFT Exchange-Correlation Energy =     -11.2132766558656680
    Empirical Dispersion Energy =           0.0000000000000000
    VV10 Nonlocal Energy =                  0.0000000000000000
    Total Energy =                       -161.4495300132760747

  UHF NO Occupations:
  HONO-2 :    4 A1 1.0000000
  HONO-1 :    2 B2 1.0000000
  HONO-0 :    5 A1 1.0000000
  LUNO+0 :    6 A1 0.0000017
  LUNO+1 :    7 A1 0.0000012
  LUNO+2 :    3 B2 0.0000003
  LUNO+3 :    8 A1 0.0000000

Computation Completed

Properties will be evaluated at   0.000000,   0.000000,   0.000000 [a0]

Properties computed using the SCF density matrix

 Multipole Moments:

 ------------------------------------------------------------------------------------
     Multipole            Electronic (a.u.)      Nuclear  (a.u.)        Total (a.u.)
 ------------------------------------------------------------------------------------

 L = 1.  Multiply by 2.5417464519 to convert [e a0] to [Debye]
 Dipole X            :          0.0000000            0.0000000            0.0000000
 Dipole Y            :          0.0000000            0.0000000            0.0000000
 Dipole Z            :         -3.8673794            3.9219711            0.0545916
 Magnitude           :                                                    0.0545916

 ------------------------------------------------------------------------------------

*** tstop() called on Joses-MacBook-Pro-2.local at Wed Jul 16 18:15:02 2025
Module time:
	user time   =       1.15 seconds =       0.02 minutes
	system time =       2.28 seconds =       0.04 minutes
	total time  =          0 seconds =       0.00 minutes
Total time:
	user time   =      52.76 seconds =       0.88 minutes
	system time =      71.38 seconds =       1.19 minutes
	total time  =         12 seconds =       0.20 minutes

*** tstart() called on Joses-MacBook-Pro-2.local
*** at Wed Jul 16 18:15:02 2025

         ------------------------------------------------------------
                                   SCF GRAD
                          Rob Parrish, Justin Turney,
                       Andy Simmonett, and Alex Sokolov
         ------------------------------------------------------------

  ==> Geometry <==

    Molecular point group: c2v
    Full point group: C_inf_v

    Geometry (in Angstrom), charge = 0, multiplicity = 5:

       Center              X                  Y                   Z               Mass
    ------------   -----------------  -----------------  -----------------  -----------------
         H            0.000000000000     0.000000000000     4.008283019826     1.007825032230
         NA           0.000000000000     0.000000000000    -0.175715028459    22.989769282000

  Nuclear repulsion =    1.391240925591795

  ==> Basis Set <==

  Basis Set: CC-PVDZ
    Blend: CC-PVDZ
    Number of shells: 11
    Number of basis functions: 23
    Number of Cartesian functions: 24
    Spherical Harmonics?: true
    Max angular momentum: 2

  ==> DFJKGrad: Density-Fitted SCF Gradients <==

    Gradient:                    1
    J tasked:                  Yes
    K tasked:                  Yes
    wK tasked:                  No
    OpenMP threads:              1
    Integrals threads:           1
    Memory [MiB]:              375
    Schwarz Cutoff:          1E-12
    Fitting Condition:       1E-10

   => Auxiliary Basis Set <=

  Basis Set: (CC-PVDZ AUX)
    Blend: CC-PVDZ-JKFIT + DEF2-UNIVERSAL-JKFIT
    Number of shells: 43
    Number of basis functions: 135
    Number of Cartesian functions: 162
    Spherical Harmonics?: true
    Max angular momentum: 4

  ==> DFT Potential <==

   => LibXC <=

    Version 6.2.2
    S. Lehtola, C. Steigemann, M. J.T. Oliveira, and M. A.L. Marques.,  SoftwareX 7, 1â€“5 (2018) (10.1016/j.softx.2017.11.002)

   => Composite Functional: B3LYP <=

    B3LYP Hyb-GGA Exchange-Correlation Functional

    P. J. Stephens, F. J. Devlin, C. F. Chabalowski, and M. J. Frisch.,  J. Phys. Chem. 98, 11623 (1994) (10.1021/j100096a001)

    Deriv               =              1
    GGA                 =           TRUE
    Meta                =          FALSE

    Exchange Hybrid     =           TRUE
    MP2 Hybrid          =          FALSE

   => Exchange Functionals <=

    0.0800   Slater exchange
    0.7200         Becke 88

   => Exact (HF) Exchange <=

    0.2000               HF

   => Correlation Functionals <=

    0.1900   Vosko, Wilk & Nusair (VWN5_RPA)
    0.8100   Lee, Yang & Parr

   => LibXC Density Thresholds  <==

    XC_HYB_GGA_XC_B3LYP:  1.00E-15

   => Molecular Quadrature <=

    Radial Scheme          =       TREUTLER
    Pruning Scheme         =           NONE
    Nuclear Scheme         =       TREUTLER

    Blocking Scheme        =         OCTREE
    BS radius alpha        =              1
    Pruning alpha          =              1
    Radial Points          =             75
    Spherical Points       =            302
    Total Points           =          43911
    Total Blocks           =            427
    Max Points             =            252
    Max Functions          =             23
    Weights Tolerance      =       1.00E-15

  -Total Gradient:
     Atom            X                  Y                   Z
    ------   -----------------  -----------------  -----------------
       1        0.000000000000     0.000000000000    -0.000212223434
       2        0.000000000000     0.000000000000     0.000210525141

*** tstop() called on Joses-MacBook-Pro-2.local at Wed Jul 16 18:15:02 2025
Module time:
	user time   =       0.74 seconds =       0.01 minutes
	system time =       1.16 seconds =       0.02 minutes
	total time  =          0 seconds =       0.00 minutes
Total time:
	user time   =      53.50 seconds =       0.89 minutes
	system time =      72.54 seconds =       1.21 minutes
	total time  =         12 seconds =       0.20 minutes

    			-----------------------------------------

    			 OPTKING 3.0: for geometry optimizations

    			     By R.A. King, Bethel University

    			        with contributions from

    			    A.V. Copan, J. Cayton, A. Heide

    			-----------------------------------------

	                            ===> Fragment 1 <==

	 Z (Atomic Numbers)          Masses                          Geom
	       1.000000             1.007825          0.00000000  0.00000000  7.57455714
	      11.000000            22.989769          0.00000000  0.00000000 -0.33205328

	 - Coordinate -           - BOHR/RAD -       - ANG/DEG -
	 R(1,2)           =         7.906610           4.183998

	        --- Internal Coordinate Step in ANG or DEG, aJ/ANG or AJ/DEG ---
	-------------------------------------------------------------------------------
	           Coordinate      Previous         Force          Change          New
	           ----------      --------        ------          ------        ------
	               R(1,2)       4.18400        0.00174        0.00241       4.18641
	-------------------------------------------------------------------------------

	                                 ==> Convergence Check <==

	Measures of convergence in internal coordinates in au.

	Criteria marked as inactive (o), active & met (*), and active & unmet ( ).

	----------------------------------------------------------------------------------------------
	   Step    Total Energy     Delta E     Max Force     RMS Force      Max Disp      RMS Disp
	----------------------------------------------------------------------------------------------
	  Convergence Criteria     1.00e-06 *    3.00e-04 *             o    1.20e-03 *             o
	----------------------------------------------------------------------------------------------
	    16    -161.44953001   -9.39e-07 *    2.11e-04 *    2.11e-04 o    4.55e-03      4.55e-03 o  ~
	----------------------------------------------------------------------------------------------

Next Geometry in Ang
	Fragment 1 (Ang)

	    H   0.0000000000   0.0000000000   4.0094865068
	   Na   0.0000000000   0.0000000000  -0.1769185154

    Final optimized geometry and variables:
    Molecular point group: c2v
    Full point group: C_inf_v

    Geometry (in Angstrom), charge = 0, multiplicity = 5:

    H            0.000000000000     0.000000000000     4.008283019826
    NA           0.000000000000     0.000000000000    -0.175715028459

    Psi4 stopped on: Wednesday, 16 July 2025 06:15PM
    Psi4 wall time for execution: 0:00:12.63

*** Psi4 exiting successfully. Buy a developer a beer!
