                               Psi4 1.9.1 release

  ==> Input File <==

--------------------------------------------------------------------------
molecule {
0 5
F   0.00000        0.60000        0.00000
Na   0.00000       -0.60000        0.00000
}

set {
basis              cc-pvdz
reference          uks
maxiter            500
geom_maxiter       500
DAMPING_PERCENTAGE 1
guess              SAP
}

optimize('b3lyp')
--------------------------------------------------------------------------

    Molecular point group: c2v
  Charge       = 0
  Multiplicity = 5
  Basis Set: CC-PVDZ
    Blend: CC-PVDZ
  Basis Set: (CC-PVDZ AUX)
    Blend: CC-PVDZ-JKFIT + DEF2-UNIVERSAL-JKFIT
  @DF-UKS Final Energy:  -261.00567087495233
    Total Energy =                       -261.0056708749523295
 Dipole X            :          0.0000000            0.0000000            0.0000000
 Dipole Y            :          0.0000000            0.0000000            0.0000000
 Dipole Z            :          0.9978082           -0.1120389            0.8857693
 Magnitude           :                                                    0.8857693
    Molecular point group: c2v
  Basis Set: CC-PVDZ
    Blend: CC-PVDZ
  Basis Set: (CC-PVDZ AUX)
    Blend: CC-PVDZ-JKFIT + DEF2-UNIVERSAL-JKFIT
  Basis Set: CC-PVDZ
    Blend: CC-PVDZ
  Basis Set: (CC-PVDZ AUX)
    Blend: CC-PVDZ-JKFIT + DEF2-UNIVERSAL-JKFIT
  @DF-UKS Final Energy:  -261.18715374053534
    Total Energy =                       -261.1871537405353365
  Basis Set: CC-PVDZ
    Blend: CC-PVDZ
  Basis Set: (CC-PVDZ AUX)
    Blend: CC-PVDZ-JKFIT + DEF2-UNIVERSAL-JKFIT
  Basis Set: CC-PVDZ
    Blend: CC-PVDZ
  @DF-UKS Final Energy:  -261.30745100599756
    Total Energy =                       -261.3074510059975637
  @DF-UKS Final Energy:  -261.36863351653818
    Total Energy =                       -261.3686335165381820
  @DF-UKS Final Energy:  -261.41046112680289
    Total Energy =                       -261.4104611268028862
  @DF-UKS Final Energy:  -261.44130025114418
    Total Energy =                       -261.4413002511441846
  @DF-UKS Final Energy:  -261.46899554844487
    Total Energy =                       -261.4689955484448660
  @DF-UKS Final Energy:  -261.48758189997750
    Total Energy =                       -261.4875818999774992
  @DF-UKS Final Energy:  -261.49875849231609
    Total Energy =                       -261.4987584923160853
  @DF-UKS Final Energy:  -261.49935314941104
    Total Energy =                       -261.4993531494110357
  @DF-UKS Final Energy:  -261.50366140714448
    Total Energy =                       -261.5036614071444774
  @DF-UKS Final Energy:  -261.50432499632325
    Total Energy =                       -261.5043249963232483
  Basis Set: (CC-PVDZ AUX)
    Blend: CC-PVDZ-JKFIT + DEF2-UNIVERSAL-JKFIT
  Basis Set: CC-PVDZ
    Blend: CC-PVDZ
  Basis Set: (CC-PVDZ AUX)
    Blend: CC-PVDZ-JKFIT + DEF2-UNIVERSAL-JKFIT
  @DF-UKS Final Energy:  -261.50437734115849
    Total Energy =                       -261.5043773411584880
  Basis Set: CC-PVDZ
    Blend: CC-PVDZ
  Basis Set: (CC-PVDZ AUX)
    Blend: CC-PVDZ-JKFIT + DEF2-UNIVERSAL-JKFIT
  Charge       = 0
  Multiplicity = 5
  Basis Set: CC-PVDZ
    Blend: CC-PVDZ
  Basis Set: (CC-PVDZ AUX)
    Blend: CC-PVDZ-JKFIT + DEF2-UNIVERSAL-JKFIT

    Orbital Energies [Eh]
    ---------------------

    Alpha Occupied:

       1A1   -38.476935     2A1   -25.390440     3A1    -2.224514
       4A1    -1.732075     5A1    -1.157125     1B1    -1.155687
       1B2    -1.154060     6A1    -1.025761     2B1    -1.025333
       2B2    -0.927502     7A1    -0.158782     3B2    -0.064419

    Alpha Virtual:

       8A1    -0.038122     3B1    -0.026982     9A1     0.016582
       4B2     0.062008    10A1     0.069426     4B1     0.073549
       5B2     0.143248     5B1     0.151377    11A1     0.154801
       1A2     0.159363    12A1     0.168216     6B1     0.716140
       6B2     0.766884    13A1     0.771492    14A1     1.233092
       7B1     2.925362    15A1     2.926339     2A2     2.994876
       7B2     2.997125    16A1     3.021594

    Beta Occupied:

       1A1   -38.475308     2A1   -25.320687     3A1    -2.221533
       4A1    -1.536872     5A1    -1.154774     1B1    -1.154074
       1B2    -1.150901     2B2    -0.858293

    Beta Virtual:

       6A1    -0.667084     2B1    -0.666943     7A1    -0.078120
       8A1    -0.024880     3B1    -0.000855     3B2     0.005388
       9A1     0.052316    10A1     0.080887     4B1     0.089694
       4B2     0.098540     5B1     0.167910     5B2     0.177337
      11A1     0.178096     1A2     0.196079    12A1     0.199860
       6B2     0.798910     6B1     0.828757    13A1     0.882175
      14A1     1.326037     2A2     3.107931     7B2     3.110315
      15A1     3.118582     7B1     3.139259    16A1     3.140301

    Final Occupation by Irrep:
             A1    A2    B1    B2
    DOCC [     5,    0,    1,    2 ]
    SOCC [     2,    0,    1,    1 ]
    NA   [     7,    0,    2,    3 ]
    NB   [     5,    0,    1,    2 ]

  @DF-UKS Final Energy:  -261.50437800324380

   => Energetics <=

    Nuclear Repulsion Energy =             17.2069530563513879
    One-Electron Energy =                -396.9180453166702023
    Two-Electron Energy =                 137.9529652770558243
    DFT Exchange-Correlation Energy =     -19.7462510199808179
    Empirical Dispersion Energy =           0.0000000000000000
    VV10 Nonlocal Energy =                  0.0000000000000000
    Total Energy =                       -261.5043780032438008

  UHF NO Occupations:
  HONO-2 :    3 B2 1.0000000
  HONO-1 :    2 B1 1.0000000
  HONO-0 :    7 A1 1.0000000
  LUNO+0 :    8 A1 0.0006268
  LUNO+1 :    4 B2 0.0002103
  LUNO+2 :    9 A1 0.0000007
  LUNO+3 :    5 B2 0.0000005

Computation Completed

Properties will be evaluated at   0.000000,   0.000000,   0.000000 [a0]

Properties computed using the SCF density matrix

 Multipole Moments:

 ------------------------------------------------------------------------------------
     Multipole            Electronic (a.u.)      Nuclear  (a.u.)        Total (a.u.)
 ------------------------------------------------------------------------------------

 L = 1.  Multiply by 2.5417464519 to convert [e a0] to [Debye]
 Dipole X            :          0.0000000            0.0000000            0.0000000
 Dipole Y            :          0.0000000            0.0000000            0.0000000
 Dipole Z            :          3.3054785           -0.2842628            3.0212157
 Magnitude           :                                                    3.0212157

 ------------------------------------------------------------------------------------

*** tstop() called on Joses-MacBook-Pro-2.local at Wed Jul 16 19:26:36 2025
Module time:
	user time   =       3.44 seconds =       0.06 minutes
	system time =       2.70 seconds =       0.05 minutes
	total time  =          1 seconds =       0.02 minutes
Total time:
	user time   =      66.81 seconds =       1.11 minutes
	system time =      66.65 seconds =       1.11 minutes
	total time  =         13 seconds =       0.22 minutes

*** tstart() called on Joses-MacBook-Pro-2.local
*** at Wed Jul 16 19:26:36 2025

         ------------------------------------------------------------
                                   SCF GRAD
                          Rob Parrish, Justin Turney,
                       Andy Simmonett, and Alex Sokolov
         ------------------------------------------------------------

  ==> Geometry <==

    Molecular point group: c2v
    Full point group: C_inf_v

    Geometry (in Angstrom), charge = 0, multiplicity = 5:

       Center              X                  Y                   Z               Mass
    ------------   -----------------  -----------------  -----------------  -----------------
         F            0.000000000000     0.000000000000     1.667016867362    18.998403162730
         NA           0.000000000000     0.000000000000    -1.377597927876    22.989769282000

  Nuclear repulsion =   17.206953056351388

  ==> Basis Set <==

  Basis Set: CC-PVDZ
    Blend: CC-PVDZ
    Number of shells: 14
    Number of basis functions: 32
    Number of Cartesian functions: 34
    Spherical Harmonics?: true
    Max angular momentum: 2

  ==> DFJKGrad: Density-Fitted SCF Gradients <==

    Gradient:                    1
    J tasked:                  Yes
    K tasked:                  Yes
    wK tasked:                  No
    OpenMP threads:              1
    Integrals threads:           1
    Memory [MiB]:              375
    Schwarz Cutoff:          1E-12
    Fitting Condition:       1E-10

   => Auxiliary Basis Set <=

  Basis Set: (CC-PVDZ AUX)
    Blend: CC-PVDZ-JKFIT + DEF2-UNIVERSAL-JKFIT
    Number of shells: 58
    Number of basis functions: 182
    Number of Cartesian functions: 218
    Spherical Harmonics?: true
    Max angular momentum: 4

  ==> DFT Potential <==

   => LibXC <=

    Version 6.2.2
    S. Lehtola, C. Steigemann, M. J.T. Oliveira, and M. A.L. Marques.,  SoftwareX 7, 1â€“5 (2018) (10.1016/j.softx.2017.11.002)

   => Composite Functional: B3LYP <=

    B3LYP Hyb-GGA Exchange-Correlation Functional

    P. J. Stephens, F. J. Devlin, C. F. Chabalowski, and M. J. Frisch.,  J. Phys. Chem. 98, 11623 (1994) (10.1021/j100096a001)

    Deriv               =              1
    GGA                 =           TRUE
    Meta                =          FALSE

    Exchange Hybrid     =           TRUE
    MP2 Hybrid          =          FALSE

   => Exchange Functionals <=

    0.0800   Slater exchange
    0.7200         Becke 88

   => Exact (HF) Exchange <=

    0.2000               HF

   => Correlation Functionals <=

    0.1900   Vosko, Wilk & Nusair (VWN5_RPA)
    0.8100   Lee, Yang & Parr

   => LibXC Density Thresholds  <==

    XC_HYB_GGA_XC_B3LYP:  1.00E-15

   => Molecular Quadrature <=

    Radial Scheme          =       TREUTLER
    Pruning Scheme         =           NONE
    Nuclear Scheme         =       TREUTLER

    Blocking Scheme        =         OCTREE
    BS radius alpha        =              1
    Pruning alpha          =              1
    Radial Points          =             75
    Spherical Points       =            302
    Total Points           =          43850
    Total Blocks           =            425
    Max Points             =            253
    Max Functions          =             32
    Weights Tolerance      =       1.00E-15

  -Total Gradient:
     Atom            X                  Y                   Z
    ------   -----------------  -----------------  -----------------
       1        0.000000000000    -0.000000000000    -0.000008859771
       2        0.000000000000    -0.000000000000     0.000014134365

*** tstop() called on Joses-MacBook-Pro-2.local at Wed Jul 16 19:26:36 2025
Module time:
	user time   =       0.91 seconds =       0.02 minutes
	system time =       2.02 seconds =       0.03 minutes
	total time  =          0 seconds =       0.00 minutes
Total time:
	user time   =      67.72 seconds =       1.13 minutes
	system time =      68.68 seconds =       1.14 minutes
	total time  =         13 seconds =       0.22 minutes

    			-----------------------------------------

    			 OPTKING 3.0: for geometry optimizations

    			     By R.A. King, Bethel University

    			        with contributions from

    			    A.V. Copan, J. Cayton, A. Heide

    			-----------------------------------------

	                            ===> Fragment 1 <==

	 Z (Atomic Numbers)          Masses                          Geom
	       9.000000            18.998403          0.00000000  0.00000000  3.15020533
	      11.000000            22.989769          0.00000000  0.00000000 -2.60328279

	 - Coordinate -           - BOHR/RAD -       - ANG/DEG -
	 R(1,2)           =         5.753488           3.044615

	        --- Internal Coordinate Step in ANG or DEG, aJ/ANG or AJ/DEG ---
	-------------------------------------------------------------------------------
	           Coordinate      Previous         Force          Change          New
	           ----------      --------        ------          ------        ------
	               R(1,2)       3.04461        0.00009        0.00039       3.04501
	-------------------------------------------------------------------------------

	                                 ==> Convergence Check <==

	Measures of convergence in internal coordinates in au.

	Criteria marked as inactive (o), active & met (*), and active & unmet ( ).

	----------------------------------------------------------------------------------------------
	   Step    Total Energy     Delta E     Max Force     RMS Force      Max Disp      RMS Disp
	----------------------------------------------------------------------------------------------
	  Convergence Criteria     1.00e-06 *    3.00e-04 *             o    1.20e-03 *             o
	----------------------------------------------------------------------------------------------
	    14    -261.50437800   -6.62e-07 *    1.15e-05 *    1.15e-05 o    7.41e-04 *    7.41e-04 o  ~
	----------------------------------------------------------------------------------------------

Next Geometry in Ang
	Fragment 1 (Ang)

	    F   0.0000000000   0.0000000000   1.6672129251
	   Na   0.0000000000   0.0000000000  -1.3777939856

    Final optimized geometry and variables:
    Molecular point group: c2v
    Full point group: C_inf_v

    Geometry (in Angstrom), charge = 0, multiplicity = 5:

    F            0.000000000000     0.000000000000     1.667016867362
    NA           0.000000000000     0.000000000000    -1.377597927876

    Psi4 stopped on: Wednesday, 16 July 2025 07:26PM
    Psi4 wall time for execution: 0:00:14.01

*** Psi4 exiting successfully. Buy a developer a beer!
