                               Psi4 1.9.1 release

  ==> Input File <==

--------------------------------------------------------------------------
molecule {
0 5
He   0.00000        0.60000        0.00000
O   0.00000       -0.60000        0.00000
}

set {
basis              cc-pvdz
reference          uks
maxiter            500
geom_maxiter       500
DAMPING_PERCENTAGE 1
guess              SAP
}

optimize('b3lyp')
--------------------------------------------------------------------------

    Molecular point group: c2v
  Charge       = 0
  Multiplicity = 5
  Basis Set: CC-PVDZ
    Blend: CC-PVDZ
  Basis Set: (CC-PVDZ AUX)
    Blend: CC-PVDZ-JKFIT + DEF2-UNIVERSAL-JKFIT
  @DF-UKS Final Energy:   -76.86464958729536
    Total Energy =                        -76.8646495872953608
 Dipole X            :          0.0000000            0.0000000            0.0000000
 Dipole Y            :          0.0000000            0.0000000            0.0000000
 Dipole Z            :          0.4026929           -0.0035150            0.3991780
 Magnitude           :                                                    0.3991780
    Molecular point group: c2v
  Basis Set: CC-PVDZ
    Blend: CC-PVDZ
  Basis Set: (CC-PVDZ AUX)
    Blend: CC-PVDZ-JKFIT + DEF2-UNIVERSAL-JKFIT
  Basis Set: CC-PVDZ
    Blend: CC-PVDZ
  Basis Set: (CC-PVDZ AUX)
    Blend: CC-PVDZ-JKFIT + DEF2-UNIVERSAL-JKFIT
  @DF-UKS Final Energy:   -76.94491390138461
    Total Energy =                        -76.9449139013846093
  Basis Set: CC-PVDZ
    Blend: CC-PVDZ
  Basis Set: (CC-PVDZ AUX)
    Blend: CC-PVDZ-JKFIT + DEF2-UNIVERSAL-JKFIT
  Basis Set: CC-PVDZ
    Blend: CC-PVDZ
  @DF-UKS Final Energy:   -76.96012356356620
    Total Energy =                        -76.9601235635661993
  @DF-UKS Final Energy:   -76.97044872190750
    Total Energy =                        -76.9704487219075020
  @DF-UKS Final Energy:   -76.97490598372238
    Total Energy =                        -76.9749059837223655
  @DF-UKS Final Energy:   -76.97706688090091
    Total Energy =                        -76.9770668809008924
  @DF-UKS Final Energy:   -76.97785747584311
    Total Energy =                        -76.9778574758431091
  @DF-UKS Final Energy:   -76.97836142153278
    Total Energy =                        -76.9783614215327674
  @DF-UKS Final Energy:   -76.97865402945797
    Total Energy =                        -76.9786540294579709
  @DF-UKS Final Energy:   -76.97879296197436
    Total Energy =                        -76.9787929619743494
  @DF-UKS Final Energy:   -76.97885773151098
    Total Energy =                        -76.9788577315109848
  @DF-UKS Final Energy:   -76.97887971907637
    Total Energy =                        -76.9788797190763745
  @DF-UKS Final Energy:   -76.97889076755062
    Total Energy =                        -76.9788907675506238
  @DF-UKS Final Energy:   -76.97889423852851
    Total Energy =                        -76.9788942385285253
  Basis Set: (CC-PVDZ AUX)
    Blend: CC-PVDZ-JKFIT + DEF2-UNIVERSAL-JKFIT
  Basis Set: CC-PVDZ
    Blend: CC-PVDZ
  Basis Set: (CC-PVDZ AUX)
    Blend: CC-PVDZ-JKFIT + DEF2-UNIVERSAL-JKFIT
  @DF-UKS Final Energy:   -76.97889573580790
    Total Energy =                        -76.9788957358078960
  Basis Set: CC-PVDZ
    Blend: CC-PVDZ
  Basis Set: (CC-PVDZ AUX)
    Blend: CC-PVDZ-JKFIT + DEF2-UNIVERSAL-JKFIT
  Charge       = 0
  Multiplicity = 5
  Basis Set: CC-PVDZ
    Blend: CC-PVDZ
  Basis Set: (CC-PVDZ AUX)
    Blend: CC-PVDZ-JKFIT + DEF2-UNIVERSAL-JKFIT

    Orbital Energies [Eh]
    ---------------------

    Alpha Occupied:

       1A1   -19.356989     2A1    -1.134662     3A1    -0.659492
       1B1    -0.555002     1B2    -0.545833     4A1    -0.544743
       2B1     0.639823

    Alpha Virtual:

       5A1     0.729866     2B2     0.747828     6A1     0.946820
       7A1     1.178310     3B2     2.180822     3B1     2.181090
       8A1     2.186793     4B2     2.345839     9A1     2.346602
       1A2     2.367091     4B1     2.367139    10A1     2.375685

    Beta Occupied:

       1A1   -19.257301     2A1    -0.878735     3A1    -0.658261

    Beta Virtual:

       1B2    -0.225002     4A1    -0.224573     1B1    -0.180887
       5A1     0.854420     2B2     0.886355     2B1     0.931219
       6A1     1.079869     7A1     1.218638     3B2     2.181174
       3B1     2.181464     8A1     2.187689     4B2     2.527272
       9A1     2.527908     1A2     2.555707     4B1     2.555713
      10A1     2.566133

    Final Occupation by Irrep:
             A1    A2    B1    B2
    DOCC [     3,    0,    0,    0 ]
    SOCC [     1,    0,    2,    1 ]
    NA   [     4,    0,    2,    1 ]
    NB   [     3,    0,    0,    0 ]

  @DF-UKS Final Energy:   -76.97889616461711

   => Energetics <=

    Nuclear Repulsion Energy =              3.2943773876294191
    One-Electron Energy =                -112.0374055292033830
    Two-Electron Energy =                  39.5027742787178582
    DFT Exchange-Correlation Energy =      -7.7386423017610246
    Empirical Dispersion Energy =           0.0000000000000000
    VV10 Nonlocal Energy =                  0.0000000000000000
    Total Energy =                        -76.9788961646171117

  UHF NO Occupations:
  HONO-2 :    2 B1 1.0000000
  HONO-1 :    4 A1 1.0000000
  HONO-0 :    1 B2 1.0000000
  LUNO+0 :    5 A1 0.0010321
  LUNO+1 :    6 A1 0.0000015
  LUNO+2 :    7 A1 0.0000000
  LUNO+3 :    2 B2 0.0000000

Computation Completed

Properties will be evaluated at   0.000000,   0.000000,   0.000000 [a0]

Properties computed using the SCF density matrix

 Multipole Moments:

 ------------------------------------------------------------------------------------
     Multipole            Electronic (a.u.)      Nuclear  (a.u.)        Total (a.u.)
 ------------------------------------------------------------------------------------

 L = 1.  Multiply by 2.5417464519 to convert [e a0] to [Debye]
 Dipole X            :          0.0000000            0.0000000            0.0000000
 Dipole Y            :          0.0000000            0.0000000            0.0000000
 Dipole Z            :          0.0178101           -0.0075281            0.0102820
 Magnitude           :                                                    0.0102820

 ------------------------------------------------------------------------------------

*** tstop() called on Joses-MacBook-Pro-2.local at Wed Jul 16 18:21:16 2025
Module time:
	user time   =       0.61 seconds =       0.01 minutes
	system time =       3.07 seconds =       0.05 minutes
	total time  =          1 seconds =       0.02 minutes
Total time:
	user time   =      27.34 seconds =       0.46 minutes
	system time =      55.97 seconds =       0.93 minutes
	total time  =         10 seconds =       0.17 minutes

*** tstart() called on Joses-MacBook-Pro-2.local
*** at Wed Jul 16 18:21:16 2025

         ------------------------------------------------------------
                                   SCF GRAD
                          Rob Parrish, Justin Turney,
                       Andy Simmonett, and Alex Sokolov
         ------------------------------------------------------------

  ==> Geometry <==

    Molecular point group: c2v
    Full point group: C_inf_v

    Geometry (in Angstrom), charge = 0, multiplicity = 5:

       Center              X                  Y                   Z               Mass
    ------------   -----------------  -----------------  -----------------  -----------------
         HE           0.000000000000     0.000000000000     2.055670954814     4.002603254130
         O            0.000000000000     0.000000000000    -0.514415703294    15.994914619570

  Nuclear repulsion =    3.294377387629419

  ==> Basis Set <==

  Basis Set: CC-PVDZ
    Blend: CC-PVDZ
    Number of shells: 9
    Number of basis functions: 19
    Number of Cartesian functions: 20
    Spherical Harmonics?: true
    Max angular momentum: 2

  ==> DFJKGrad: Density-Fitted SCF Gradients <==

    Gradient:                    1
    J tasked:                  Yes
    K tasked:                  Yes
    wK tasked:                  No
    OpenMP threads:              1
    Integrals threads:           1
    Memory [MiB]:              375
    Schwarz Cutoff:          1E-12
    Fitting Condition:       1E-10

   => Auxiliary Basis Set <=

  Basis Set: (CC-PVDZ AUX)
    Blend: CC-PVDZ-JKFIT + DEF2-UNIVERSAL-JKFIT
    Number of shells: 33
    Number of basis functions: 93
    Number of Cartesian functions: 106
    Spherical Harmonics?: true
    Max angular momentum: 3

  ==> DFT Potential <==

   => LibXC <=

    Version 6.2.2
    S. Lehtola, C. Steigemann, M. J.T. Oliveira, and M. A.L. Marques.,  SoftwareX 7, 1â€“5 (2018) (10.1016/j.softx.2017.11.002)

   => Composite Functional: B3LYP <=

    B3LYP Hyb-GGA Exchange-Correlation Functional

    P. J. Stephens, F. J. Devlin, C. F. Chabalowski, and M. J. Frisch.,  J. Phys. Chem. 98, 11623 (1994) (10.1021/j100096a001)

    Deriv               =              1
    GGA                 =           TRUE
    Meta                =          FALSE

    Exchange Hybrid     =           TRUE
    MP2 Hybrid          =          FALSE

   => Exchange Functionals <=

    0.0800   Slater exchange
    0.7200         Becke 88

   => Exact (HF) Exchange <=

    0.2000               HF

   => Correlation Functionals <=

    0.1900   Vosko, Wilk & Nusair (VWN5_RPA)
    0.8100   Lee, Yang & Parr

   => LibXC Density Thresholds  <==

    XC_HYB_GGA_XC_B3LYP:  1.00E-15

   => Molecular Quadrature <=

    Radial Scheme          =       TREUTLER
    Pruning Scheme         =           NONE
    Nuclear Scheme         =       TREUTLER

    Blocking Scheme        =         OCTREE
    BS radius alpha        =              1
    Pruning alpha          =              1
    Radial Points          =             75
    Spherical Points       =            302
    Total Points           =          42928
    Total Blocks           =            382
    Max Points             =            254
    Max Functions          =             19
    Weights Tolerance      =       1.00E-15

  -Total Gradient:
     Atom            X                  Y                   Z
    ------   -----------------  -----------------  -----------------
       1       -0.000000000000     0.000000000000    -0.000013258702
       2        0.000000000000    -0.000000000000     0.000007956255

*** tstop() called on Joses-MacBook-Pro-2.local at Wed Jul 16 18:21:16 2025
Module time:
	user time   =       0.25 seconds =       0.00 minutes
	system time =       0.84 seconds =       0.01 minutes
	total time  =          0 seconds =       0.00 minutes
Total time:
	user time   =      27.59 seconds =       0.46 minutes
	system time =      56.81 seconds =       0.95 minutes
	total time  =         10 seconds =       0.17 minutes

    			-----------------------------------------

    			 OPTKING 3.0: for geometry optimizations

    			     By R.A. King, Bethel University

    			        with contributions from

    			    A.V. Copan, J. Cayton, A. Heide

    			-----------------------------------------

	                            ===> Fragment 1 <==

	 Z (Atomic Numbers)          Masses                          Geom
	       2.000000             4.002603          0.00000000  0.00000000  3.88465511
	       8.000000            15.994915          0.00000000  0.00000000 -0.97210479

	 - Coordinate -           - BOHR/RAD -       - ANG/DEG -
	 R(1,2)           =         4.856760           2.570087

	        --- Internal Coordinate Step in ANG or DEG, aJ/ANG or AJ/DEG ---
	-------------------------------------------------------------------------------
	           Coordinate      Previous         Force          Change          New
	           ----------      --------        ------          ------        ------
	               R(1,2)       2.57009        0.00009        0.00537       2.57545
	-------------------------------------------------------------------------------

	                                 ==> Convergence Check <==

	Measures of convergence in internal coordinates in au.

	Criteria marked as inactive (o), active & met (*), and active & unmet ( ).

	----------------------------------------------------------------------------------------------
	   Step    Total Energy     Delta E     Max Force     RMS Force      Max Disp      RMS Disp
	----------------------------------------------------------------------------------------------
	  Convergence Criteria     1.00e-06 *    3.00e-04 *             o    1.20e-03 *             o
	----------------------------------------------------------------------------------------------
	    16     -76.97889616   -4.29e-07 *    1.06e-05 *    1.06e-05 o    1.01e-02      1.01e-02 o  ~
	----------------------------------------------------------------------------------------------

Next Geometry in Ang
	Fragment 1 (Ang)

	   He   0.0000000000   0.0000000000   2.0583547957
	    O   0.0000000000   0.0000000000  -0.5170995442

    Final optimized geometry and variables:
    Molecular point group: c2v
    Full point group: C_inf_v

    Geometry (in Angstrom), charge = 0, multiplicity = 5:

    HE           0.000000000000     0.000000000000     2.055670954814
    O            0.000000000000     0.000000000000    -0.514415703294

    Psi4 stopped on: Wednesday, 16 July 2025 06:21PM
    Psi4 wall time for execution: 0:00:10.74

*** Psi4 exiting successfully. Buy a developer a beer!
