                               Psi4 1.9.1 release

  ==> Input File <==

--------------------------------------------------------------------------
molecule {
0 5
Cl   0.00000        0.60000        0.00000
Cl   0.00000       -0.60000        0.00000
}

set {
basis              cc-pvdz
reference          uks
maxiter            500
geom_maxiter       500
DAMPING_PERCENTAGE 1
guess              SAP
}

optimize('b3lyp')
--------------------------------------------------------------------------

    Molecular point group: d2h
  Charge       = 0
  Multiplicity = 5
  Basis Set: CC-PVDZ
    Blend: CC-PVDZ
  Basis Set: (CC-PVDZ AUX)
    Blend: CC-PVDZ-JKFIT
  @DF-UKS Final Energy:  -918.48916203728015
    Total Energy =                       -918.4891620372801526
 Dipole X            :          0.0000000            0.0000000            0.0000000
 Dipole Y            :          0.0000000            0.0000000            0.0000000
 Dipole Z            :          0.0000000            0.0000000            0.0000000
 Magnitude           :                                                    0.0000000
    Molecular point group: d2h
  Basis Set: CC-PVDZ
    Blend: CC-PVDZ
  Basis Set: (CC-PVDZ AUX)
    Blend: CC-PVDZ-JKFIT
  Basis Set: CC-PVDZ
    Blend: CC-PVDZ
  Basis Set: (CC-PVDZ AUX)
    Blend: CC-PVDZ-JKFIT
  @DF-UKS Final Energy:  -918.53646149833253
    Total Energy =                       -918.5364614983325282
  Basis Set: CC-PVDZ
    Blend: CC-PVDZ
  Basis Set: (CC-PVDZ AUX)
    Blend: CC-PVDZ-JKFIT
  Basis Set: CC-PVDZ
    Blend: CC-PVDZ
  @DF-UKS Final Energy:  -918.62279020994947
    Total Energy =                       -918.6227902099494713
  @DF-UKS Final Energy:  -918.89258668653997
    Total Energy =                       -918.8925866865399712
  @DF-UKS Final Energy:  -919.36086621257812
    Total Energy =                       -919.3608662125781166
  @DF-UKS Final Energy:  -919.52179828913506
    Total Energy =                       -919.5217982891350630
  @DF-UKS Final Energy:  -919.62103798842918
    Total Energy =                       -919.6210379884292934
  @DF-UKS Final Energy:  -919.65666482836048
    Total Energy =                       -919.6566648283604763
  @DF-UKS Final Energy:  -919.67008037856681
    Total Energy =                       -919.6700803785666949
  @DF-UKS Final Energy:  -919.67356328280448
    Total Energy =                       -919.6735632828044800
  @DF-UKS Final Energy:  -919.67394997421752
    Total Energy =                       -919.6739499742175212
  @DF-UKS Final Energy:  -919.67399506189008
    Total Energy =                       -919.6739950618900821
  Basis Set: (CC-PVDZ AUX)
    Blend: CC-PVDZ-JKFIT
  Basis Set: CC-PVDZ
    Blend: CC-PVDZ
  Basis Set: (CC-PVDZ AUX)
    Blend: CC-PVDZ-JKFIT
  @DF-UKS Final Energy:  -919.67400086498537
    Total Energy =                       -919.6740008649853735
  Basis Set: CC-PVDZ
    Blend: CC-PVDZ
  Basis Set: (CC-PVDZ AUX)
    Blend: CC-PVDZ-JKFIT
  Charge       = 0
  Multiplicity = 5
  Basis Set: CC-PVDZ
    Blend: CC-PVDZ
  Basis Set: (CC-PVDZ AUX)
    Blend: CC-PVDZ-JKFIT

    Orbital Energies [Eh]
    ---------------------

    Alpha Occupied:

       1B2u -101.639914     1Ag  -101.639914     2B2u   -9.543118
       2Ag    -9.543071     1B3u   -7.304531     1B1u   -7.304531
       1B1g   -7.304522     1B3g   -7.304522     3Ag    -7.300249
       3B2u   -7.299885     4Ag    -0.995497     4B2u   -0.815124
       5Ag    -0.520374     2B1u   -0.466920     2B3u   -0.466920
       2B1g   -0.352105     2B3g   -0.352105     5B2u   -0.178506
       6Ag     0.288864

    Alpha Virtual:

       6B2u    0.450487     3B3u    0.473875     3B1u    0.473875
       4B3u    0.508848     4B1u    0.508848     7Ag     0.526657
       3B1g    0.528265     3B3g    0.528265     1B2g    0.600755
       8Ag     0.600757     1Au     0.674569     7B2u    0.674571
       8B2u    0.736106     9Ag     0.829777     4B1g    0.915368
       4B3g    0.915368     9B2u    1.352435

    Beta Occupied:

       1Ag  -101.627647     1B2u -101.627646     2B2u   -9.530623
       2Ag    -9.530611     1B3u   -7.287014     1B1u   -7.287014
       1B1g   -7.286990     1B3g   -7.286990     3Ag    -7.281847
       3B2u   -7.281549     4Ag    -0.909872     4B2u   -0.721234
       5Ag    -0.432497     2B3u   -0.385285     2B1u   -0.385285

    Beta Virtual:

       2B1g   -0.215888     2B3g   -0.215888     5B2u   -0.030114
       6Ag     0.428012     6B2u    0.497353     3B3u    0.515405
       3B1u    0.515405     4B3u    0.564428     4B1u    0.564428
       7Ag     0.565678     3B1g    0.570189     3B3g    0.570189
       1B2g    0.675304     8Ag     0.675306     1Au     0.754395
       7B2u    0.754398     8B2u    0.807324     9Ag     0.892327
       4B1g    0.978545     4B3g    0.978545     9B2u    1.425454

    Final Occupation by Irrep:
             Ag   B1g   B2g   B3g    Au   B1u   B2u   B3u
    DOCC [     5,    1,    0,    1,    0,    2,    4,    2 ]
    SOCC [     1,    1,    0,    1,    0,    0,    1,    0 ]
    NA   [     6,    2,    0,    2,    0,    2,    5,    2 ]
    NB   [     5,    1,    0,    1,    0,    2,    4,    2 ]

  @DF-UKS Final Energy:  -919.67400114911220

   => Energetics <=

    Nuclear Repulsion Energy =             80.9888045795224230
    One-Electron Energy =               -1430.0865112802844124
    Two-Electron Energy =                 474.9383021902575024
    DFT Exchange-Correlation Energy =     -45.5145966386076495
    Empirical Dispersion Energy =           0.0000000000000000
    VV10 Nonlocal Energy =                  0.0000000000000000
    Total Energy =                       -919.6740011491122004

  UHF NO Occupations:
  HONO-2 :    5B2u 1.0000000
  HONO-1 :    6 Ag 1.0000000
  HONO-0 :    2B1g 1.0000000
  LUNO+0 :    3B1u 0.0006685
  LUNO+1 :    3B3u 0.0006685
  LUNO+2 :    7 Ag 0.0002713
  LUNO+3 :    6B2u 0.0000153

Computation Completed

Properties will be evaluated at   0.000000,   0.000000,   0.000000 [a0]

Properties computed using the SCF density matrix

 Multipole Moments:

 ------------------------------------------------------------------------------------
     Multipole            Electronic (a.u.)      Nuclear  (a.u.)        Total (a.u.)
 ------------------------------------------------------------------------------------

 L = 1.  Multiply by 2.5417464519 to convert [e a0] to [Debye]
 Dipole X            :          0.0000000            0.0000000            0.0000000
 Dipole Y            :          0.0000000            0.0000000            0.0000000
 Dipole Z            :          0.0000000            0.0000000            0.0000000
 Magnitude           :                                                    0.0000000

 ------------------------------------------------------------------------------------

*** tstop() called on Joses-MacBook-Pro-2.local at Wed Jul 16 20:32:55 2025
Module time:
	user time   =       6.37 seconds =       0.11 minutes
	system time =       2.35 seconds =       0.04 minutes
	total time  =          1 seconds =       0.02 minutes
Total time:
	user time   =     139.48 seconds =       2.32 minutes
	system time =      45.47 seconds =       0.76 minutes
	total time  =         18 seconds =       0.30 minutes

*** tstart() called on Joses-MacBook-Pro-2.local
*** at Wed Jul 16 20:32:55 2025

         ------------------------------------------------------------
                                   SCF GRAD
                          Rob Parrish, Justin Turney,
                       Andy Simmonett, and Alex Sokolov
         ------------------------------------------------------------

  ==> Geometry <==

    Molecular point group: d2h
    Full point group: D_inf_h

    Geometry (in Angstrom), charge = 0, multiplicity = 5:

       Center              X                  Y                   Z               Mass
    ------------   -----------------  -----------------  -----------------  -----------------
         CL          -0.000000000000     0.944156508283     0.000000000000    34.968852682000
         CL           0.000000000000    -0.944156508283     0.000000000000    34.968852682000

  Nuclear repulsion =   80.988804579522423

  ==> Basis Set <==

  Basis Set: CC-PVDZ
    Blend: CC-PVDZ
    Number of shells: 16
    Number of basis functions: 36
    Number of Cartesian functions: 38
    Spherical Harmonics?: true
    Max angular momentum: 2

  ==> DFJKGrad: Density-Fitted SCF Gradients <==

    Gradient:                    1
    J tasked:                  Yes
    K tasked:                  Yes
    wK tasked:                  No
    OpenMP threads:              1
    Integrals threads:           1
    Memory [MiB]:              375
    Schwarz Cutoff:          1E-12
    Fitting Condition:       1E-10

   => Auxiliary Basis Set <=

  Basis Set: (CC-PVDZ AUX)
    Blend: CC-PVDZ-JKFIT
    Number of shells: 72
    Number of basis functions: 224
    Number of Cartesian functions: 260
    Spherical Harmonics?: true
    Max angular momentum: 3

  ==> DFT Potential <==

   => LibXC <=

    Version 6.2.2
    S. Lehtola, C. Steigemann, M. J.T. Oliveira, and M. A.L. Marques.,  SoftwareX 7, 1â€“5 (2018) (10.1016/j.softx.2017.11.002)

   => Composite Functional: B3LYP <=

    B3LYP Hyb-GGA Exchange-Correlation Functional

    P. J. Stephens, F. J. Devlin, C. F. Chabalowski, and M. J. Frisch.,  J. Phys. Chem. 98, 11623 (1994) (10.1021/j100096a001)

    Deriv               =              1
    GGA                 =           TRUE
    Meta                =          FALSE

    Exchange Hybrid     =           TRUE
    MP2 Hybrid          =          FALSE

   => Exchange Functionals <=

    0.0800   Slater exchange
    0.7200         Becke 88

   => Exact (HF) Exchange <=

    0.2000               HF

   => Correlation Functionals <=

    0.1900   Vosko, Wilk & Nusair (VWN5_RPA)
    0.8100   Lee, Yang & Parr

   => LibXC Density Thresholds  <==

    XC_HYB_GGA_XC_B3LYP:  1.00E-15

   => Molecular Quadrature <=

    Radial Scheme          =       TREUTLER
    Pruning Scheme         =           NONE
    Nuclear Scheme         =       TREUTLER

    Blocking Scheme        =         OCTREE
    BS radius alpha        =              1
    Pruning alpha          =              1
    Radial Points          =             75
    Spherical Points       =            302
    Total Points           =          39644
    Total Blocks           =            370
    Max Points             =            251
    Max Functions          =             36
    Weights Tolerance      =       1.00E-15

  -Total Gradient:
     Atom            X                  Y                   Z
    ------   -----------------  -----------------  -----------------
       1        0.000000000000    -0.000059862086     0.000000000000
       2       -0.000000000000     0.000059862086     0.000000000000

*** tstop() called on Joses-MacBook-Pro-2.local at Wed Jul 16 20:32:55 2025
Module time:
	user time   =       2.23 seconds =       0.04 minutes
	system time =       1.81 seconds =       0.03 minutes
	total time  =          0 seconds =       0.00 minutes
Total time:
	user time   =     141.71 seconds =       2.36 minutes
	system time =      47.28 seconds =       0.79 minutes
	total time  =         18 seconds =       0.30 minutes

    			-----------------------------------------

    			 OPTKING 3.0: for geometry optimizations

    			     By R.A. King, Bethel University

    			        with contributions from

    			    A.V. Copan, J. Cayton, A. Heide

    			-----------------------------------------

	                            ===> Fragment 1 <==

	 Z (Atomic Numbers)          Masses                          Geom
	      17.000000            34.968853         -0.00000000  1.78419722  0.00000000
	      17.000000            34.968853          0.00000000 -1.78419722  0.00000000

	 - Coordinate -           - BOHR/RAD -       - ANG/DEG -
	 R(1,2)           =         3.568394           1.888313

	        --- Internal Coordinate Step in ANG or DEG, aJ/ANG or AJ/DEG ---
	-------------------------------------------------------------------------------
	           Coordinate      Previous         Force          Change          New
	           ----------      --------        ------          ------        ------
	               R(1,2)       1.88831        0.00049        0.00007       1.88838
	-------------------------------------------------------------------------------

	                                 ==> Convergence Check <==

	Measures of convergence in internal coordinates in au.

	Criteria marked as inactive (o), active & met (*), and active & unmet ( ).

	----------------------------------------------------------------------------------------------
	   Step    Total Energy     Delta E     Max Force     RMS Force      Max Disp      RMS Disp
	----------------------------------------------------------------------------------------------
	  Convergence Criteria     1.00e-06 *    3.00e-04 *             o    1.20e-03 *             o
	----------------------------------------------------------------------------------------------
	    14    -919.67400115   -2.84e-07 *    5.99e-05 *    5.99e-05 o    1.27e-04 *    1.27e-04 o  ~
	----------------------------------------------------------------------------------------------

Next Geometry in Ang
	Fragment 1 (Ang)

	   Cl  -0.0000000000   0.9441900799   0.0000000000
	   Cl   0.0000000000  -0.9441900799   0.0000000000

    Final optimized geometry and variables:
    Molecular point group: d2h
    Full point group: D_inf_h

    Geometry (in Angstrom), charge = 0, multiplicity = 5:

    CL          -0.000000000000     0.944156508283     0.000000000000
    CL           0.000000000000    -0.944156508283     0.000000000000

    Psi4 stopped on: Wednesday, 16 July 2025 08:32PM
    Psi4 wall time for execution: 0:00:18.45

*** Psi4 exiting successfully. Buy a developer a beer!
