                               Psi4 1.9.1 release

  ==> Input File <==

--------------------------------------------------------------------------
molecule {
0 5
H   0.00000        0.60000        0.00000
P   0.00000       -0.60000        0.00000
}

set {
basis              cc-pvdz
reference          uks
maxiter            500
geom_maxiter       500
DAMPING_PERCENTAGE 1
guess              SAP
}

optimize('b3lyp')
--------------------------------------------------------------------------

    Molecular point group: c2v
  Charge       = 0
  Multiplicity = 5
  Basis Set: CC-PVDZ
    Blend: CC-PVDZ
  Basis Set: (CC-PVDZ AUX)
    Blend: CC-PVDZ-JKFIT
  @DF-UKS Final Energy:  -341.54235798763278
    Total Energy =                       -341.5423579876327835
 Dipole X            :          0.0000000            0.0000000            0.0000000
 Dipole Y            :          0.0000000            0.0000000            0.0000000
 Dipole Z            :         -1.5036352            1.1243055           -0.3793297
 Magnitude           :                                                    0.3793297
    Molecular point group: c2v
  Basis Set: CC-PVDZ
    Blend: CC-PVDZ
  Basis Set: (CC-PVDZ AUX)
    Blend: CC-PVDZ-JKFIT
  Basis Set: CC-PVDZ
    Blend: CC-PVDZ
  Basis Set: (CC-PVDZ AUX)
    Blend: CC-PVDZ-JKFIT
  @DF-UKS Final Energy:  -341.64208800034174
    Total Energy =                       -341.6420880003417437
  Basis Set: CC-PVDZ
    Blend: CC-PVDZ
  Basis Set: (CC-PVDZ AUX)
    Blend: CC-PVDZ-JKFIT
  Basis Set: CC-PVDZ
    Blend: CC-PVDZ
  @DF-UKS Final Energy:  -341.68856586282021
    Total Energy =                       -341.6885658628202123
  @DF-UKS Final Energy:  -341.72937357775606
    Total Energy =                       -341.7293735777561210
  @DF-UKS Final Energy:  -341.74401922675111
    Total Energy =                       -341.7440192267511065
  @DF-UKS Final Energy:  -341.76050084171283
    Total Energy =                       -341.7605008417128829
  @DF-UKS Final Energy:  -341.76396112069386
    Total Energy =                       -341.7639611206938639
  @DF-UKS Final Energy:  -341.77080311278138
    Total Energy =                       -341.7708031127813797
  @DF-UKS Final Energy:  -341.77160950344711
    Total Energy =                       -341.7716095034470527
  @DF-UKS Final Energy:  -341.77463056743528
    Total Energy =                       -341.7746305674352811
  @DF-UKS Final Energy:  -341.77482499712568
    Total Energy =                       -341.7748249971256769
  @DF-UKS Final Energy:  -341.77622154548430
    Total Energy =                       -341.7762215454843044
  @DF-UKS Final Energy:  -341.77627052037997
    Total Energy =                       -341.7762705203799669
  @DF-UKS Final Energy:  -341.77694544452811
    Total Energy =                       -341.7769454445281099
  @DF-UKS Final Energy:  -341.77695840364214
    Total Energy =                       -341.7769584036421406
  @DF-UKS Final Energy:  -341.77730028417102
    Total Energy =                       -341.7773002841710195
  @DF-UKS Final Energy:  -341.77730390548186
    Total Energy =                       -341.7773039054819151
  @DF-UKS Final Energy:  -341.77730746115338
    Total Energy =                       -341.7773074611533843
  @DF-UKS Final Energy:  -341.77748574505921
    Total Energy =                       -341.7774857450592094
  @DF-UKS Final Energy:  -341.77748679082418
    Total Energy =                       -341.7774867908241845
  @DF-UKS Final Energy:  -341.77748782643988
    Total Energy =                       -341.7774878264398808
  @DF-UKS Final Energy:  -341.77748885201748
    Total Energy =                       -341.7774888520174841
  @DF-UKS Final Energy:  -341.77748986767170
    Total Energy =                       -341.7774898676717044
  @DF-UKS Final Energy:  -341.77749087358035
    Total Energy =                       -341.7774908735803479
  Basis Set: (CC-PVDZ AUX)
    Blend: CC-PVDZ-JKFIT
  Basis Set: CC-PVDZ
    Blend: CC-PVDZ
  Basis Set: (CC-PVDZ AUX)
    Blend: CC-PVDZ-JKFIT
  @DF-UKS Final Energy:  -341.77758523251026
    Total Energy =                       -341.7775852325103187
  Basis Set: CC-PVDZ
    Blend: CC-PVDZ
  Basis Set: (CC-PVDZ AUX)
    Blend: CC-PVDZ-JKFIT
  Charge       = 0
  Multiplicity = 5
  Basis Set: CC-PVDZ
    Blend: CC-PVDZ
  Basis Set: (CC-PVDZ AUX)
    Blend: CC-PVDZ-JKFIT

    Orbital Energies [Eh]
    ---------------------

    Alpha Occupied:

       1A1   -77.116439     2A1    -6.584612     1B2    -4.748027
       1B1    -4.748027     3A1    -4.748026     4A1    -0.595399
       5A1    -0.319457     2B2    -0.256040     2B1    -0.256040
       6A1    -0.255922

    Alpha Virtual:

       7A1     0.329600     8A1     0.385584     3B2     0.401240
       3B1     0.401240     9A1     0.431274    10A1     0.433037
       1A2     0.433037     4B2     0.433038     4B1     0.433038
      11A1     0.440799     5B2     1.209995     5B1     1.209995
      12A1     1.210044

    Beta Occupied:

       1A1   -77.104212     2A1    -6.571682     1B2    -4.728911
       1B1    -4.728911     3A1    -4.728906     4A1    -0.478620

    Beta Virtual:

       5A1    -0.109413     2B2    -0.109041     2B1    -0.109041
       6A1    -0.024876     7A1     0.375108     8A1     0.449642
       3B2     0.451011     3B1     0.451011     9A1     0.529952
      10A1     0.530041     1A2     0.530041     4B2     0.530043
       4B1     0.530043    11A1     0.680279     5B1     1.450615
       5B2     1.450615    12A1     1.459780

    Final Occupation by Irrep:
             A1    A2    B1    B2
    DOCC [     4,    0,    1,    1 ]
    SOCC [     2,    0,    1,    1 ]
    NA   [     6,    0,    2,    2 ]
    NB   [     4,    0,    1,    1 ]

  @DF-UKS Final Energy:  -341.77758554040776

   => Energetics <=

    Nuclear Repulsion Energy =              1.6958529559135627
    One-Electron Energy =                -475.4986902076589104
    Two-Electron Energy =                 150.9534650593535048
    DFT Exchange-Correlation Energy =     -18.9282133480159054
    Empirical Dispersion Energy =           0.0000000000000000
    VV10 Nonlocal Energy =                  0.0000000000000000
    Total Energy =                       -341.7775855404077561

  UHF NO Occupations:
  HONO-2 :    5 A1 1.0000000
  HONO-1 :    2 B2 1.0000000
  HONO-0 :    6 A1 1.0000000
  LUNO+0 :    7 A1 0.0000894
  LUNO+1 :    3 B2 0.0000000
  LUNO+2 :    3 B1 0.0000000
  LUNO+3 :    8 A1 0.0000000

Computation Completed

Properties will be evaluated at   0.000000,   0.000000,   0.000000 [a0]

Properties computed using the SCF density matrix

 Multipole Moments:

 ------------------------------------------------------------------------------------
     Multipole            Electronic (a.u.)      Nuclear  (a.u.)        Total (a.u.)
 ------------------------------------------------------------------------------------

 L = 1.  Multiply by 2.5417464519 to convert [e a0] to [Debye]
 Dipole X            :          0.0000000            0.0000000            0.0000000
 Dipole Y            :          0.0000000            0.0000000            0.0000000
 Dipole Z            :         -4.3855849            4.3853805           -0.0002044
 Magnitude           :                                                    0.0002044

 ------------------------------------------------------------------------------------

*** tstop() called on Joses-MacBook-Pro-2.local at Wed Jul 16 18:17:07 2025
Module time:
	user time   =       1.04 seconds =       0.02 minutes
	system time =       1.56 seconds =       0.03 minutes
	total time  =          0 seconds =       0.00 minutes
Total time:
	user time   =      78.60 seconds =       1.31 minutes
	system time =     109.01 seconds =       1.82 minutes
	total time  =         18 seconds =       0.30 minutes

*** tstart() called on Joses-MacBook-Pro-2.local
*** at Wed Jul 16 18:17:07 2025

         ------------------------------------------------------------
                                   SCF GRAD
                          Rob Parrish, Justin Turney,
                       Andy Simmonett, and Alex Sokolov
         ------------------------------------------------------------

  ==> Geometry <==

    Molecular point group: c2v
    Full point group: C_inf_v

    Geometry (in Angstrom), charge = 0, multiplicity = 5:

       Center              X                  Y                   Z               Mass
    ------------   -----------------  -----------------  -----------------  -----------------
         H            0.000000000000     0.000000000000     4.533129698692     1.007825032230
         P            0.000000000000     0.000000000000    -0.147499085998    30.973761998420

  Nuclear repulsion =    1.695852955913563

  ==> Basis Set <==

  Basis Set: CC-PVDZ
    Blend: CC-PVDZ
    Number of shells: 11
    Number of basis functions: 23
    Number of Cartesian functions: 24
    Spherical Harmonics?: true
    Max angular momentum: 2

  ==> DFJKGrad: Density-Fitted SCF Gradients <==

    Gradient:                    1
    J tasked:                  Yes
    K tasked:                  Yes
    wK tasked:                  No
    OpenMP threads:              1
    Integrals threads:           1
    Memory [MiB]:              375
    Schwarz Cutoff:          1E-12
    Fitting Condition:       1E-10

   => Auxiliary Basis Set <=

  Basis Set: (CC-PVDZ AUX)
    Blend: CC-PVDZ-JKFIT
    Number of shells: 45
    Number of basis functions: 135
    Number of Cartesian functions: 155
    Spherical Harmonics?: true
    Max angular momentum: 3

  ==> DFT Potential <==

   => LibXC <=

    Version 6.2.2
    S. Lehtola, C. Steigemann, M. J.T. Oliveira, and M. A.L. Marques.,  SoftwareX 7, 1â€“5 (2018) (10.1016/j.softx.2017.11.002)

   => Composite Functional: B3LYP <=

    B3LYP Hyb-GGA Exchange-Correlation Functional

    P. J. Stephens, F. J. Devlin, C. F. Chabalowski, and M. J. Frisch.,  J. Phys. Chem. 98, 11623 (1994) (10.1021/j100096a001)

    Deriv               =              1
    GGA                 =           TRUE
    Meta                =          FALSE

    Exchange Hybrid     =           TRUE
    MP2 Hybrid          =          FALSE

   => Exchange Functionals <=

    0.0800   Slater exchange
    0.7200         Becke 88

   => Exact (HF) Exchange <=

    0.2000               HF

   => Correlation Functionals <=

    0.1900   Vosko, Wilk & Nusair (VWN5_RPA)
    0.8100   Lee, Yang & Parr

   => LibXC Density Thresholds  <==

    XC_HYB_GGA_XC_B3LYP:  1.00E-15

   => Molecular Quadrature <=

    Radial Scheme          =       TREUTLER
    Pruning Scheme         =           NONE
    Nuclear Scheme         =       TREUTLER

    Blocking Scheme        =         OCTREE
    BS radius alpha        =              1
    Pruning alpha          =              1
    Radial Points          =             75
    Spherical Points       =            302
    Total Points           =          42864
    Total Blocks           =            430
    Max Points             =            253
    Max Functions          =             23
    Weights Tolerance      =       1.00E-15

  -Total Gradient:
     Atom            X                  Y                   Z
    ------   -----------------  -----------------  -----------------
       1        0.000000000000     0.000000000000    -0.000116435611
       2       -0.000000000000     0.000000000000     0.000116359011

*** tstop() called on Joses-MacBook-Pro-2.local at Wed Jul 16 18:17:07 2025
Module time:
	user time   =       0.89 seconds =       0.01 minutes
	system time =       1.00 seconds =       0.02 minutes
	total time  =          0 seconds =       0.00 minutes
Total time:
	user time   =      79.52 seconds =       1.33 minutes
	system time =     110.01 seconds =       1.83 minutes
	total time  =         18 seconds =       0.30 minutes

    			-----------------------------------------

    			 OPTKING 3.0: for geometry optimizations

    			     By R.A. King, Bethel University

    			        with contributions from

    			    A.V. Copan, J. Cayton, A. Heide

    			-----------------------------------------

	                            ===> Fragment 1 <==

	 Z (Atomic Numbers)          Masses                          Geom
	       1.000000             1.007825          0.00000000  0.00000000  8.56637362
	      15.000000            30.973762          0.00000000  0.00000000 -0.27873288

	 - Coordinate -           - BOHR/RAD -       - ANG/DEG -
	 R(1,2)           =         8.845106           4.680629

	        --- Internal Coordinate Step in ANG or DEG, aJ/ANG or AJ/DEG ---
	-------------------------------------------------------------------------------
	           Coordinate      Previous         Force          Change          New
	           ----------      --------        ------          ------        ------
	               R(1,2)       4.68063        0.00096        0.00141       4.68204
	-------------------------------------------------------------------------------

	                                 ==> Convergence Check <==

	Measures of convergence in internal coordinates in au.

	Criteria marked as inactive (o), active & met (*), and active & unmet ( ).

	----------------------------------------------------------------------------------------------
	   Step    Total Energy     Delta E     Max Force     RMS Force      Max Disp      RMS Disp
	----------------------------------------------------------------------------------------------
	  Convergence Criteria     1.00e-06 *    3.00e-04 *             o    1.20e-03 *             o
	----------------------------------------------------------------------------------------------
	    26    -341.77758554   -3.08e-07 *    1.16e-04 *    1.16e-04 o    2.67e-03      2.67e-03 o  ~
	----------------------------------------------------------------------------------------------

Next Geometry in Ang
	Fragment 1 (Ang)

	    H   0.0000000000   0.0000000000   4.5338370707
	    P   0.0000000000   0.0000000000  -0.1482064580

    Final optimized geometry and variables:
    Molecular point group: c2v
    Full point group: C_inf_v

    Geometry (in Angstrom), charge = 0, multiplicity = 5:

    H            0.000000000000     0.000000000000     4.533129698692
    P            0.000000000000     0.000000000000    -0.147499085998

    Psi4 stopped on: Wednesday, 16 July 2025 06:17PM
    Psi4 wall time for execution: 0:00:18.60

*** Psi4 exiting successfully. Buy a developer a beer!
