                               Psi4 1.9.1 release

  ==> Input File <==

--------------------------------------------------------------------------
molecule {
0 5
N   0.00000        0.60000        0.00000
Al   0.00000       -0.60000        0.00000
}

set {
basis              cc-pvdz
reference          uks
maxiter            500
geom_maxiter       500
DAMPING_PERCENTAGE 1
guess              SAP
}

optimize('b3lyp')
--------------------------------------------------------------------------

    Molecular point group: c2v
  Charge       = 0
  Multiplicity = 5
  Basis Set: CC-PVDZ
    Blend: CC-PVDZ
  Basis Set: (CC-PVDZ AUX)
    Blend: CC-PVDZ-JKFIT
  @DF-UKS Final Energy:  -296.46724350257301
    Total Energy =                       -296.4672435025729555
 Dipole X            :          0.0000000            0.0000000            0.0000000
 Dipole Y            :          0.0000000            0.0000000            0.0000000
 Dipole Z            :         -0.0514631            0.3779474            0.3264843
 Magnitude           :                                                    0.3264843
    Molecular point group: c2v
  Basis Set: CC-PVDZ
    Blend: CC-PVDZ
  Basis Set: (CC-PVDZ AUX)
    Blend: CC-PVDZ-JKFIT
  Basis Set: CC-PVDZ
    Blend: CC-PVDZ
  Basis Set: (CC-PVDZ AUX)
    Blend: CC-PVDZ-JKFIT
  @DF-UKS Final Energy:  -296.70525575484413
    Total Energy =                       -296.7052557548441314
  Basis Set: CC-PVDZ
    Blend: CC-PVDZ
  Basis Set: (CC-PVDZ AUX)
    Blend: CC-PVDZ-JKFIT
  Basis Set: CC-PVDZ
    Blend: CC-PVDZ
  @DF-UKS Final Energy:  -296.82136222079248
    Total Energy =                       -296.8213622207924800
  @DF-UKS Final Energy:  -296.87327364453762
    Total Energy =                       -296.8732736445375622
  @DF-UKS Final Energy:  -296.88965987325474
    Total Energy =                       -296.8896598732547432
  @DF-UKS Final Energy:  -296.89759551074798
    Total Energy =                       -296.8975955107479763
  @DF-UKS Final Energy:  -296.90024513843474
    Total Energy =                       -296.9002451384347410
  @DF-UKS Final Energy:  -296.90068637521745
    Total Energy =                       -296.9006863752174468
  @DF-UKS Final Energy:  -296.90076783758900
    Total Energy =                       -296.9007678375889441
  Basis Set: (CC-PVDZ AUX)
    Blend: CC-PVDZ-JKFIT
  Basis Set: CC-PVDZ
    Blend: CC-PVDZ
  Basis Set: (CC-PVDZ AUX)
    Blend: CC-PVDZ-JKFIT
  @DF-UKS Final Energy:  -296.90078544491553
    Total Energy =                       -296.9007854449155275
  Basis Set: CC-PVDZ
    Blend: CC-PVDZ
  Basis Set: (CC-PVDZ AUX)
    Blend: CC-PVDZ-JKFIT
  Charge       = 0
  Multiplicity = 5
  Basis Set: CC-PVDZ
    Blend: CC-PVDZ
  Basis Set: (CC-PVDZ AUX)
    Blend: CC-PVDZ-JKFIT

    Orbital Energies [Eh]
    ---------------------

    Alpha Occupied:

       1A1   -56.134004     2A1   -14.388261     3A1    -4.212408
       4A1    -2.765871     1B1    -2.765758     1B2    -2.764181
       5A1    -0.793863     6A1    -0.419461     2B2    -0.343738
       7A1    -0.295196     2B1    -0.289010     3B2    -0.141397

    Alpha Virtual:

       3B1    -0.074187     8A1     0.010674     9A1     0.145913
       4B2     0.183972     4B1     0.195095     1A2     0.225075
      10A1     0.225252    11A1     0.233159     5B2     0.274396
       5B1     0.292021    12A1     0.456975    13A1     0.751428
       6B2     0.757921     6B1     0.792257    14A1     1.224151
      15A1     1.734165     2A2     1.734597     7B2     1.775106
       7B1     1.813449    16A1     2.059615

    Beta Occupied:

       1A1   -56.126742     2A1   -14.349251     3A1    -4.201740
       1B1    -2.759541     4A1    -2.755997     1B2    -2.750272
       5A1    -0.667828     2B1    -0.244730

    Beta Virtual:

       6A1    -0.228694     2B2    -0.128952     7A1    -0.116574
       3B1    -0.030914     3B2     0.013136     8A1     0.053574
       9A1     0.183565     4B1     0.214345     4B2     0.238493
      10A1     0.282563     1A2     0.289090    11A1     0.303621
       5B1     0.336510     5B2     0.370389    12A1     0.515425
       6B1     0.820982    13A1     0.846059     6B2     0.854216
      14A1     1.293169     2A2     1.816605    15A1     1.824673
       7B1     1.887195     7B2     1.915753    16A1     2.163801

    Final Occupation by Irrep:
             A1    A2    B1    B2
    DOCC [     5,    0,    2,    1 ]
    SOCC [     2,    0,    0,    2 ]
    NA   [     7,    0,    2,    3 ]
    NB   [     5,    0,    2,    1 ]

  @DF-UKS Final Energy:  -296.90078744714543

   => Energetics <=

    Nuclear Repulsion Energy =             26.0038665477052895
    One-Electron Energy =                -461.9666251109769064
    Two-Electron Energy =                 159.5861734248967139
    DFT Exchange-Correlation Energy =     -20.5242023087705299
    Empirical Dispersion Energy =           0.0000000000000000
    VV10 Nonlocal Energy =                  0.0000000000000000
    Total Energy =                       -296.9007874471454898

  UHF NO Occupations:
  HONO-2 :    6 A1 1.0000000
  HONO-1 :    3 B2 1.0000000
  HONO-0 :    7 A1 1.0000000
  LUNO+0 :    3 B1 0.0020080
  LUNO+1 :    8 A1 0.0010537
  LUNO+2 :    4 B1 0.0000008
  LUNO+3 :    4 B2 0.0000004

Computation Completed

Properties will be evaluated at   0.000000,   0.000000,   0.000000 [a0]

Properties computed using the SCF density matrix

 Multipole Moments:

 ------------------------------------------------------------------------------------
     Multipole            Electronic (a.u.)      Nuclear  (a.u.)        Total (a.u.)
 ------------------------------------------------------------------------------------

 L = 1.  Multiply by 2.5417464519 to convert [e a0] to [Debye]
 Dipole X            :          0.0000000            0.0000000            0.0000000
 Dipole Y            :          0.0000000            0.0000000            0.0000000
 Dipole Z            :         -1.1314013            0.5832499           -0.5481514
 Magnitude           :                                                    0.5481514

 ------------------------------------------------------------------------------------

*** tstop() called on Joses-MacBook-Pro-2.local at Wed Jul 16 19:12:05 2025
Module time:
	user time   =       4.55 seconds =       0.08 minutes
	system time =       3.47 seconds =       0.06 minutes
	total time  =          1 seconds =       0.02 minutes
Total time:
	user time   =      73.48 seconds =       1.22 minutes
	system time =      59.77 seconds =       1.00 minutes
	total time  =         14 seconds =       0.23 minutes

*** tstart() called on Joses-MacBook-Pro-2.local
*** at Wed Jul 16 19:12:05 2025

         ------------------------------------------------------------
                                   SCF GRAD
                          Rob Parrish, Justin Turney,
                       Andy Simmonett, and Alex Sokolov
         ------------------------------------------------------------

  ==> Geometry <==

    Molecular point group: c2v
    Full point group: C_inf_v

    Geometry (in Angstrom), charge = 0, multiplicity = 5:

       Center              X                  Y                   Z               Mass
    ------------   -----------------  -----------------  -----------------  -----------------
         N            0.000000000000     0.000000000000     1.219131276349    14.003074004430
         AL           0.000000000000     0.000000000000    -0.632713566902    26.981538530000

  Nuclear repulsion =   26.003866547705289

  ==> Basis Set <==

  Basis Set: CC-PVDZ
    Blend: CC-PVDZ
    Number of shells: 14
    Number of basis functions: 32
    Number of Cartesian functions: 34
    Spherical Harmonics?: true
    Max angular momentum: 2

  ==> DFJKGrad: Density-Fitted SCF Gradients <==

    Gradient:                    1
    J tasked:                  Yes
    K tasked:                  Yes
    wK tasked:                  No
    OpenMP threads:              1
    Integrals threads:           1
    Memory [MiB]:              375
    Schwarz Cutoff:          1E-12
    Fitting Condition:       1E-10

   => Auxiliary Basis Set <=

  Basis Set: (CC-PVDZ AUX)
    Blend: CC-PVDZ-JKFIT
    Number of shells: 60
    Number of basis functions: 182
    Number of Cartesian functions: 211
    Spherical Harmonics?: true
    Max angular momentum: 3

  ==> DFT Potential <==

   => LibXC <=

    Version 6.2.2
    S. Lehtola, C. Steigemann, M. J.T. Oliveira, and M. A.L. Marques.,  SoftwareX 7, 1â€“5 (2018) (10.1016/j.softx.2017.11.002)

   => Composite Functional: B3LYP <=

    B3LYP Hyb-GGA Exchange-Correlation Functional

    P. J. Stephens, F. J. Devlin, C. F. Chabalowski, and M. J. Frisch.,  J. Phys. Chem. 98, 11623 (1994) (10.1021/j100096a001)

    Deriv               =              1
    GGA                 =           TRUE
    Meta                =          FALSE

    Exchange Hybrid     =           TRUE
    MP2 Hybrid          =          FALSE

   => Exchange Functionals <=

    0.0800   Slater exchange
    0.7200         Becke 88

   => Exact (HF) Exchange <=

    0.2000               HF

   => Correlation Functionals <=

    0.1900   Vosko, Wilk & Nusair (VWN5_RPA)
    0.8100   Lee, Yang & Parr

   => LibXC Density Thresholds  <==

    XC_HYB_GGA_XC_B3LYP:  1.00E-15

   => Molecular Quadrature <=

    Radial Scheme          =       TREUTLER
    Pruning Scheme         =           NONE
    Nuclear Scheme         =       TREUTLER

    Blocking Scheme        =         OCTREE
    BS radius alpha        =              1
    Pruning alpha          =              1
    Radial Points          =             75
    Spherical Points       =            302
    Total Points           =          43463
    Total Blocks           =            408
    Max Points             =            256
    Max Functions          =             32
    Weights Tolerance      =       1.00E-15

  -Total Gradient:
     Atom            X                  Y                   Z
    ------   -----------------  -----------------  -----------------
       1        0.000000000000     0.000000000000    -0.000184452073
       2        0.000000000000     0.000000000000     0.000155107168

*** tstop() called on Joses-MacBook-Pro-2.local at Wed Jul 16 19:12:05 2025
Module time:
	user time   =       1.50 seconds =       0.03 minutes
	system time =       1.86 seconds =       0.03 minutes
	total time  =          0 seconds =       0.00 minutes
Total time:
	user time   =      74.98 seconds =       1.25 minutes
	system time =      61.64 seconds =       1.03 minutes
	total time  =         14 seconds =       0.23 minutes

    			-----------------------------------------

    			 OPTKING 3.0: for geometry optimizations

    			     By R.A. King, Bethel University

    			        with contributions from

    			    A.V. Copan, J. Cayton, A. Heide

    			-----------------------------------------

	                            ===> Fragment 1 <==

	 Z (Atomic Numbers)          Masses                          Geom
	       7.000000            14.003074          0.00000000  0.00000000  2.30382422
	      13.000000            26.981539          0.00000000  0.00000000 -1.19565536

	 - Coordinate -           - BOHR/RAD -       - ANG/DEG -
	 R(1,2)           =         3.499480           1.851845

	        --- Internal Coordinate Step in ANG or DEG, aJ/ANG or AJ/DEG ---
	-------------------------------------------------------------------------------
	           Coordinate      Previous         Force          Change          New
	           ----------      --------        ------          ------        ------
	               R(1,2)       1.85184        0.00140        0.00048       1.85232
	-------------------------------------------------------------------------------

	                                 ==> Convergence Check <==

	Measures of convergence in internal coordinates in au.

	Criteria marked as inactive (o), active & met (*), and active & unmet ( ).

	----------------------------------------------------------------------------------------------
	   Step    Total Energy     Delta E     Max Force     RMS Force      Max Disp      RMS Disp
	----------------------------------------------------------------------------------------------
	  Convergence Criteria     1.00e-06 *    3.00e-04 *             o    1.20e-03 *             o
	----------------------------------------------------------------------------------------------
	    11    -296.90078745   -2.00e-06      1.70e-04 *    1.70e-04 o    9.03e-04 *    9.03e-04 o  ~
	----------------------------------------------------------------------------------------------

Next Geometry in Ang
	Fragment 1 (Ang)

	    N   0.0000000000   0.0000000000   1.2193702408
	   Al   0.0000000000   0.0000000000  -0.6329525313

    Final optimized geometry and variables:
    Molecular point group: c2v
    Full point group: C_inf_v

    Geometry (in Angstrom), charge = 0, multiplicity = 5:

    N            0.000000000000     0.000000000000     1.219131276349
    AL           0.000000000000     0.000000000000    -0.632713566902

    Psi4 stopped on: Wednesday, 16 July 2025 07:12PM
    Psi4 wall time for execution: 0:00:14.63

*** Psi4 exiting successfully. Buy a developer a beer!
