                               Psi4 1.9.1 release

  ==> Input File <==

--------------------------------------------------------------------------
molecule {
0 5
B   0.00000        0.60000        0.00000
Al   0.00000       -0.60000        0.00000
}

set {
basis              cc-pvdz
reference          uks
maxiter            500
geom_maxiter       500
DAMPING_PERCENTAGE 1
guess              SAP
}

optimize('b3lyp')
--------------------------------------------------------------------------

    Molecular point group: c2v
  Charge       = 0
  Multiplicity = 5
  Basis Set: CC-PVDZ
    Blend: CC-PVDZ
  Basis Set: (CC-PVDZ AUX)
    Blend: CC-PVDZ-JKFIT
  @DF-UKS Final Energy:  -266.54015749828113
    Total Energy =                       -266.5401574982811326
 Dipole X            :          0.0000000            0.0000000            0.0000000
 Dipole Y            :          0.0000000            0.0000000            0.0000000
 Dipole Z            :         -0.1371943           -0.4902500           -0.6274443
 Magnitude           :                                                    0.6274443
    Molecular point group: c2v
  Basis Set: CC-PVDZ
    Blend: CC-PVDZ
  Basis Set: (CC-PVDZ AUX)
    Blend: CC-PVDZ-JKFIT
  Basis Set: CC-PVDZ
    Blend: CC-PVDZ
  Basis Set: (CC-PVDZ AUX)
    Blend: CC-PVDZ-JKFIT
  @DF-UKS Final Energy:  -266.78196923057260
    Total Energy =                       -266.7819692305725994
  Basis Set: CC-PVDZ
    Blend: CC-PVDZ
  Basis Set: (CC-PVDZ AUX)
    Blend: CC-PVDZ-JKFIT
  Basis Set: CC-PVDZ
    Blend: CC-PVDZ
  @DF-UKS Final Energy:  -266.94832930349736
    Total Energy =                       -266.9483293034973599
  @DF-UKS Final Energy:  -267.02737287938271
    Total Energy =                       -267.0273728793827104
  @DF-UKS Final Energy:  -267.05584064683148
    Total Energy =                       -267.0558406468314843
  @DF-UKS Final Energy:  -267.06425483157727
    Total Energy =                       -267.0642548315772729
  @DF-UKS Final Energy:  -267.06555049987725
    Total Energy =                       -267.0655504998772471
  @DF-UKS Final Energy:  -267.06577241538378
    Total Energy =                       -267.0657724153837762
  @DF-UKS Final Energy:  -267.06581881920414
    Total Energy =                       -267.0658188192041393
  Basis Set: (CC-PVDZ AUX)
    Blend: CC-PVDZ-JKFIT
  Basis Set: CC-PVDZ
    Blend: CC-PVDZ
  Basis Set: (CC-PVDZ AUX)
    Blend: CC-PVDZ-JKFIT
  @DF-UKS Final Energy:  -267.06582214448963
    Total Energy =                       -267.0658221444896299
  Basis Set: CC-PVDZ
    Blend: CC-PVDZ
  Basis Set: (CC-PVDZ AUX)
    Blend: CC-PVDZ-JKFIT
  Charge       = 0
  Multiplicity = 5
  Basis Set: CC-PVDZ
    Blend: CC-PVDZ
  Basis Set: (CC-PVDZ AUX)
    Blend: CC-PVDZ-JKFIT

    Orbital Energies [Eh]
    ---------------------

    Alpha Occupied:

       1A1   -56.083387     2A1    -6.800552     3A1    -4.168786
       1B1    -2.722174     1B2    -2.722174     4A1    -2.719838
       5A1    -0.472999     6A1    -0.311822     7A1    -0.205913
       2B1    -0.200551     2B2    -0.200551

    Alpha Virtual:

       3B1    -0.048191     3B2    -0.048191     8A1     0.041745
       9A1     0.148607     4B2     0.196256     4B1     0.196256
      10A1     0.228771     1A2     0.233540    11A1     0.233540
      12A1     0.264036     5B2     0.296560     5B1     0.296560
       6B1     0.329682     6B2     0.329682    13A1     0.550341
      14A1     0.656508    15A1     0.717206     2A2     0.717206
       7B2     0.881263     7B1     0.881263    16A1     1.078082

    Beta Occupied:

       1A1   -56.077750     2A1    -6.776031     3A1    -4.160859
       1B2    -2.714421     1B1    -2.714421     4A1    -2.710045
       5A1    -0.383211

    Beta Virtual:

       6A1    -0.168241     2B2    -0.090312     2B1    -0.090312
       7A1    -0.049818     3B1     0.022903     3B2     0.022903
       8A1     0.073270     9A1     0.181828     4B2     0.224369
       4B1     0.224369    10A1     0.283396     1A2     0.283396
      11A1     0.292561    12A1     0.309024     5B2     0.348242
       5B1     0.348242     6B2     0.388074     6B1     0.388074
      13A1     0.612519    14A1     0.712024    15A1     0.793457
       2A2     0.793457     7B2     0.965301     7B1     0.965301
      16A1     1.151514

    Final Occupation by Irrep:
             A1    A2    B1    B2
    DOCC [     5,    0,    1,    1 ]
    SOCC [     2,    0,    1,    1 ]
    NA   [     7,    0,    2,    2 ]
    NB   [     5,    0,    1,    1 ]

  @DF-UKS Final Energy:  -267.06582239387978

   => Energetics <=

    Nuclear Repulsion Energy =             17.6464926846661179
    One-Electron Energy =                -404.2558991916596369
    Two-Electron Energy =                 137.7686253689688556
    DFT Exchange-Correlation Energy =     -18.2250412558550963
    Empirical Dispersion Energy =           0.0000000000000000
    VV10 Nonlocal Energy =                  0.0000000000000000
    Total Energy =                       -267.0658223938797846

  UHF NO Occupations:
  HONO-2 :    2 B2 1.0000000
  HONO-1 :    2 B1 1.0000000
  HONO-0 :    7 A1 1.0000000
  LUNO+0 :    8 A1 0.0006488
  LUNO+1 :    3 B2 0.0000003
  LUNO+2 :    3 B1 0.0000003
  LUNO+3 :    9 A1 0.0000002

Computation Completed

Properties will be evaluated at   0.000000,   0.000000,   0.000000 [a0]

Properties computed using the SCF density matrix

 Multipole Moments:

 ------------------------------------------------------------------------------------
     Multipole            Electronic (a.u.)      Nuclear  (a.u.)        Total (a.u.)
 ------------------------------------------------------------------------------------

 L = 1.  Multiply by 2.5417464519 to convert [e a0] to [Debye]
 Dipole X            :          0.0000000            0.0000000            0.0000000
 Dipole Y            :          0.0000000            0.0000000            0.0000000
 Dipole Z            :         -0.1210714           -0.7963289           -0.9174003
 Magnitude           :                                                    0.9174003

 ------------------------------------------------------------------------------------

*** tstop() called on Joses-MacBook-Pro-2.local at Wed Jul 16 18:54:37 2025
Module time:
	user time   =       2.40 seconds =       0.04 minutes
	system time =       4.04 seconds =       0.07 minutes
	total time  =          1 seconds =       0.02 minutes
Total time:
	user time   =      43.83 seconds =       0.73 minutes
	system time =      77.65 seconds =       1.29 minutes
	total time  =         13 seconds =       0.22 minutes

*** tstart() called on Joses-MacBook-Pro-2.local
*** at Wed Jul 16 18:54:37 2025

         ------------------------------------------------------------
                                   SCF GRAD
                          Rob Parrish, Justin Turney,
                       Andy Simmonett, and Alex Sokolov
         ------------------------------------------------------------

  ==> Geometry <==

    Molecular point group: c2v
    Full point group: C_inf_v

    Geometry (in Angstrom), charge = 0, multiplicity = 5:

       Center              X                  Y                   Z               Mass
    ------------   -----------------  -----------------  -----------------  -----------------
         B            0.000000000000     0.000000000000     1.384343476634    11.009305360000
         AL           0.000000000000     0.000000000000    -0.564855115302    26.981538530000

  Nuclear repulsion =   17.646492684666118

  ==> Basis Set <==

  Basis Set: CC-PVDZ
    Blend: CC-PVDZ
    Number of shells: 14
    Number of basis functions: 32
    Number of Cartesian functions: 34
    Spherical Harmonics?: true
    Max angular momentum: 2

  ==> DFJKGrad: Density-Fitted SCF Gradients <==

    Gradient:                    1
    J tasked:                  Yes
    K tasked:                  Yes
    wK tasked:                  No
    OpenMP threads:              1
    Integrals threads:           1
    Memory [MiB]:              375
    Schwarz Cutoff:          1E-12
    Fitting Condition:       1E-10

   => Auxiliary Basis Set <=

  Basis Set: (CC-PVDZ AUX)
    Blend: CC-PVDZ-JKFIT
    Number of shells: 60
    Number of basis functions: 182
    Number of Cartesian functions: 211
    Spherical Harmonics?: true
    Max angular momentum: 3

  ==> DFT Potential <==

   => LibXC <=

    Version 6.2.2
    S. Lehtola, C. Steigemann, M. J.T. Oliveira, and M. A.L. Marques.,  SoftwareX 7, 1â€“5 (2018) (10.1016/j.softx.2017.11.002)

   => Composite Functional: B3LYP <=

    B3LYP Hyb-GGA Exchange-Correlation Functional

    P. J. Stephens, F. J. Devlin, C. F. Chabalowski, and M. J. Frisch.,  J. Phys. Chem. 98, 11623 (1994) (10.1021/j100096a001)

    Deriv               =              1
    GGA                 =           TRUE
    Meta                =          FALSE

    Exchange Hybrid     =           TRUE
    MP2 Hybrid          =          FALSE

   => Exchange Functionals <=

    0.0800   Slater exchange
    0.7200         Becke 88

   => Exact (HF) Exchange <=

    0.2000               HF

   => Correlation Functionals <=

    0.1900   Vosko, Wilk & Nusair (VWN5_RPA)
    0.8100   Lee, Yang & Parr

   => LibXC Density Thresholds  <==

    XC_HYB_GGA_XC_B3LYP:  1.00E-15

   => Molecular Quadrature <=

    Radial Scheme          =       TREUTLER
    Pruning Scheme         =           NONE
    Nuclear Scheme         =       TREUTLER

    Blocking Scheme        =         OCTREE
    BS radius alpha        =              1
    Pruning alpha          =              1
    Radial Points          =             75
    Spherical Points       =            302
    Total Points           =          42967
    Total Blocks           =            405
    Max Points             =            254
    Max Functions          =             32
    Weights Tolerance      =       1.00E-15

  -Total Gradient:
     Atom            X                  Y                   Z
    ------   -----------------  -----------------  -----------------
       1        0.000000000000     0.000000000000    -0.000042366637
       2        0.000000000000     0.000000000000     0.000033163335

*** tstop() called on Joses-MacBook-Pro-2.local at Wed Jul 16 18:54:37 2025
Module time:
	user time   =       1.13 seconds =       0.02 minutes
	system time =       2.05 seconds =       0.03 minutes
	total time  =          0 seconds =       0.00 minutes
Total time:
	user time   =      44.97 seconds =       0.75 minutes
	system time =      79.71 seconds =       1.33 minutes
	total time  =         13 seconds =       0.22 minutes

    			-----------------------------------------

    			 OPTKING 3.0: for geometry optimizations

    			     By R.A. King, Bethel University

    			        with contributions from

    			    A.V. Copan, J. Cayton, A. Heide

    			-----------------------------------------

	                            ===> Fragment 1 <==

	 Z (Atomic Numbers)          Masses                          Geom
	       5.000000            11.009305          0.00000000  0.00000000  2.61603003
	      13.000000            26.981539          0.00000000  0.00000000 -1.06742147

	 - Coordinate -           - BOHR/RAD -       - ANG/DEG -
	 R(1,2)           =         3.683452           1.949199

	        --- Internal Coordinate Step in ANG or DEG, aJ/ANG or AJ/DEG ---
	-------------------------------------------------------------------------------
	           Coordinate      Previous         Force          Change          New
	           ----------      --------        ------          ------        ------
	               R(1,2)       1.94920        0.00031        0.00011       1.94931
	-------------------------------------------------------------------------------

	                                 ==> Convergence Check <==

	Measures of convergence in internal coordinates in au.

	Criteria marked as inactive (o), active & met (*), and active & unmet ( ).

	----------------------------------------------------------------------------------------------
	   Step    Total Energy     Delta E     Max Force     RMS Force      Max Disp      RMS Disp
	----------------------------------------------------------------------------------------------
	  Convergence Criteria     1.00e-06 *    3.00e-04 *             o    1.20e-03 *             o
	----------------------------------------------------------------------------------------------
	    11    -267.06582239   -2.49e-07 *    3.78e-05 *    3.78e-05 o    2.03e-04 *    2.03e-04 o  ~
	----------------------------------------------------------------------------------------------

Next Geometry in Ang
	Fragment 1 (Ang)

	    B   0.0000000000   0.0000000000   1.3843970791
	   Al   0.0000000000   0.0000000000  -0.5649087177

    Final optimized geometry and variables:
    Molecular point group: c2v
    Full point group: C_inf_v

    Geometry (in Angstrom), charge = 0, multiplicity = 5:

    B            0.000000000000     0.000000000000     1.384343476634
    AL           0.000000000000     0.000000000000    -0.564855115302

    Psi4 stopped on: Wednesday, 16 July 2025 06:54PM
    Psi4 wall time for execution: 0:00:13.98

*** Psi4 exiting successfully. Buy a developer a beer!
