                               Psi4 1.9.1 release

  ==> Input File <==

--------------------------------------------------------------------------
molecule {
0 5
P   0.00000        0.60000        0.00000
Cl   0.00000       -0.60000        0.00000
}

set {
basis              cc-pvdz
reference          uks
maxiter            500
geom_maxiter       500
DAMPING_PERCENTAGE 1
guess              SAP
}

optimize('b3lyp')
--------------------------------------------------------------------------

    Molecular point group: c2v
  Charge       = 0
  Multiplicity = 5
  Basis Set: CC-PVDZ
    Blend: CC-PVDZ
  Basis Set: (CC-PVDZ AUX)
    Blend: CC-PVDZ-JKFIT
  @DF-UKS Final Energy:  -799.95951602284936
    Total Energy =                       -799.9595160228494706
 Dipole X            :          0.0000000            0.0000000            0.0000000
 Dipole Y            :          0.0000000            0.0000000            0.0000000
 Dipole Z            :         -0.6853753           -0.0695049           -0.7548802
 Magnitude           :                                                    0.7548802
    Molecular point group: c2v
  Basis Set: CC-PVDZ
    Blend: CC-PVDZ
  Basis Set: (CC-PVDZ AUX)
    Blend: CC-PVDZ-JKFIT
  Basis Set: CC-PVDZ
    Blend: CC-PVDZ
  Basis Set: (CC-PVDZ AUX)
    Blend: CC-PVDZ-JKFIT
  @DF-UKS Final Energy:  -800.00133791288033
    Total Energy =                       -800.0013379128803308
  Basis Set: CC-PVDZ
    Blend: CC-PVDZ
  Basis Set: (CC-PVDZ AUX)
    Blend: CC-PVDZ-JKFIT
  Basis Set: CC-PVDZ
    Blend: CC-PVDZ
  @DF-UKS Final Energy:  -800.07874598375440
    Total Energy =                       -800.0787459837544020
  @DF-UKS Final Energy:  -800.32905927778654
    Total Energy =                       -800.3290592777865413
  @DF-UKS Final Energy:  -800.84340410474545
    Total Energy =                       -800.8434041047454457
  @DF-UKS Final Energy:  -801.03050743630229
    Total Energy =                       -801.0305074363022868
  @DF-UKS Final Energy:  -801.16571030979571
    Total Energy =                       -801.1657103097957133
  @DF-UKS Final Energy:  -801.25900962184596
    Total Energy =                       -801.2590096218459621
  @DF-UKS Final Energy:  -801.32724241047617
    Total Energy =                       -801.3272424104759466
  @DF-UKS Final Energy:  -801.37230421967729
    Total Energy =                       -801.3723042196774031
  @DF-UKS Final Energy:  -801.40134846858086
    Total Energy =                       -801.4013484685808635
  @DF-UKS Final Energy:  -801.41767394215219
    Total Energy =                       -801.4176739421521916
  @DF-UKS Final Energy:  -801.42606720307549
    Total Energy =                       -801.4260672030754904
  @DF-UKS Final Energy:  -801.43027529006736
    Total Energy =                       -801.4302752900673568
  @DF-UKS Final Energy:  -801.43241588884212
    Total Energy =                       -801.4324158888421152
  @DF-UKS Final Energy:  -801.43352780947100
    Total Energy =                       -801.4335278094710020
  @DF-UKS Final Energy:  -801.43411790287701
    Total Energy =                       -801.4341179028770057
  @DF-UKS Final Energy:  -801.43443989108994
    Total Energy =                       -801.4344398910899372
  @DF-UKS Final Energy:  -801.43462212004169
    Total Energy =                       -801.4346221200416949
  @DF-UKS Final Energy:  -801.43472948802537
    Total Energy =                       -801.4347294880251411
  Basis Set: (CC-PVDZ AUX)
    Blend: CC-PVDZ-JKFIT
  Basis Set: CC-PVDZ
    Blend: CC-PVDZ
  Basis Set: (CC-PVDZ AUX)
    Blend: CC-PVDZ-JKFIT
  @DF-UKS Final Energy:  -801.43479709833343
    Total Energy =                       -801.4347970983334335
  Basis Set: CC-PVDZ
    Blend: CC-PVDZ
  Basis Set: (CC-PVDZ AUX)
    Blend: CC-PVDZ-JKFIT
  Charge       = 0
  Multiplicity = 5
  Basis Set: CC-PVDZ
    Blend: CC-PVDZ
  Basis Set: (CC-PVDZ AUX)
    Blend: CC-PVDZ-JKFIT

    Orbital Energies [Eh]
    ---------------------

    Alpha Occupied:

       1A1  -101.590921     2A1   -77.118228     3A1    -9.505006
       4A1    -7.278826     1B2    -7.255198     1B1    -7.255198
       5A1    -6.586397     6A1    -4.749819     2B1    -4.749809
       2B2    -4.749809     7A1    -0.842378     8A1    -0.597171
       9A1    -0.404482     3B2    -0.349025     3B1    -0.349025
      10A1    -0.258020     4B1    -0.257686     4B2    -0.257686

    Alpha Virtual:

      11A1     0.329097    12A1     0.394844     5B1     0.399659
       5B2     0.399659    13A1     0.431064     6B1     0.431220
       6B2     0.431220    14A1     0.431389     1A2     0.431403
      15A1     0.503114     7B2     0.530372     7B1     0.530372
      16A1     0.577791    17A1     0.654793     8B2     0.667802
       8B1     0.667802     2A2     0.711928    18A1     0.711942

    Beta Occupied:

       1A1  -101.584204     2A1   -77.106003     3A1    -9.498371
       4A1    -7.256909     1B2    -7.251219     1B1    -7.251219
       5A1    -6.573470     6A1    -4.730714     2B2    -4.730688
       2B1    -4.730688     7A1    -0.789022     8A1    -0.480390
       3B2    -0.333103     3B1    -0.333103

    Beta Virtual:

       9A1    -0.242668    10A1    -0.111046     4B1    -0.110643
       4B2    -0.110643    11A1     0.373057    12A1     0.444589
       5B1     0.449453     5B2     0.449453    13A1     0.527930
       6B1     0.528210     6B2     0.528210    14A1     0.528411
       1A2     0.528425     7B2     0.537686     7B1     0.537686
      15A1     0.549005    16A1     0.598671     2A2     0.720229
      17A1     0.720241     8B2     0.725479     8B1     0.725479
      18A1     0.734595

    Final Occupation by Irrep:
             A1    A2    B1    B2
    DOCC [     8,    0,    3,    3 ]
    SOCC [     2,    0,    1,    1 ]
    NA   [    10,    0,    4,    4 ]
    NB   [     8,    0,    3,    3 ]

  @DF-UKS Final Energy:  -801.43484295252063

   => Energetics <=

    Nuclear Repulsion Energy =             26.2858028052350932
    One-Electron Energy =               -1159.1974644825268115
    Two-Electron Energy =                 372.8707433501563742
    DFT Exchange-Correlation Energy =     -41.3939246253852744
    Empirical Dispersion Energy =           0.0000000000000000
    VV10 Nonlocal Energy =                  0.0000000000000000
    Total Energy =                       -801.4348429525206257

  UHF NO Occupations:
  HONO-2 :    4 B1 1.0000000
  HONO-1 :    9 A1 1.0000000
  HONO-0 :   10 A1 1.0000000
  LUNO+0 :   11 A1 0.0008608
  LUNO+1 :   12 A1 0.0000887
  LUNO+2 :    5 B2 0.0000261
  LUNO+3 :    5 B1 0.0000261

Computation Completed

Properties will be evaluated at   0.000000,   0.000000,   0.000000 [a0]

Properties computed using the SCF density matrix

 Multipole Moments:

 ------------------------------------------------------------------------------------
     Multipole            Electronic (a.u.)      Nuclear  (a.u.)        Total (a.u.)
 ------------------------------------------------------------------------------------

 L = 1.  Multiply by 2.5417464519 to convert [e a0] to [Debye]
 Dipole X            :          0.0000000            0.0000000            0.0000000
 Dipole Y            :          0.0000000            0.0000000            0.0000000
 Dipole Z            :          0.3046718           -0.2973406            0.0073312
 Magnitude           :                                                    0.0073312

 ------------------------------------------------------------------------------------

*** tstop() called on Joses-MacBook-Pro-2.local at Wed Jul 16 20:25:01 2025
Module time:
	user time   =       2.79 seconds =       0.05 minutes
	system time =       2.70 seconds =       0.04 minutes
	total time  =          0 seconds =       0.00 minutes
Total time:
	user time   =     233.20 seconds =       3.89 minutes
	system time =      84.03 seconds =       1.40 minutes
	total time  =         30 seconds =       0.50 minutes

*** tstart() called on Joses-MacBook-Pro-2.local
*** at Wed Jul 16 20:25:01 2025

         ------------------------------------------------------------
                                   SCF GRAD
                          Rob Parrish, Justin Turney,
                       Andy Simmonett, and Alex Sokolov
         ------------------------------------------------------------

  ==> Geometry <==

    Molecular point group: c2v
    Full point group: C_inf_v

    Geometry (in Angstrom), charge = 0, multiplicity = 5:

       Center              X                  Y                   Z               Mass
    ------------   -----------------  -----------------  -----------------  -----------------
         P            0.000000000000     0.000000000000     2.722295641614    30.973761998420
         CL           0.000000000000     0.000000000000    -2.411281206721    34.968852682000

  Nuclear repulsion =   26.285802805235093

  ==> Basis Set <==

  Basis Set: CC-PVDZ
    Blend: CC-PVDZ
    Number of shells: 16
    Number of basis functions: 36
    Number of Cartesian functions: 38
    Spherical Harmonics?: true
    Max angular momentum: 2

  ==> DFJKGrad: Density-Fitted SCF Gradients <==

    Gradient:                    1
    J tasked:                  Yes
    K tasked:                  Yes
    wK tasked:                  No
    OpenMP threads:              1
    Integrals threads:           1
    Memory [MiB]:              375
    Schwarz Cutoff:          1E-12
    Fitting Condition:       1E-10

   => Auxiliary Basis Set <=

  Basis Set: (CC-PVDZ AUX)
    Blend: CC-PVDZ-JKFIT
    Number of shells: 72
    Number of basis functions: 224
    Number of Cartesian functions: 260
    Spherical Harmonics?: true
    Max angular momentum: 3

  ==> DFT Potential <==

   => LibXC <=

    Version 6.2.2
    S. Lehtola, C. Steigemann, M. J.T. Oliveira, and M. A.L. Marques.,  SoftwareX 7, 1â€“5 (2018) (10.1016/j.softx.2017.11.002)

   => Composite Functional: B3LYP <=

    B3LYP Hyb-GGA Exchange-Correlation Functional

    P. J. Stephens, F. J. Devlin, C. F. Chabalowski, and M. J. Frisch.,  J. Phys. Chem. 98, 11623 (1994) (10.1021/j100096a001)

    Deriv               =              1
    GGA                 =           TRUE
    Meta                =          FALSE

    Exchange Hybrid     =           TRUE
    MP2 Hybrid          =          FALSE

   => Exchange Functionals <=

    0.0800   Slater exchange
    0.7200         Becke 88

   => Exact (HF) Exchange <=

    0.2000               HF

   => Correlation Functionals <=

    0.1900   Vosko, Wilk & Nusair (VWN5_RPA)
    0.8100   Lee, Yang & Parr

   => LibXC Density Thresholds  <==

    XC_HYB_GGA_XC_B3LYP:  1.00E-15

   => Molecular Quadrature <=

    Radial Scheme          =       TREUTLER
    Pruning Scheme         =           NONE
    Nuclear Scheme         =       TREUTLER

    Blocking Scheme        =         OCTREE
    BS radius alpha        =              1
    Pruning alpha          =              1
    Radial Points          =             75
    Spherical Points       =            302
    Total Points           =          41086
    Total Blocks           =            444
    Max Points             =            246
    Max Functions          =             36
    Weights Tolerance      =       1.00E-15

  -Total Gradient:
     Atom            X                  Y                   Z
    ------   -----------------  -----------------  -----------------
       1        0.000000000000    -0.000000000000    -0.000071471068
       2        0.000000000000     0.000000000000     0.000068163205

*** tstop() called on Joses-MacBook-Pro-2.local at Wed Jul 16 20:25:02 2025
Module time:
	user time   =       1.23 seconds =       0.02 minutes
	system time =       1.71 seconds =       0.03 minutes
	total time  =          1 seconds =       0.02 minutes
Total time:
	user time   =     234.43 seconds =       3.91 minutes
	system time =      85.74 seconds =       1.43 minutes
	total time  =         31 seconds =       0.52 minutes

    			-----------------------------------------

    			 OPTKING 3.0: for geometry optimizations

    			     By R.A. King, Bethel University

    			        with contributions from

    			    A.V. Copan, J. Cayton, A. Heide

    			-----------------------------------------

	                            ===> Fragment 1 <==

	 Z (Atomic Numbers)          Masses                          Geom
	      15.000000            30.973762          0.00000000  0.00000000  5.14439320
	      17.000000            34.968853          0.00000000  0.00000000 -4.55666109

	 - Coordinate -           - BOHR/RAD -       - ANG/DEG -
	 R(1,2)           =         9.701054           5.133577

	        --- Internal Coordinate Step in ANG or DEG, aJ/ANG or AJ/DEG ---
	-------------------------------------------------------------------------------
	           Coordinate      Previous         Force          Change          New
	           ----------      --------        ------          ------        ------
	               R(1,2)       5.13358        0.00058        0.00009       5.13367
	-------------------------------------------------------------------------------

	                                 ==> Convergence Check <==

	Measures of convergence in internal coordinates in au.

	Criteria marked as inactive (o), active & met (*), and active & unmet ( ).

	----------------------------------------------------------------------------------------------
	   Step    Total Energy     Delta E     Max Force     RMS Force      Max Disp      RMS Disp
	----------------------------------------------------------------------------------------------
	  Convergence Criteria     1.00e-06 *    3.00e-04 *             o    1.20e-03 *             o
	----------------------------------------------------------------------------------------------
	    22    -801.43484295   -4.59e-05      6.98e-05 *    6.98e-05 o    1.71e-04 *    1.71e-04 o  ~
	----------------------------------------------------------------------------------------------

Next Geometry in Ang
	Fragment 1 (Ang)

	    P   0.0000000000   0.0000000000   2.7223407816
	   Cl   0.0000000000   0.0000000000  -2.4113263467

    Final optimized geometry and variables:
    Molecular point group: c2v
    Full point group: C_inf_v

    Geometry (in Angstrom), charge = 0, multiplicity = 5:

    P            0.000000000000     0.000000000000     2.722295641614
    CL           0.000000000000     0.000000000000    -2.411281206721

    Psi4 stopped on: Wednesday, 16 July 2025 08:25PM
    Psi4 wall time for execution: 0:00:31.52

*** Psi4 exiting successfully. Buy a developer a beer!
