                               Psi4 1.9.1 release

  ==> Input File <==

--------------------------------------------------------------------------
molecule {
0 5
Na   0.00000        0.60000        0.00000
Na   0.00000       -0.60000        0.00000
}

set {
basis              cc-pvdz
reference          uks
maxiter            500
geom_maxiter       500
DAMPING_PERCENTAGE 1
guess              SAP
}

optimize('b3lyp')
--------------------------------------------------------------------------

    Molecular point group: d2h
  Charge       = 0
  Multiplicity = 5
  Basis Set: CC-PVDZ
    Blend: CC-PVDZ
  Basis Set: (CC-PVDZ AUX)
    Blend: DEF2-UNIVERSAL-JKFIT
  @DF-UKS Final Energy:  -322.90508534819918
    Total Energy =                       -322.9050853481991794
 Dipole X            :          0.0000000            0.0000000            0.0000000
 Dipole Y            :          0.0000000            0.0000000            0.0000000
 Dipole Z            :          0.0000000            0.0000000            0.0000000
 Magnitude           :                                                    0.0000000
    Molecular point group: d2h
  Basis Set: CC-PVDZ
    Blend: CC-PVDZ
  Basis Set: (CC-PVDZ AUX)
    Blend: DEF2-UNIVERSAL-JKFIT
  Basis Set: CC-PVDZ
    Blend: CC-PVDZ
  Basis Set: (CC-PVDZ AUX)
    Blend: DEF2-UNIVERSAL-JKFIT
  @DF-UKS Final Energy:  -322.90891920525405
    Total Energy =                       -322.9089192052539943
  Basis Set: CC-PVDZ
    Blend: CC-PVDZ
  Basis Set: (CC-PVDZ AUX)
    Blend: DEF2-UNIVERSAL-JKFIT
  Basis Set: CC-PVDZ
    Blend: CC-PVDZ
  @DF-UKS Final Energy:  -322.91636858970389
    Total Energy =                       -322.9163685897038931
  @DF-UKS Final Energy:  -322.94388787108966
    Total Energy =                       -322.9438878710896574
  @DF-UKS Final Energy:  -323.08146393146200
    Total Energy =                       -323.0814639314619967
  @DF-UKS Final Energy:  -323.16481499690485
    Total Energy =                       -323.1648149969048518
  @DF-UKS Final Energy:  -323.20848132998702
    Total Energy =                       -323.2084813299870234
  @DF-UKS Final Energy:  -323.24546092137052
    Total Energy =                       -323.2454609213705226
  @DF-UKS Final Energy:  -323.27791670277600
    Total Energy =                       -323.2779167027759968
  @DF-UKS Final Energy:  -323.30708077178701
    Total Energy =                       -323.3070807717870139
  @DF-UKS Final Energy:  -323.31039103992333
    Total Energy =                       -323.3103910399233314
  @DF-UKS Final Energy:  -323.35565762757932
    Total Energy =                       -323.3556576275793191
  @DF-UKS Final Energy:  -323.36732064548266
    Total Energy =                       -323.3673206454826641
  @DF-UKS Final Energy:  -323.36747366149928
    Total Energy =                       -323.3674736614992753
  @DF-UKS Final Energy:  -323.36980169336846
    Total Energy =                       -323.3698016933684585
  @DF-UKS Final Energy:  -323.36983032705427
    Total Energy =                       -323.3698303270542169
  @DF-UKS Final Energy:  -323.37026733697462
    Total Energy =                       -323.3702673369746208
  Basis Set: (CC-PVDZ AUX)
    Blend: DEF2-UNIVERSAL-JKFIT
  Basis Set: CC-PVDZ
    Blend: CC-PVDZ
  Basis Set: (CC-PVDZ AUX)
    Blend: DEF2-UNIVERSAL-JKFIT
  @DF-UKS Final Energy:  -323.37027347151536
    Total Energy =                       -323.3702734715154179
  Basis Set: CC-PVDZ
    Blend: CC-PVDZ
  Basis Set: (CC-PVDZ AUX)
    Blend: DEF2-UNIVERSAL-JKFIT
  Charge       = 0
  Multiplicity = 5
  Basis Set: CC-PVDZ
    Blend: CC-PVDZ
  Basis Set: (CC-PVDZ AUX)
    Blend: DEF2-UNIVERSAL-JKFIT

    Orbital Energies [Eh]
    ---------------------

    Alpha Occupied:

       1B2u  -39.102067     1Ag   -39.102065     2Ag    -2.627768
       2B2u   -2.627766     3Ag    -1.600946     3B2u   -1.600740
       1B1g   -1.540146     1B3u   -1.540124     1B3g   -1.538449
       1B1u   -1.538424     4Ag    -0.228451     4B2u   -0.154618
       2B1u   -0.101677

    Alpha Virtual:

       5Ag    -0.067635     2B3u   -0.062160     2B3g   -0.027036
       2B1g   -0.020426     5B2u    0.008204     6Ag     0.028264
       3B1u    0.038378     7Ag     0.039968     3B3u    0.043885
       3B3g    0.062643     3B1g    0.065485     6B2u    0.065757
       1B2g    0.100386     4B1u    0.101632     8Ag     0.103692
       4B3u    0.107006     7B2u    0.125854     1Au     0.152702
       8B2u    0.155276     9Ag     0.180092     4B3g    0.226927
       4B1g    0.230847     9B2u    0.350267

    Beta Occupied:

       1Ag   -39.080350     1B2u  -39.080347     2Ag    -2.569807
       2B2u   -2.569480     1B1g   -1.517227     1B3u   -1.517217
       1B3g   -1.514450     1B1u   -1.514435     3Ag    -1.424172

    Beta Virtual:

       3B2u   -1.391586     4Ag    -0.126556     4B2u   -0.075562
       2B3u   -0.024461     2B1u   -0.013860     5Ag    -0.011699
       2B1g    0.009561     2B3g    0.017127     5B2u    0.024591
       6Ag     0.054126     7Ag     0.059967     3B3u    0.060402
       3B1u    0.066517     3B1g    0.081903     3B3g    0.089239
       6B2u    0.101753     7B2u    0.148243     1B2g    0.150469
       8Ag     0.150529     4B3u    0.151493     4B1u    0.162205
       1Au     0.196869     8B2u    0.197438     9Ag     0.222740
       4B1g    0.266363     4B3g    0.277534     9B2u    0.385149

    Final Occupation by Irrep:
             Ag   B1g   B2g   B3g    Au   B1u   B2u   B3u
    DOCC [     3,    1,    0,    1,    0,    1,    2,    1 ]
    SOCC [     1,    0,    0,    0,    0,    1,    2,    0 ]
    NA   [     4,    1,    0,    1,    0,    2,    4,    1 ]
    NB   [     3,    1,    0,    1,    0,    1,    2,    1 ]

  @DF-UKS Final Energy:  -323.37027351012102

   => Energetics <=

    Nuclear Repulsion Energy =             19.1341314705643448
    One-Electron Energy =                -484.7537601864269163
    Two-Electron Energy =                 164.8429222851083580
    DFT Exchange-Correlation Energy =     -22.5935670793667960
    Empirical Dispersion Energy =           0.0000000000000000
    VV10 Nonlocal Energy =                  0.0000000000000000
    Total Energy =                       -323.3702735101209669

  UHF NO Occupations:
  HONO-2 :    4 Ag 1.0000000
  HONO-1 :    2B1u 1.0000000
  HONO-0 :    4B2u 1.0000000
  LUNO+0 :    5 Ag 0.0000673
  LUNO+1 :    5B2u 0.0000011
  LUNO+2 :    2B1g 0.0000007
  LUNO+3 :    2B3g 0.0000005

Computation Completed

Properties will be evaluated at   0.000000,   0.000000,   0.000000 [a0]

Properties computed using the SCF density matrix

 Multipole Moments:

 ------------------------------------------------------------------------------------
     Multipole            Electronic (a.u.)      Nuclear  (a.u.)        Total (a.u.)
 ------------------------------------------------------------------------------------

 L = 1.  Multiply by 2.5417464519 to convert [e a0] to [Debye]
 Dipole X            :          0.0000000            0.0000000            0.0000000
 Dipole Y            :          0.0000000            0.0000000            0.0000000
 Dipole Z            :          0.0000000            0.0000000            0.0000000
 Magnitude           :                                                    0.0000000

 ------------------------------------------------------------------------------------

*** tstop() called on Joses-MacBook-Pro-2.local at Wed Jul 16 19:39:58 2025
Module time:
	user time   =       5.66 seconds =       0.09 minutes
	system time =       2.24 seconds =       0.04 minutes
	total time  =          1 seconds =       0.02 minutes
Total time:
	user time   =     175.55 seconds =       2.93 minutes
	system time =      80.57 seconds =       1.34 minutes
	total time  =         25 seconds =       0.42 minutes

*** tstart() called on Joses-MacBook-Pro-2.local
*** at Wed Jul 16 19:39:58 2025

         ------------------------------------------------------------
                                   SCF GRAD
                          Rob Parrish, Justin Turney,
                       Andy Simmonett, and Alex Sokolov
         ------------------------------------------------------------

  ==> Geometry <==

    Molecular point group: d2h
    Full point group: D_inf_h

    Geometry (in Angstrom), charge = 0, multiplicity = 5:

       Center              X                  Y                   Z               Mass
    ------------   -----------------  -----------------  -----------------  -----------------
         NA          -0.000000000000     1.673199606409     0.000000000000    22.989769282000
         NA           0.000000000000    -1.673199606409     0.000000000000    22.989769282000

  Nuclear repulsion =   19.134131470564345

  ==> Basis Set <==

  Basis Set: CC-PVDZ
    Blend: CC-PVDZ
    Number of shells: 16
    Number of basis functions: 36
    Number of Cartesian functions: 38
    Spherical Harmonics?: true
    Max angular momentum: 2

  ==> DFJKGrad: Density-Fitted SCF Gradients <==

    Gradient:                    1
    J tasked:                  Yes
    K tasked:                  Yes
    wK tasked:                  No
    OpenMP threads:              1
    Integrals threads:           1
    Memory [MiB]:              375
    Schwarz Cutoff:          1E-12
    Fitting Condition:       1E-10

   => Auxiliary Basis Set <=

  Basis Set: (CC-PVDZ AUX)
    Blend: DEF2-UNIVERSAL-JKFIT
    Number of shells: 68
    Number of basis functions: 224
    Number of Cartesian functions: 274
    Spherical Harmonics?: true
    Max angular momentum: 4

  ==> DFT Potential <==

   => LibXC <=

    Version 6.2.2
    S. Lehtola, C. Steigemann, M. J.T. Oliveira, and M. A.L. Marques.,  SoftwareX 7, 1â€“5 (2018) (10.1016/j.softx.2017.11.002)

   => Composite Functional: B3LYP <=

    B3LYP Hyb-GGA Exchange-Correlation Functional

    P. J. Stephens, F. J. Devlin, C. F. Chabalowski, and M. J. Frisch.,  J. Phys. Chem. 98, 11623 (1994) (10.1021/j100096a001)

    Deriv               =              1
    GGA                 =           TRUE
    Meta                =          FALSE

    Exchange Hybrid     =           TRUE
    MP2 Hybrid          =          FALSE

   => Exchange Functionals <=

    0.0800   Slater exchange
    0.7200         Becke 88

   => Exact (HF) Exchange <=

    0.2000               HF

   => Correlation Functionals <=

    0.1900   Vosko, Wilk & Nusair (VWN5_RPA)
    0.8100   Lee, Yang & Parr

   => LibXC Density Thresholds  <==

    XC_HYB_GGA_XC_B3LYP:  1.00E-15

   => Molecular Quadrature <=

    Radial Scheme          =       TREUTLER
    Pruning Scheme         =           NONE
    Nuclear Scheme         =       TREUTLER

    Blocking Scheme        =         OCTREE
    BS radius alpha        =              1
    Pruning alpha          =              1
    Radial Points          =             75
    Spherical Points       =            302
    Total Points           =          43102
    Total Blocks           =            446
    Max Points             =            254
    Max Functions          =             36
    Weights Tolerance      =       1.00E-15

  -Total Gradient:
     Atom            X                  Y                   Z
    ------   -----------------  -----------------  -----------------
       1        0.000000000000    -0.000002003367     0.000000000000
       2       -0.000000000000     0.000002003367    -0.000000000000

*** tstop() called on Joses-MacBook-Pro-2.local at Wed Jul 16 19:39:58 2025
Module time:
	user time   =       3.03 seconds =       0.05 minutes
	system time =       1.27 seconds =       0.02 minutes
	total time  =          0 seconds =       0.00 minutes
Total time:
	user time   =     178.59 seconds =       2.98 minutes
	system time =      81.84 seconds =       1.36 minutes
	total time  =         25 seconds =       0.42 minutes

    			-----------------------------------------

    			 OPTKING 3.0: for geometry optimizations

    			     By R.A. King, Bethel University

    			        with contributions from

    			    A.V. Copan, J. Cayton, A. Heide

    			-----------------------------------------

	                            ===> Fragment 1 <==

	 Z (Atomic Numbers)          Masses                          Geom
	      11.000000            22.989769         -0.00000000  3.16188901  0.00000000
	      11.000000            22.989769          0.00000000 -3.16188901  0.00000000

	 - Coordinate -           - BOHR/RAD -       - ANG/DEG -
	 R(1,2)           =         6.323778           3.346399

	        --- Internal Coordinate Step in ANG or DEG, aJ/ANG or AJ/DEG ---
	-------------------------------------------------------------------------------
	           Coordinate      Previous         Force          Change          New
	           ----------      --------        ------          ------        ------
	               R(1,2)       3.34640        0.00002        0.00014       3.34654
	-------------------------------------------------------------------------------

	                                 ==> Convergence Check <==

	Measures of convergence in internal coordinates in au.

	Criteria marked as inactive (o), active & met (*), and active & unmet ( ).

	----------------------------------------------------------------------------------------------
	   Step    Total Energy     Delta E     Max Force     RMS Force      Max Disp      RMS Disp
	----------------------------------------------------------------------------------------------
	  Convergence Criteria     1.00e-06 *    3.00e-04 *             o    1.20e-03 *             o
	----------------------------------------------------------------------------------------------
	    19    -323.37027351   -3.86e-08 *    2.00e-06 *    2.00e-06 o    2.68e-04 *    2.68e-04 o  ~
	----------------------------------------------------------------------------------------------

Next Geometry in Ang
	Fragment 1 (Ang)

	   Na  -0.0000000000   1.6732705922   0.0000000000
	   Na   0.0000000000  -1.6732705922   0.0000000000

    Final optimized geometry and variables:
    Molecular point group: d2h
    Full point group: D_inf_h

    Geometry (in Angstrom), charge = 0, multiplicity = 5:

    NA          -0.000000000000     1.673199606409     0.000000000000
    NA           0.000000000000    -1.673199606409     0.000000000000

    Psi4 stopped on: Wednesday, 16 July 2025 07:39PM
    Psi4 wall time for execution: 0:00:25.16

*** Psi4 exiting successfully. Buy a developer a beer!
