                               Psi4 1.9.1 release

  ==> Input File <==

--------------------------------------------------------------------------
molecule {
0 5
Al   0.00000        0.60000        0.00000
Al   0.00000       -0.60000        0.00000
}

set {
basis              cc-pvdz
reference          uks
maxiter            500
geom_maxiter       500
DAMPING_PERCENTAGE 1
guess              SAP
}

optimize('b3lyp')
--------------------------------------------------------------------------

    Molecular point group: d2h
  Charge       = 0
  Multiplicity = 5
  Basis Set: CC-PVDZ
    Blend: CC-PVDZ
  Basis Set: (CC-PVDZ AUX)
    Blend: CC-PVDZ-JKFIT
  @DF-UKS Final Energy:  -483.69717643595749
    Total Energy =                       -483.6971764359574877
 Dipole X            :          0.0000000            0.0000000            0.0000000
 Dipole Y            :          0.0000000            0.0000000            0.0000000
 Dipole Z            :          0.0000000            0.0000000            0.0000000
 Magnitude           :                                                    0.0000000
    Molecular point group: d2h
  Basis Set: CC-PVDZ
    Blend: CC-PVDZ
  Basis Set: (CC-PVDZ AUX)
    Blend: CC-PVDZ-JKFIT
  Basis Set: CC-PVDZ
    Blend: CC-PVDZ
  Basis Set: (CC-PVDZ AUX)
    Blend: CC-PVDZ-JKFIT
  @DF-UKS Final Energy:  -483.71011786647426
    Total Energy =                       -483.7101178664742633
  Basis Set: CC-PVDZ
    Blend: CC-PVDZ
  Basis Set: (CC-PVDZ AUX)
    Blend: CC-PVDZ-JKFIT
  Basis Set: CC-PVDZ
    Blend: CC-PVDZ
  @DF-UKS Final Energy:  -483.73519201781056
    Total Energy =                       -483.7351920178105615
  @DF-UKS Final Energy:  -483.82706568632238
    Total Energy =                       -483.8270656863223849
  @DF-UKS Final Energy:  -484.25180440154531
    Total Energy =                       -484.2518044015453142
  @DF-UKS Final Energy:  -484.51618301037814
    Total Energy =                       -484.5161830103781426
  @DF-UKS Final Energy:  -484.65882203807382
    Total Energy =                       -484.6588220380738221
  @DF-UKS Final Energy:  -484.71530040137390
    Total Energy =                       -484.7153004013738951
  @DF-UKS Final Energy:  -484.73603433156092
    Total Energy =                       -484.7360343315609157
  @DF-UKS Final Energy:  -484.74184245383151
    Total Energy =                       -484.7418424538315094
  @DF-UKS Final Energy:  -484.74270480262521
    Total Energy =                       -484.7427048026252123
  @DF-UKS Final Energy:  -484.74286305671410
    Total Energy =                       -484.7428630567140999
  Basis Set: (CC-PVDZ AUX)
    Blend: CC-PVDZ-JKFIT
  Basis Set: CC-PVDZ
    Blend: CC-PVDZ
  Basis Set: (CC-PVDZ AUX)
    Blend: CC-PVDZ-JKFIT
  @DF-UKS Final Energy:  -484.74287317938320
    Total Energy =                       -484.7428731793831957
  Basis Set: CC-PVDZ
    Blend: CC-PVDZ
  Basis Set: (CC-PVDZ AUX)
    Blend: CC-PVDZ-JKFIT
  Charge       = 0
  Multiplicity = 5
  Basis Set: CC-PVDZ
    Blend: CC-PVDZ
  Basis Set: (CC-PVDZ AUX)
    Blend: CC-PVDZ-JKFIT

    Orbital Energies [Eh]
    ---------------------

    Alpha Occupied:

       1B2u  -56.076707     1Ag   -56.076707     2Ag    -4.160085
       2B2u   -4.159971     1B1u   -2.713296     1B3u   -2.713296
       1B3g   -2.713137     1B1g   -2.713137     3Ag    -2.712769
       3B2u   -2.711113     4Ag    -0.417833     4B2u   -0.298159
       5Ag    -0.181470     2B3u   -0.176471     2B1u   -0.176471

    Alpha Virtual:

       2B1g   -0.054915     2B3g   -0.054915     5B2u    0.037026
       6Ag     0.110192     3B1u    0.160069     3B3u    0.160069
       7Ag     0.162395     6B2u    0.193672     8Ag     0.200736
       1B2g    0.200736     4B1u    0.227901     4B3u    0.227901
       3B1g    0.234520     3B3g    0.234520     7B2u    0.298835
       1Au     0.298836     8B2u    0.325049     9Ag     0.412276
       4B3g    0.450247     4B1g    0.450247     9B2u    0.685965

    Beta Occupied:

       1B2u  -56.070946     1Ag   -56.070945     2Ag    -4.151993
       2B2u   -4.151921     1B1u   -2.705308     1B3u   -2.705308
       1B3g   -2.705146     1B1g   -2.705146     3Ag    -2.703008
       3B2u   -2.701387     4Ag    -0.345643

    Beta Virtual:

       4B2u   -0.179299     2B3u   -0.086934     2B1u   -0.086934
       5Ag    -0.069950     2B1g   -0.001113     2B3g   -0.001113
       5B2u    0.070703     6Ag     0.142488     3B1u    0.195995
       3B3u    0.195995     7Ag     0.197649     6B2u    0.248479
       1B2g    0.253903     8Ag     0.253903     3B1g    0.263737
       3B3g    0.263737     4B3u    0.281828     4B1u    0.281828
       7B2u    0.347977     1Au     0.348940     8B2u    0.348941
       9Ag     0.464008     4B3g    0.504061     4B1g    0.504061
       9B2u    0.724701

    Final Occupation by Irrep:
             Ag   B1g   B2g   B3g    Au   B1u   B2u   B3u
    DOCC [     4,    1,    0,    1,    0,    1,    3,    1 ]
    SOCC [     1,    0,    0,    0,    0,    1,    1,    1 ]
    NA   [     5,    1,    0,    1,    0,    2,    4,    2 ]
    NB   [     4,    1,    0,    1,    0,    1,    3,    1 ]

  @DF-UKS Final Energy:  -484.74287385236943

   => Energetics <=

    Nuclear Repulsion Energy =             37.6417503187693185
    One-Electron Energy =                -748.3553727093087673
    Two-Electron Energy =                 255.9745053437397075
    DFT Exchange-Correlation Energy =     -30.0037568055697577
    Empirical Dispersion Energy =           0.0000000000000000
    VV10 Nonlocal Energy =                  0.0000000000000000
    Total Energy =                       -484.7428738523694847

  UHF NO Occupations:
  HONO-2 :    4B2u 1.0000000
  HONO-1 :    2B1u 1.0000000
  HONO-0 :    5 Ag 1.0000000
  LUNO+0 :    6 Ag 0.0001132
  LUNO+1 :    2B1g 0.0000005
  LUNO+2 :    2B3g 0.0000005
  LUNO+3 :    5B2u 0.0000003

Computation Completed

Properties will be evaluated at   0.000000,   0.000000,   0.000000 [a0]

Properties computed using the SCF density matrix

 Multipole Moments:

 ------------------------------------------------------------------------------------
     Multipole            Electronic (a.u.)      Nuclear  (a.u.)        Total (a.u.)
 ------------------------------------------------------------------------------------

 L = 1.  Multiply by 2.5417464519 to convert [e a0] to [Debye]
 Dipole X            :          0.0000000            0.0000000            0.0000000
 Dipole Y            :          0.0000000            0.0000000            0.0000000
 Dipole Z            :          0.0000000            0.0000000            0.0000000
 Magnitude           :                                                    0.0000000

 ------------------------------------------------------------------------------------

*** tstop() called on Joses-MacBook-Pro-2.local at Wed Jul 16 20:05:15 2025
Module time:
	user time   =      23.92 seconds =       0.40 minutes
	system time =       3.49 seconds =       0.06 minutes
	total time  =          3 seconds =       0.05 minutes
Total time:
	user time   =     165.91 seconds =       2.77 minutes
	system time =      48.58 seconds =       0.81 minutes
	total time  =         21 seconds =       0.35 minutes

*** tstart() called on Joses-MacBook-Pro-2.local
*** at Wed Jul 16 20:05:15 2025

         ------------------------------------------------------------
                                   SCF GRAD
                          Rob Parrish, Justin Turney,
                       Andy Simmonett, and Alex Sokolov
         ------------------------------------------------------------

  ==> Geometry <==

    Molecular point group: d2h
    Full point group: D_inf_h

    Geometry (in Angstrom), charge = 0, multiplicity = 5:

       Center              X                  Y                   Z               Mass
    ------------   -----------------  -----------------  -----------------  -----------------
         AL          -0.000000000000     1.187922291683     0.000000000000    26.981538530000
         AL           0.000000000000    -1.187922291683     0.000000000000    26.981538530000

  Nuclear repulsion =   37.641750318769319

  ==> Basis Set <==

  Basis Set: CC-PVDZ
    Blend: CC-PVDZ
    Number of shells: 16
    Number of basis functions: 36
    Number of Cartesian functions: 38
    Spherical Harmonics?: true
    Max angular momentum: 2

  ==> DFJKGrad: Density-Fitted SCF Gradients <==

    Gradient:                    1
    J tasked:                  Yes
    K tasked:                  Yes
    wK tasked:                  No
    OpenMP threads:              1
    Integrals threads:           1
    Memory [MiB]:              375
    Schwarz Cutoff:          1E-12
    Fitting Condition:       1E-10

   => Auxiliary Basis Set <=

  Basis Set: (CC-PVDZ AUX)
    Blend: CC-PVDZ-JKFIT
    Number of shells: 72
    Number of basis functions: 224
    Number of Cartesian functions: 260
    Spherical Harmonics?: true
    Max angular momentum: 3

  ==> DFT Potential <==

   => LibXC <=

    Version 6.2.2
    S. Lehtola, C. Steigemann, M. J.T. Oliveira, and M. A.L. Marques.,  SoftwareX 7, 1â€“5 (2018) (10.1016/j.softx.2017.11.002)

   => Composite Functional: B3LYP <=

    B3LYP Hyb-GGA Exchange-Correlation Functional

    P. J. Stephens, F. J. Devlin, C. F. Chabalowski, and M. J. Frisch.,  J. Phys. Chem. 98, 11623 (1994) (10.1021/j100096a001)

    Deriv               =              1
    GGA                 =           TRUE
    Meta                =          FALSE

    Exchange Hybrid     =           TRUE
    MP2 Hybrid          =          FALSE

   => Exchange Functionals <=

    0.0800   Slater exchange
    0.7200         Becke 88

   => Exact (HF) Exchange <=

    0.2000               HF

   => Correlation Functionals <=

    0.1900   Vosko, Wilk & Nusair (VWN5_RPA)
    0.8100   Lee, Yang & Parr

   => LibXC Density Thresholds  <==

    XC_HYB_GGA_XC_B3LYP:  1.00E-15

   => Molecular Quadrature <=

    Radial Scheme          =       TREUTLER
    Pruning Scheme         =           NONE
    Nuclear Scheme         =       TREUTLER

    Blocking Scheme        =         OCTREE
    BS radius alpha        =              1
    Pruning alpha          =              1
    Radial Points          =             75
    Spherical Points       =            302
    Total Points           =          42342
    Total Blocks           =            400
    Max Points             =            249
    Max Functions          =             36
    Weights Tolerance      =       1.00E-15

  -Total Gradient:
     Atom            X                  Y                   Z
    ------   -----------------  -----------------  -----------------
       1        0.000000000000    -0.000099333723    -0.000000000000
       2       -0.000000000000     0.000099333723     0.000000000000

*** tstop() called on Joses-MacBook-Pro-2.local at Wed Jul 16 20:05:16 2025
Module time:
	user time   =       4.41 seconds =       0.07 minutes
	system time =       1.98 seconds =       0.03 minutes
	total time  =          1 seconds =       0.02 minutes
Total time:
	user time   =     170.33 seconds =       2.84 minutes
	system time =      50.57 seconds =       0.84 minutes
	total time  =         22 seconds =       0.37 minutes

    			-----------------------------------------

    			 OPTKING 3.0: for geometry optimizations

    			     By R.A. King, Bethel University

    			        with contributions from

    			    A.V. Copan, J. Cayton, A. Heide

    			-----------------------------------------

	                            ===> Fragment 1 <==

	 Z (Atomic Numbers)          Masses                          Geom
	      13.000000            26.981539         -0.00000000  2.24484779  0.00000000
	      13.000000            26.981539          0.00000000 -2.24484779  0.00000000

	 - Coordinate -           - BOHR/RAD -       - ANG/DEG -
	 R(1,2)           =         4.489696           2.375845

	        --- Internal Coordinate Step in ANG or DEG, aJ/ANG or AJ/DEG ---
	-------------------------------------------------------------------------------
	           Coordinate      Previous         Force          Change          New
	           ----------      --------        ------          ------        ------
	               R(1,2)       2.37584        0.00082        0.00045       2.37630
	-------------------------------------------------------------------------------

	                                 ==> Convergence Check <==

	Measures of convergence in internal coordinates in au.

	Criteria marked as inactive (o), active & met (*), and active & unmet ( ).

	----------------------------------------------------------------------------------------------
	   Step    Total Energy     Delta E     Max Force     RMS Force      Max Disp      RMS Disp
	----------------------------------------------------------------------------------------------
	  Convergence Criteria     1.00e-06 *    3.00e-04 *             o    1.20e-03 *             o
	----------------------------------------------------------------------------------------------
	    14    -484.74287385   -6.73e-07 *    9.93e-05 *    9.93e-05 o    8.60e-04 *    8.60e-04 o  ~
	----------------------------------------------------------------------------------------------

Next Geometry in Ang
	Fragment 1 (Ang)

	   Al  -0.0000000000   1.1881497308   0.0000000000
	   Al   0.0000000000  -1.1881497308   0.0000000000

    Final optimized geometry and variables:
    Molecular point group: d2h
    Full point group: D_inf_h

    Geometry (in Angstrom), charge = 0, multiplicity = 5:

    AL          -0.000000000000     1.187922291683     0.000000000000
    AL           0.000000000000    -1.187922291683     0.000000000000

    Psi4 stopped on: Wednesday, 16 July 2025 08:05PM
    Psi4 wall time for execution: 0:00:22.43

*** Psi4 exiting successfully. Buy a developer a beer!
