                               Psi4 1.9.1 release

  ==> Input File <==

--------------------------------------------------------------------------
molecule {
0 5
Li   0.00000        0.60000        0.00000
B   0.00000       -0.60000        0.00000
}

set {
basis              cc-pvdz
reference          uks
maxiter            500
geom_maxiter       500
DAMPING_PERCENTAGE 1
guess              SAP
}

optimize('b3lyp')
--------------------------------------------------------------------------

    Molecular point group: c2v
  Charge       = 0
  Multiplicity = 5
  Basis Set: CC-PVDZ
    Blend: CC-PVDZ
  Basis Set: (CC-PVDZ AUX)
    Blend: CC-PVDZ-JKFIT + DEF2-UNIVERSAL-JKFIT
  @DF-UKS Final Energy:   -31.86714851427719
    Total Energy =                        -31.8671485142771935
 Dipole X            :          0.0000000            0.0000000            0.0000000
 Dipole Y            :          0.0000000            0.0000000            0.0000000
 Dipole Z            :          1.7742793           -0.2581643            1.5161150
 Magnitude           :                                                    1.5161150
    Molecular point group: c2v
  Basis Set: CC-PVDZ
    Blend: CC-PVDZ
  Basis Set: (CC-PVDZ AUX)
    Blend: CC-PVDZ-JKFIT + DEF2-UNIVERSAL-JKFIT
  Basis Set: CC-PVDZ
    Blend: CC-PVDZ
  Basis Set: (CC-PVDZ AUX)
    Blend: CC-PVDZ-JKFIT + DEF2-UNIVERSAL-JKFIT
  @DF-UKS Final Energy:   -31.97365821150023
    Total Energy =                        -31.9736582115002257
  Basis Set: CC-PVDZ
    Blend: CC-PVDZ
  Basis Set: (CC-PVDZ AUX)
    Blend: CC-PVDZ-JKFIT + DEF2-UNIVERSAL-JKFIT
  Basis Set: CC-PVDZ
    Blend: CC-PVDZ
  @DF-UKS Final Energy:   -32.03311191320032
    Total Energy =                        -32.0331119132003153
  @DF-UKS Final Energy:   -32.05835833866938
    Total Energy =                        -32.0583583386693789
  @DF-UKS Final Energy:   -32.06877765796369
    Total Energy =                        -32.0687776579636861
  @DF-UKS Final Energy:   -32.07212812085989
    Total Energy =                        -32.0721281208598867
  @DF-UKS Final Energy:   -32.07273594267792
    Total Energy =                        -32.0727359426779159
  @DF-UKS Final Energy:   -32.07287512867777
    Total Energy =                        -32.0728751286777722
  @DF-UKS Final Energy:   -32.07288726797150
    Total Energy =                        -32.0728872679715025
  Basis Set: (CC-PVDZ AUX)
    Blend: CC-PVDZ-JKFIT + DEF2-UNIVERSAL-JKFIT
  Basis Set: CC-PVDZ
    Blend: CC-PVDZ
  Basis Set: (CC-PVDZ AUX)
    Blend: CC-PVDZ-JKFIT + DEF2-UNIVERSAL-JKFIT
  @DF-UKS Final Energy:   -32.07288835216883
    Total Energy =                        -32.0728883521688317
  Basis Set: CC-PVDZ
    Blend: CC-PVDZ
  Basis Set: (CC-PVDZ AUX)
    Blend: CC-PVDZ-JKFIT + DEF2-UNIVERSAL-JKFIT
  Charge       = 0
  Multiplicity = 5
  Basis Set: CC-PVDZ
    Blend: CC-PVDZ
  Basis Set: (CC-PVDZ AUX)
    Blend: CC-PVDZ-JKFIT + DEF2-UNIVERSAL-JKFIT

    Orbital Energies [Eh]
    ---------------------

    Alpha Occupied:

       1A1    -6.783117     2A1    -2.055371     3A1    -0.406676
       4A1    -0.179114     1B2    -0.160036     1B1    -0.160036

    Alpha Virtual:

       5A1    -0.065428     2B2    -0.001746     2B1    -0.001746
       6A1     0.028556     3B2     0.072182     3B1     0.072182
       7A1     0.075034     8A1     0.186423     9A1     0.214837
       1A2     0.214837     4B2     0.276427     4B1     0.276427
       5B2     0.345153     5B1     0.345153    10A1     0.367442
      11A1     0.512913    12A1     0.590356     2A2     0.733832
      13A1     0.733833     6B1     0.853851     6B2     0.853851
      14A1     1.210268

    Beta Occupied:

       1A1    -6.743223     2A1    -2.050189

    Beta Virtual:

       3A1    -0.149416     4A1    -0.060689     1B1    -0.013330
       1B2    -0.013330     5A1     0.034356     6A1     0.051770
       2B1     0.069239     2B2     0.069239     7A1     0.084465
       3B1     0.101520     3B2     0.101520     8A1     0.238178
       1A2     0.250841     9A1     0.250856     4B1     0.319426
       4B2     0.319426     5B1     0.438369     5B2     0.438369
      10A1     0.450523    11A1     0.583360    12A1     0.719236
      13A1     0.900441     2A2     0.900556     6B1     1.011701
       6B2     1.011701    14A1     1.303364

    Final Occupation by Irrep:
             A1    A2    B1    B2
    DOCC [     2,    0,    0,    0 ]
    SOCC [     2,    0,    1,    1 ]
    NA   [     4,    0,    1,    1 ]
    NB   [     2,    0,    0,    0 ]

  @DF-UKS Final Energy:   -32.07288844794148

   => Energetics <=

    Nuclear Repulsion Energy =              3.7865683430704533
    One-Electron Energy =                 -49.7677276814624889
    Two-Electron Energy =                  18.6451143249316651
    DFT Exchange-Correlation Energy =      -4.7368434344811101
    Empirical Dispersion Energy =           0.0000000000000000
    VV10 Nonlocal Energy =                  0.0000000000000000
    Total Energy =                        -32.0728884479414802

  UHF NO Occupations:
  HONO-2 :    1 B2 1.0000000
  HONO-1 :    1 B1 1.0000000
  HONO-0 :    4 A1 1.0000000
  LUNO+0 :    5 A1 0.0000011
  LUNO+1 :    6 A1 0.0000005
  LUNO+2 :    7 A1 0.0000000
  LUNO+3 :    8 A1 0.0000000

Computation Completed

Properties will be evaluated at   0.000000,   0.000000,   0.000000 [a0]

Properties computed using the SCF density matrix

 Multipole Moments:

 ------------------------------------------------------------------------------------
     Multipole            Electronic (a.u.)      Nuclear  (a.u.)        Total (a.u.)
 ------------------------------------------------------------------------------------

 L = 1.  Multiply by 2.5417464519 to convert [e a0] to [Debye]
 Dipole X            :          0.0000000            0.0000000            0.0000000
 Dipole Y            :          0.0000000            0.0000000            0.0000000
 Dipole Z            :          2.7543263           -0.4509844            2.3033419
 Magnitude           :                                                    2.3033419

 ------------------------------------------------------------------------------------

*** tstop() called on Joses-MacBook-Pro-2.local at Wed Jul 16 18:29:12 2025
Module time:
	user time   =       3.32 seconds =       0.06 minutes
	system time =       2.60 seconds =       0.04 minutes
	total time  =          1 seconds =       0.02 minutes
Total time:
	user time   =      46.84 seconds =       0.78 minutes
	system time =      45.65 seconds =       0.76 minutes
	total time  =          9 seconds =       0.15 minutes

*** tstart() called on Joses-MacBook-Pro-2.local
*** at Wed Jul 16 18:29:12 2025

         ------------------------------------------------------------
                                   SCF GRAD
                          Rob Parrish, Justin Turney,
                       Andy Simmonett, and Alex Sokolov
         ------------------------------------------------------------

  ==> Geometry <==

    Molecular point group: c2v
    Full point group: C_inf_v

    Geometry (in Angstrom), charge = 0, multiplicity = 5:

       Center              X                  Y                   Z               Mass
    ------------   -----------------  -----------------  -----------------  -----------------
         LI           0.000000000000     0.000000000000     1.280335526371     7.016003436600
         B            0.000000000000     0.000000000000    -0.815931447016    11.009305360000

  Nuclear repulsion =    3.786568343070453

  ==> Basis Set <==

  Basis Set: CC-PVDZ
    Blend: CC-PVDZ
    Number of shells: 12
    Number of basis functions: 28
    Number of Cartesian functions: 30
    Spherical Harmonics?: true
    Max angular momentum: 2

  ==> DFJKGrad: Density-Fitted SCF Gradients <==

    Gradient:                    1
    J tasked:                  Yes
    K tasked:                  Yes
    wK tasked:                  No
    OpenMP threads:              1
    Integrals threads:           1
    Memory [MiB]:              375
    Schwarz Cutoff:          1E-12
    Fitting Condition:       1E-10

   => Auxiliary Basis Set <=

  Basis Set: (CC-PVDZ AUX)
    Blend: CC-PVDZ-JKFIT + DEF2-UNIVERSAL-JKFIT
    Number of shells: 41
    Number of basis functions: 121
    Number of Cartesian functions: 141
    Spherical Harmonics?: true
    Max angular momentum: 3

  ==> DFT Potential <==

   => LibXC <=

    Version 6.2.2
    S. Lehtola, C. Steigemann, M. J.T. Oliveira, and M. A.L. Marques.,  SoftwareX 7, 1â€“5 (2018) (10.1016/j.softx.2017.11.002)

   => Composite Functional: B3LYP <=

    B3LYP Hyb-GGA Exchange-Correlation Functional

    P. J. Stephens, F. J. Devlin, C. F. Chabalowski, and M. J. Frisch.,  J. Phys. Chem. 98, 11623 (1994) (10.1021/j100096a001)

    Deriv               =              1
    GGA                 =           TRUE
    Meta                =          FALSE

    Exchange Hybrid     =           TRUE
    MP2 Hybrid          =          FALSE

   => Exchange Functionals <=

    0.0800   Slater exchange
    0.7200         Becke 88

   => Exact (HF) Exchange <=

    0.2000               HF

   => Correlation Functionals <=

    0.1900   Vosko, Wilk & Nusair (VWN5_RPA)
    0.8100   Lee, Yang & Parr

   => LibXC Density Thresholds  <==

    XC_HYB_GGA_XC_B3LYP:  1.00E-15

   => Molecular Quadrature <=

    Radial Scheme          =       TREUTLER
    Pruning Scheme         =           NONE
    Nuclear Scheme         =       TREUTLER

    Blocking Scheme        =         OCTREE
    BS radius alpha        =              1
    Pruning alpha          =              1
    Radial Points          =             75
    Spherical Points       =            302
    Total Points           =          44332
    Total Blocks           =            434
    Max Points             =            254
    Max Functions          =             28
    Weights Tolerance      =       1.00E-15

  -Total Gradient:
     Atom            X                  Y                   Z
    ------   -----------------  -----------------  -----------------
       1        0.000000000000     0.000000000000    -0.000008259552
       2        0.000000000000    -0.000000000000     0.000022097997

*** tstop() called on Joses-MacBook-Pro-2.local at Wed Jul 16 18:29:12 2025
Module time:
	user time   =       1.02 seconds =       0.02 minutes
	system time =       1.22 seconds =       0.02 minutes
	total time  =          0 seconds =       0.00 minutes
Total time:
	user time   =      47.87 seconds =       0.80 minutes
	system time =      46.87 seconds =       0.78 minutes
	total time  =          9 seconds =       0.15 minutes

    			-----------------------------------------

    			 OPTKING 3.0: for geometry optimizations

    			     By R.A. King, Bethel University

    			        with contributions from

    			    A.V. Copan, J. Cayton, A. Heide

    			-----------------------------------------

	                            ===> Fragment 1 <==

	 Z (Atomic Numbers)          Masses                          Geom
	       3.000000             7.016003          0.00000000  0.00000000  2.41948349
	       5.000000            11.009305          0.00000000  0.00000000 -1.54188697

	 - Coordinate -           - BOHR/RAD -       - ANG/DEG -
	 R(1,2)           =         3.961370           2.096267

	        --- Internal Coordinate Step in ANG or DEG, aJ/ANG or AJ/DEG ---
	-------------------------------------------------------------------------------
	           Coordinate      Previous         Force          Change          New
	           ----------      --------        ------          ------        ------
	               R(1,2)       2.09627        0.00013        0.00018       2.09644
	-------------------------------------------------------------------------------

	                                 ==> Convergence Check <==

	Measures of convergence in internal coordinates in au.

	Criteria marked as inactive (o), active & met (*), and active & unmet ( ).

	----------------------------------------------------------------------------------------------
	   Step    Total Energy     Delta E     Max Force     RMS Force      Max Disp      RMS Disp
	----------------------------------------------------------------------------------------------
	  Convergence Criteria     1.00e-06 *    3.00e-04 *             o    1.20e-03 *             o
	----------------------------------------------------------------------------------------------
	    11     -32.07288845   -9.58e-08 *    1.52e-05 *    1.52e-05 o    3.33e-04 *    3.33e-04 o  ~
	----------------------------------------------------------------------------------------------

Next Geometry in Ang
	Fragment 1 (Ang)

	   Li   0.0000000000   0.0000000000   1.2804235524
	    B   0.0000000000   0.0000000000  -0.8160194730

    Final optimized geometry and variables:
    Molecular point group: c2v
    Full point group: C_inf_v

    Geometry (in Angstrom), charge = 0, multiplicity = 5:

    LI           0.000000000000     0.000000000000     1.280335526371
    B            0.000000000000     0.000000000000    -0.815931447016

    Psi4 stopped on: Wednesday, 16 July 2025 06:29PM
    Psi4 wall time for execution: 0:00:09.87

*** Psi4 exiting successfully. Buy a developer a beer!
