                               Psi4 1.9.1 release

  ==> Input File <==

--------------------------------------------------------------------------
molecule {
0 5
He   0.00000        0.60000        0.00000
Si   0.00000       -0.60000        0.00000
}

set {
basis              cc-pvdz
reference          uks
maxiter            500
geom_maxiter       500
DAMPING_PERCENTAGE 1
guess              SAP
}

optimize('b3lyp')
--------------------------------------------------------------------------

    Molecular point group: c2v
  Charge       = 0
  Multiplicity = 5
  Basis Set: CC-PVDZ
    Blend: CC-PVDZ
  Basis Set: (CC-PVDZ AUX)
    Blend: CC-PVDZ-JKFIT + DEF2-UNIVERSAL-JKFIT
  @DF-UKS Final Energy:  -291.89558797924877
    Total Energy =                       -291.8955879792487167
 Dipole X            :          0.0000000            0.0000000            0.0000000
 Dipole Y            :          0.0000000            0.0000000            0.0000000
 Dipole Z            :          0.5955245           -0.0058566            0.5896679
 Magnitude           :                                                    0.5896679
    Molecular point group: c2v
  Basis Set: CC-PVDZ
    Blend: CC-PVDZ
  Basis Set: (CC-PVDZ AUX)
    Blend: CC-PVDZ-JKFIT + DEF2-UNIVERSAL-JKFIT
  Basis Set: CC-PVDZ
    Blend: CC-PVDZ
  Basis Set: (CC-PVDZ AUX)
    Blend: CC-PVDZ-JKFIT + DEF2-UNIVERSAL-JKFIT
  @DF-UKS Final Energy:  -292.00978547488103
    Total Energy =                       -292.0097854748809709
  Basis Set: CC-PVDZ
    Blend: CC-PVDZ
  Basis Set: (CC-PVDZ AUX)
    Blend: CC-PVDZ-JKFIT + DEF2-UNIVERSAL-JKFIT
  Basis Set: CC-PVDZ
    Blend: CC-PVDZ
  @DF-UKS Final Energy:  -292.05884666475981
    Total Energy =                       -292.0588466647598125
  @DF-UKS Final Energy:  -292.09258044225788
    Total Energy =                       -292.0925804422578835
  @DF-UKS Final Energy:  -292.11005889484466
    Total Energy =                       -292.1100588948446557
  @DF-UKS Final Energy:  -292.11966428142739
    Total Energy =                       -292.1196642814273901
  @DF-UKS Final Energy:  -292.12477289113781
    Total Energy =                       -292.1247728911377521
  @DF-UKS Final Energy:  -292.12739573106796
    Total Energy =                       -292.1273957310679066
  @DF-UKS Final Energy:  -292.12868604434078
    Total Energy =                       -292.1286860443407818
  @DF-UKS Final Energy:  -292.12929863123861
    Total Energy =                       -292.1292986312386120
  @DF-UKS Final Energy:  -292.12958140594679
    Total Energy =                       -292.1295814059467943
  @DF-UKS Final Energy:  -292.12970786625920
    Total Energy =                       -292.1297078662591957
  @DF-UKS Final Energy:  -292.12976149913629
    Total Energy =                       -292.1297614991362934
  @DF-UKS Final Energy:  -292.12978258673473
    Total Energy =                       -292.1297825867347342
  @DF-UKS Final Energy:  -292.12978808985565
    Total Energy =                       -292.1297880898555945
  Basis Set: (CC-PVDZ AUX)
    Blend: CC-PVDZ-JKFIT + DEF2-UNIVERSAL-JKFIT
  Basis Set: CC-PVDZ
    Blend: CC-PVDZ
  Basis Set: (CC-PVDZ AUX)
    Blend: CC-PVDZ-JKFIT + DEF2-UNIVERSAL-JKFIT
  @DF-UKS Final Energy:  -292.12979099193524
    Total Energy =                       -292.1297909919352378
  Basis Set: CC-PVDZ
    Blend: CC-PVDZ
  Basis Set: (CC-PVDZ AUX)
    Blend: CC-PVDZ-JKFIT + DEF2-UNIVERSAL-JKFIT
  Charge       = 0
  Multiplicity = 5
  Basis Set: CC-PVDZ
    Blend: CC-PVDZ
  Basis Set: (CC-PVDZ AUX)
    Blend: CC-PVDZ-JKFIT + DEF2-UNIVERSAL-JKFIT

    Orbital Energies [Eh]
    ---------------------

    Alpha Occupied:

       1A1   -66.209002     2A1    -5.353152     1B2    -3.713050
       1B1    -3.713050     3A1    -3.713046     4A1    -0.650608
       5A1    -0.506652     2B1    -0.224418     2B2    -0.224418
       6A1    -0.224294

    Alpha Virtual:

       7A1     0.218352     3B1     0.278422     3B2     0.278422
       8A1     0.278918     9A1     0.303992    10A1     0.304034
       1A2     0.304034     4B1     0.304037     4B2     0.304037
      11A1     1.127434     5B1     2.188661     5B2     2.188661
      12A1     2.190097

    Beta Occupied:

       1A1   -66.192915     2A1    -5.332127     1B2    -3.690491
       1B1    -3.690491     3A1    -3.690469     4A1    -0.650506

    Beta Virtual:

       5A1    -0.277856     6A1    -0.038051     2B1    -0.036916
       2B2    -0.036916     7A1     0.293991     8A1     0.352910
       3B1     0.356281     3B2     0.356281     4B2     0.447095
       4B1     0.447095     9A1     0.447470     1A2     0.447472
      10A1     0.448023    11A1     1.127775     5B2     2.188739
       5B1     2.188739    12A1     2.190233

    Final Occupation by Irrep:
             A1    A2    B1    B2
    DOCC [     4,    0,    1,    1 ]
    SOCC [     2,    0,    1,    1 ]
    NA   [     6,    0,    2,    2 ]
    NB   [     4,    0,    1,    1 ]

  @DF-UKS Final Energy:  -292.12979178957357

   => Energetics <=

    Nuclear Repulsion Energy =              3.7123522903976158
    One-Electron Energy =                -411.3148933897372785
    Two-Electron Energy =                 133.1390553631418641
    DFT Exchange-Correlation Energy =     -17.6663060533758340
    Empirical Dispersion Energy =           0.0000000000000000
    VV10 Nonlocal Energy =                  0.0000000000000000
    Total Energy =                       -292.1297917895735736

  UHF NO Occupations:
  HONO-2 :    5 A1 1.0000000
  HONO-1 :    2 B1 1.0000000
  HONO-0 :    6 A1 1.0000000
  LUNO+0 :    7 A1 0.0000002
  LUNO+1 :    3 B1 0.0000002
  LUNO+2 :    3 B2 0.0000002
  LUNO+3 :    8 A1 0.0000001

Computation Completed

Properties will be evaluated at   0.000000,   0.000000,   0.000000 [a0]

Properties computed using the SCF density matrix

 Multipole Moments:

 ------------------------------------------------------------------------------------
     Multipole            Electronic (a.u.)      Nuclear  (a.u.)        Total (a.u.)
 ------------------------------------------------------------------------------------

 L = 1.  Multiply by 2.5417464519 to convert [e a0] to [Debye]
 Dipole X            :          0.0000000            0.0000000            0.0000000
 Dipole Y            :          0.0000000            0.0000000            0.0000000
 Dipole Z            :          0.0252822           -0.0194795            0.0058028
 Magnitude           :                                                    0.0058028

 ------------------------------------------------------------------------------------

*** tstop() called on Joses-MacBook-Pro-2.local at Wed Jul 16 18:24:42 2025
Module time:
	user time   =       3.11 seconds =       0.05 minutes
	system time =       2.97 seconds =       0.05 minutes
	total time  =          1 seconds =       0.02 minutes
Total time:
	user time   =     112.82 seconds =       1.88 minutes
	system time =      56.23 seconds =       0.94 minutes
	total time  =         18 seconds =       0.30 minutes

*** tstart() called on Joses-MacBook-Pro-2.local
*** at Wed Jul 16 18:24:42 2025

         ------------------------------------------------------------
                                   SCF GRAD
                          Rob Parrish, Justin Turney,
                       Andy Simmonett, and Alex Sokolov
         ------------------------------------------------------------

  ==> Geometry <==

    Molecular point group: c2v
    Full point group: C_inf_v

    Geometry (in Angstrom), charge = 0, multiplicity = 5:

       Center              X                  Y                   Z               Mass
    ------------   -----------------  -----------------  -----------------  -----------------
         HE           0.000000000000     0.000000000000     3.491707936685     4.002603254130
         SI           0.000000000000     0.000000000000    -0.499551712106    27.976926534650

  Nuclear repulsion =    3.712352290397616

  ==> Basis Set <==

  Basis Set: CC-PVDZ
    Blend: CC-PVDZ
    Number of shells: 11
    Number of basis functions: 23
    Number of Cartesian functions: 24
    Spherical Harmonics?: true
    Max angular momentum: 2

  ==> DFJKGrad: Density-Fitted SCF Gradients <==

    Gradient:                    1
    J tasked:                  Yes
    K tasked:                  Yes
    wK tasked:                  No
    OpenMP threads:              1
    Integrals threads:           1
    Memory [MiB]:              375
    Schwarz Cutoff:          1E-12
    Fitting Condition:       1E-10

   => Auxiliary Basis Set <=

  Basis Set: (CC-PVDZ AUX)
    Blend: CC-PVDZ-JKFIT + DEF2-UNIVERSAL-JKFIT
    Number of shells: 45
    Number of basis functions: 135
    Number of Cartesian functions: 155
    Spherical Harmonics?: true
    Max angular momentum: 3

  ==> DFT Potential <==

   => LibXC <=

    Version 6.2.2
    S. Lehtola, C. Steigemann, M. J.T. Oliveira, and M. A.L. Marques.,  SoftwareX 7, 1â€“5 (2018) (10.1016/j.softx.2017.11.002)

   => Composite Functional: B3LYP <=

    B3LYP Hyb-GGA Exchange-Correlation Functional

    P. J. Stephens, F. J. Devlin, C. F. Chabalowski, and M. J. Frisch.,  J. Phys. Chem. 98, 11623 (1994) (10.1021/j100096a001)

    Deriv               =              1
    GGA                 =           TRUE
    Meta                =          FALSE

    Exchange Hybrid     =           TRUE
    MP2 Hybrid          =          FALSE

   => Exchange Functionals <=

    0.0800   Slater exchange
    0.7200         Becke 88

   => Exact (HF) Exchange <=

    0.2000               HF

   => Correlation Functionals <=

    0.1900   Vosko, Wilk & Nusair (VWN5_RPA)
    0.8100   Lee, Yang & Parr

   => LibXC Density Thresholds  <==

    XC_HYB_GGA_XC_B3LYP:  1.00E-15

   => Molecular Quadrature <=

    Radial Scheme          =       TREUTLER
    Pruning Scheme         =           NONE
    Nuclear Scheme         =       TREUTLER

    Blocking Scheme        =         OCTREE
    BS radius alpha        =              1
    Pruning alpha          =              1
    Radial Points          =             75
    Spherical Points       =            302
    Total Points           =          43084
    Total Blocks           =            414
    Max Points             =            256
    Max Functions          =             23
    Weights Tolerance      =       1.00E-15

  -Total Gradient:
     Atom            X                  Y                   Z
    ------   -----------------  -----------------  -----------------
       1        0.000000000000     0.000000000000    -0.000005247375
       2        0.000000000000    -0.000000000000     0.000010646485

*** tstop() called on Joses-MacBook-Pro-2.local at Wed Jul 16 18:24:42 2025
Module time:
	user time   =       1.28 seconds =       0.02 minutes
	system time =       1.07 seconds =       0.02 minutes
	total time  =          0 seconds =       0.00 minutes
Total time:
	user time   =     114.10 seconds =       1.90 minutes
	system time =      57.30 seconds =       0.95 minutes
	total time  =         18 seconds =       0.30 minutes

    			-----------------------------------------

    			 OPTKING 3.0: for geometry optimizations

    			     By R.A. King, Bethel University

    			        with contributions from

    			    A.V. Copan, J. Cayton, A. Heide

    			-----------------------------------------

	                            ===> Fragment 1 <==

	 Z (Atomic Numbers)          Masses                          Geom
	       2.000000             4.002603          0.00000000  0.00000000  6.59837171
	      14.000000            27.976927          0.00000000  0.00000000 -0.94401592

	 - Coordinate -           - BOHR/RAD -       - ANG/DEG -
	 R(1,2)           =         7.542388           3.991260

	        --- Internal Coordinate Step in ANG or DEG, aJ/ANG or AJ/DEG ---
	-------------------------------------------------------------------------------
	           Coordinate      Previous         Force          Change          New
	           ----------      --------        ------          ------        ------
	               R(1,2)       3.99126        0.00007        0.02517       4.01643
	-------------------------------------------------------------------------------

	                                 ==> Convergence Check <==

	Measures of convergence in internal coordinates in au.

	Criteria marked as inactive (o), active & met (*), and active & unmet ( ).

	----------------------------------------------------------------------------------------------
	   Step    Total Energy     Delta E     Max Force     RMS Force      Max Disp      RMS Disp
	----------------------------------------------------------------------------------------------
	  Convergence Criteria     1.00e-06 *    3.00e-04 *             o    1.20e-03 *             o
	----------------------------------------------------------------------------------------------
	    17    -292.12979179   -7.98e-07 *    7.95e-06 *    7.95e-06 o    4.76e-02      4.76e-02 o  ~
	----------------------------------------------------------------------------------------------

Next Geometry in Ang
	Fragment 1 (Ang)

	   He   0.0000000000   0.0000000000   3.5042954234
	   Si   0.0000000000   0.0000000000  -0.5121391988

    Final optimized geometry and variables:
    Molecular point group: c2v
    Full point group: C_inf_v

    Geometry (in Angstrom), charge = 0, multiplicity = 5:

    HE           0.000000000000     0.000000000000     3.491707936685
    SI           0.000000000000     0.000000000000    -0.499551712106

    Psi4 stopped on: Wednesday, 16 July 2025 06:24PM
    Psi4 wall time for execution: 0:00:18.77

*** Psi4 exiting successfully. Buy a developer a beer!
