                               Psi4 1.9.1 release

  ==> Input File <==

--------------------------------------------------------------------------
molecule {
0 5
Be   0.00000        0.60000        0.00000
Mg   0.00000       -0.60000        0.00000
}

set {
basis              cc-pvdz
reference          uks
maxiter            500
geom_maxiter       500
DAMPING_PERCENTAGE 1
guess              SAP
}

optimize('b3lyp')
--------------------------------------------------------------------------

    Molecular point group: c2v
  Charge       = 0
  Multiplicity = 5
  Basis Set: CC-PVDZ
    Blend: CC-PVDZ
  Basis Set: (CC-PVDZ AUX)
    Blend: DEF2-UNIVERSAL-JKFIT
  @DF-UKS Final Energy:  -214.22083848951604
    Total Energy =                       -214.2208384895160407
 Dipole X            :          0.0000000            0.0000000            0.0000000
 Dipole Y            :          0.0000000            0.0000000            0.0000000
 Dipole Z            :          0.4212663           -0.8388361           -0.4175699
 Magnitude           :                                                    0.4175699
    Molecular point group: c2v
  Basis Set: CC-PVDZ
    Blend: CC-PVDZ
  Basis Set: (CC-PVDZ AUX)
    Blend: DEF2-UNIVERSAL-JKFIT
  Basis Set: CC-PVDZ
    Blend: CC-PVDZ
  Basis Set: (CC-PVDZ AUX)
    Blend: DEF2-UNIVERSAL-JKFIT
  @DF-UKS Final Energy:  -214.29973534724053
    Total Energy =                       -214.2997353472405280
  Basis Set: CC-PVDZ
    Blend: CC-PVDZ
  Basis Set: (CC-PVDZ AUX)
    Blend: DEF2-UNIVERSAL-JKFIT
  Basis Set: CC-PVDZ
    Blend: CC-PVDZ
  @DF-UKS Final Energy:  -214.39275202377709
    Total Energy =                       -214.3927520237770921
  @DF-UKS Final Energy:  -214.50502854016619
    Total Energy =                       -214.5050285401661938
  @DF-UKS Final Energy:  -214.56622093579924
    Total Energy =                       -214.5662209357992367
  @DF-UKS Final Energy:  -214.59234271458439
    Total Energy =                       -214.5923427145843903
  @DF-UKS Final Energy:  -214.60246851416744
    Total Energy =                       -214.6024685141674411
  @DF-UKS Final Energy:  -214.60562395189700
    Total Energy =                       -214.6056239518970017
  @DF-UKS Final Energy:  -214.60624615511705
    Total Energy =                       -214.6062461551170486
  @DF-UKS Final Energy:  -214.60629623371321
    Total Energy =                       -214.6062962337132092
  Basis Set: (CC-PVDZ AUX)
    Blend: DEF2-UNIVERSAL-JKFIT
  Basis Set: CC-PVDZ
    Blend: CC-PVDZ
  Basis Set: (CC-PVDZ AUX)
    Blend: DEF2-UNIVERSAL-JKFIT
  @DF-UKS Final Energy:  -214.60630050510224
    Total Energy =                       -214.6063005051022401
  Basis Set: CC-PVDZ
    Blend: CC-PVDZ
  Basis Set: (CC-PVDZ AUX)
    Blend: DEF2-UNIVERSAL-JKFIT
  Charge       = 0
  Multiplicity = 5
  Basis Set: CC-PVDZ
    Blend: CC-PVDZ
  Basis Set: (CC-PVDZ AUX)
    Blend: DEF2-UNIVERSAL-JKFIT

    Orbital Energies [Eh]
    ---------------------

    Alpha Occupied:

       1A1   -46.892117     2A1    -4.093390     3A1    -3.171321
       4A1    -1.915707     1B2    -1.914212     1B1    -1.914212
       5A1    -0.333364     6A1    -0.206837     2B2    -0.149529
       2B1    -0.149529

    Alpha Virtual:

       7A1    -0.095029     3B1    -0.032754     3B2    -0.032754
       8A1     0.027875     9A1     0.083563     4B1     0.126320
       4B2     0.126320    10A1     0.153349    11A1     0.193238
       5B1     0.197233     5B2     0.197233    12A1     0.259900
       1A2     0.259901     6B1     0.273722     6B2     0.273722
      13A1     0.313012    14A1     0.464371     2A2     0.464372
      15A1     0.488529     7B1     0.599067     7B2     0.599067
      16A1     0.773795

    Beta Occupied:

       1A1   -46.887755     2A1    -4.074230     3A1    -3.164080
       4A1    -1.910118     1B2    -1.907987     1B1    -1.907987

    Beta Virtual:

       5A1    -0.175455     6A1    -0.087186     2B2    -0.025078
       2B1    -0.025078     7A1    -0.018867     3B1     0.046032
       3B2     0.046032     8A1     0.069360     9A1     0.116395
       4B1     0.162254     4B2     0.162254    10A1     0.191998
      11A1     0.240775     5B1     0.250262     5B2     0.250262
       1A2     0.321551    12A1     0.321557     6B1     0.343701
       6B2     0.343701    13A1     0.369471    14A1     0.546617
       2A2     0.579798    15A1     0.579853     7B1     0.687853
       7B2     0.687853    16A1     0.832649

    Final Occupation by Irrep:
             A1    A2    B1    B2
    DOCC [     4,    0,    1,    1 ]
    SOCC [     2,    0,    1,    1 ]
    NA   [     6,    0,    2,    2 ]
    NB   [     4,    0,    1,    1 ]

  @DF-UKS Final Energy:  -214.60630087698493

   => Energetics <=

    Nuclear Repulsion Energy =             10.5199236507817400
    One-Electron Energy =                -318.5515054769095968
    Two-Electron Energy =                 108.9628704628630800
    DFT Exchange-Correlation Energy =     -15.5375895137201461
    Empirical Dispersion Energy =           0.0000000000000000
    VV10 Nonlocal Energy =                  0.0000000000000000
    Total Energy =                       -214.6063008769849603

  UHF NO Occupations:
  HONO-2 :    5 A1 1.0000000
  HONO-1 :    2 B1 1.0000000
  HONO-0 :    6 A1 1.0000000
  LUNO+0 :    7 A1 0.0000010
  LUNO+1 :    3 B1 0.0000005
  LUNO+2 :    3 B2 0.0000005
  LUNO+3 :    8 A1 0.0000002

Computation Completed

Properties will be evaluated at   0.000000,   0.000000,   0.000000 [a0]

Properties computed using the SCF density matrix

 Multipole Moments:

 ------------------------------------------------------------------------------------
     Multipole            Electronic (a.u.)      Nuclear  (a.u.)        Total (a.u.)
 ------------------------------------------------------------------------------------

 L = 1.  Multiply by 2.5417464519 to convert [e a0] to [Debye]
 Dipole X            :          0.0000000            0.0000000            0.0000000
 Dipole Y            :          0.0000000            0.0000000            0.0000000
 Dipole Z            :          0.9777138           -1.6878182           -0.7101044
 Magnitude           :                                                    0.7101044

 ------------------------------------------------------------------------------------

*** tstop() called on Joses-MacBook-Pro-2.local at Wed Jul 16 18:43:41 2025
Module time:
	user time   =       2.94 seconds =       0.05 minutes
	system time =       3.14 seconds =       0.05 minutes
	total time  =          0 seconds =       0.00 minutes
Total time:
	user time   =      57.21 seconds =       0.95 minutes
	system time =      62.26 seconds =       1.04 minutes
	total time  =         12 seconds =       0.20 minutes

*** tstart() called on Joses-MacBook-Pro-2.local
*** at Wed Jul 16 18:43:41 2025

         ------------------------------------------------------------
                                   SCF GRAD
                          Rob Parrish, Justin Turney,
                       Andy Simmonett, and Alex Sokolov
         ------------------------------------------------------------

  ==> Geometry <==

    Molecular point group: c2v
    Full point group: C_inf_v

    Geometry (in Angstrom), charge = 0, multiplicity = 5:

       Center              X                  Y                   Z               Mass
    ------------   -----------------  -----------------  -----------------  -----------------
         BE           0.000000000000     0.000000000000     1.755063543446     9.012183065000
         MG           0.000000000000     0.000000000000    -0.659450758688    23.985041697000

  Nuclear repulsion =   10.519923650781740

  ==> Basis Set <==

  Basis Set: CC-PVDZ
    Blend: CC-PVDZ
    Number of shells: 14
    Number of basis functions: 32
    Number of Cartesian functions: 34
    Spherical Harmonics?: true
    Max angular momentum: 2

  ==> DFJKGrad: Density-Fitted SCF Gradients <==

    Gradient:                    1
    J tasked:                  Yes
    K tasked:                  Yes
    wK tasked:                  No
    OpenMP threads:              1
    Integrals threads:           1
    Memory [MiB]:              375
    Schwarz Cutoff:          1E-12
    Fitting Condition:       1E-10

   => Auxiliary Basis Set <=

  Basis Set: (CC-PVDZ AUX)
    Blend: DEF2-UNIVERSAL-JKFIT
    Number of shells: 51
    Number of basis functions: 163
    Number of Cartesian functions: 197
    Spherical Harmonics?: true
    Max angular momentum: 4

  ==> DFT Potential <==

   => LibXC <=

    Version 6.2.2
    S. Lehtola, C. Steigemann, M. J.T. Oliveira, and M. A.L. Marques.,  SoftwareX 7, 1â€“5 (2018) (10.1016/j.softx.2017.11.002)

   => Composite Functional: B3LYP <=

    B3LYP Hyb-GGA Exchange-Correlation Functional

    P. J. Stephens, F. J. Devlin, C. F. Chabalowski, and M. J. Frisch.,  J. Phys. Chem. 98, 11623 (1994) (10.1021/j100096a001)

    Deriv               =              1
    GGA                 =           TRUE
    Meta                =          FALSE

    Exchange Hybrid     =           TRUE
    MP2 Hybrid          =          FALSE

   => Exchange Functionals <=

    0.0800   Slater exchange
    0.7200         Becke 88

   => Exact (HF) Exchange <=

    0.2000               HF

   => Correlation Functionals <=

    0.1900   Vosko, Wilk & Nusair (VWN5_RPA)
    0.8100   Lee, Yang & Parr

   => LibXC Density Thresholds  <==

    XC_HYB_GGA_XC_B3LYP:  1.00E-15

   => Molecular Quadrature <=

    Radial Scheme          =       TREUTLER
    Pruning Scheme         =           NONE
    Nuclear Scheme         =       TREUTLER

    Blocking Scheme        =         OCTREE
    BS radius alpha        =              1
    Pruning alpha          =              1
    Radial Points          =             75
    Spherical Points       =            302
    Total Points           =          42962
    Total Blocks           =            418
    Max Points             =            256
    Max Functions          =             32
    Weights Tolerance      =       1.00E-15

  -Total Gradient:
     Atom            X                  Y                   Z
    ------   -----------------  -----------------  -----------------
       1       -0.000000000000     0.000000000000    -0.000054565632
       2       -0.000000000000     0.000000000000     0.000047662803

*** tstop() called on Joses-MacBook-Pro-2.local at Wed Jul 16 18:43:41 2025
Module time:
	user time   =       1.09 seconds =       0.02 minutes
	system time =       1.57 seconds =       0.03 minutes
	total time  =          0 seconds =       0.00 minutes
Total time:
	user time   =      58.31 seconds =       0.97 minutes
	system time =      63.83 seconds =       1.06 minutes
	total time  =         12 seconds =       0.20 minutes

    			-----------------------------------------

    			 OPTKING 3.0: for geometry optimizations

    			     By R.A. King, Bethel University

    			        with contributions from

    			    A.V. Copan, J. Cayton, A. Heide

    			-----------------------------------------

	                            ===> Fragment 1 <==

	 Z (Atomic Numbers)          Masses                          Geom
	       4.000000             9.012183          0.00000000  0.00000000  3.31658943
	      12.000000            23.985042          0.00000000  0.00000000 -1.24618133

	 - Coordinate -           - BOHR/RAD -       - ANG/DEG -
	 R(1,2)           =         4.562771           2.414514

	        --- Internal Coordinate Step in ANG or DEG, aJ/ANG or AJ/DEG ---
	-------------------------------------------------------------------------------
	           Coordinate      Previous         Force          Change          New
	           ----------      --------        ------          ------        ------
	               R(1,2)       2.41451        0.00042        0.00065       2.41517
	-------------------------------------------------------------------------------

	                                 ==> Convergence Check <==

	Measures of convergence in internal coordinates in au.

	Criteria marked as inactive (o), active & met (*), and active & unmet ( ).

	----------------------------------------------------------------------------------------------
	   Step    Total Energy     Delta E     Max Force     RMS Force      Max Disp      RMS Disp
	----------------------------------------------------------------------------------------------
	  Convergence Criteria     1.00e-06 *    3.00e-04 *             o    1.20e-03 *             o
	----------------------------------------------------------------------------------------------
	    12    -214.60630088   -3.72e-07 *    5.11e-05 *    5.11e-05 o    1.24e-03      1.24e-03 o  ~
	----------------------------------------------------------------------------------------------

Next Geometry in Ang
	Fragment 1 (Ang)

	   Be   0.0000000000   0.0000000000   1.7553910199
	   Mg   0.0000000000   0.0000000000  -0.6597782351

    Final optimized geometry and variables:
    Molecular point group: c2v
    Full point group: C_inf_v

    Geometry (in Angstrom), charge = 0, multiplicity = 5:

    BE           0.000000000000     0.000000000000     1.755063543446
    MG           0.000000000000     0.000000000000    -0.659450758688

    Psi4 stopped on: Wednesday, 16 July 2025 06:43PM
    Psi4 wall time for execution: 0:00:12.69

*** Psi4 exiting successfully. Buy a developer a beer!
