                               Psi4 1.9.1 release

  ==> Input File <==

--------------------------------------------------------------------------
molecule {
0 5
Na   0.00000        0.60000        0.00000
Al   0.00000       -0.60000        0.00000
}

set {
basis              cc-pvdz
reference          uks
maxiter            500
geom_maxiter       500
DAMPING_PERCENTAGE 1
guess              SAP
}

optimize('b3lyp')
--------------------------------------------------------------------------

    Molecular point group: c2v
  Charge       = 0
  Multiplicity = 5
  Basis Set: CC-PVDZ
    Blend: CC-PVDZ
  Basis Set: (CC-PVDZ AUX)
    Blend: CC-PVDZ-JKFIT + DEF2-UNIVERSAL-JKFIT
  @DF-UKS Final Energy:  -403.86033047754103
    Total Energy =                       -403.8603304775410265
 Dipole X            :          0.0000000            0.0000000            0.0000000
 Dipole Y            :          0.0000000            0.0000000            0.0000000
 Dipole Z            :          0.4431169           -0.0939390            0.3491779
 Magnitude           :                                                    0.3491779
    Molecular point group: c2v
  Basis Set: CC-PVDZ
    Blend: CC-PVDZ
  Basis Set: (CC-PVDZ AUX)
    Blend: CC-PVDZ-JKFIT + DEF2-UNIVERSAL-JKFIT
  Basis Set: CC-PVDZ
    Blend: CC-PVDZ
  Basis Set: (CC-PVDZ AUX)
    Blend: CC-PVDZ-JKFIT + DEF2-UNIVERSAL-JKFIT
  @DF-UKS Final Energy:  -403.86747141032259
    Total Energy =                       -403.8674714103225938
  Basis Set: CC-PVDZ
    Blend: CC-PVDZ
  Basis Set: (CC-PVDZ AUX)
    Blend: CC-PVDZ-JKFIT + DEF2-UNIVERSAL-JKFIT
  Basis Set: CC-PVDZ
    Blend: CC-PVDZ
  @DF-UKS Final Energy:  -403.88128587103904
    Total Energy =                       -403.8812858710390401
  @DF-UKS Final Energy:  -403.93172674784086
    Total Energy =                       -403.9317267478409121
  @DF-UKS Final Energy:  -404.16881274451208
    Total Energy =                       -404.1688127445120813
  @DF-UKS Final Energy:  -404.30684768433622
    Total Energy =                       -404.3068476843362191
  @DF-UKS Final Energy:  -404.41108952612967
    Total Energy =                       -404.4110895261297287
  @DF-UKS Final Energy:  -404.48409137707256
    Total Energy =                       -404.4840913770726161
  @DF-UKS Final Energy:  -404.52671691591650
    Total Energy =                       -404.5267169159164951
  @DF-UKS Final Energy:  -404.54730883644964
    Total Energy =                       -404.5473088364497016
  @DF-UKS Final Energy:  -404.55600116334642
    Total Energy =                       -404.5560011633464228
  @DF-UKS Final Energy:  -404.55916692718284
    Total Energy =                       -404.5591669271827868
  @DF-UKS Final Energy:  -404.55997641672889
    Total Energy =                       -404.5599764167288868
  @DF-UKS Final Energy:  -404.56007362796839
    Total Energy =                       -404.5600736279683929
  Basis Set: (CC-PVDZ AUX)
    Blend: CC-PVDZ-JKFIT + DEF2-UNIVERSAL-JKFIT
  Basis Set: CC-PVDZ
    Blend: CC-PVDZ
  Basis Set: (CC-PVDZ AUX)
    Blend: CC-PVDZ-JKFIT + DEF2-UNIVERSAL-JKFIT
  @DF-UKS Final Energy:  -404.56008688111285
    Total Energy =                       -404.5600868811127953
  Basis Set: CC-PVDZ
    Blend: CC-PVDZ
  Basis Set: (CC-PVDZ AUX)
    Blend: CC-PVDZ-JKFIT + DEF2-UNIVERSAL-JKFIT
  Charge       = 0
  Multiplicity = 5
  Basis Set: CC-PVDZ
    Blend: CC-PVDZ
  Basis Set: (CC-PVDZ AUX)
    Blend: CC-PVDZ-JKFIT + DEF2-UNIVERSAL-JKFIT

    Orbital Energies [Eh]
    ---------------------

    Alpha Occupied:

       1A1   -56.069679     2A1   -38.521266     3A1    -4.150854
       4A1    -2.704964     1B2    -2.703338     1B1    -2.703338
       5A1    -2.265385     6A1    -1.196792     2B2    -1.196128
       2B1    -1.196128     7A1    -0.347719     8A1    -0.163939
       3B1    -0.135448     3B2    -0.135448

    Alpha Virtual:

       9A1    -0.070651     4B2    -0.013907     4B1    -0.013907
      10A1     0.008226    11A1     0.044409     5B2     0.062345
       5B1     0.062345    12A1     0.099611     1A2     0.142159
      13A1     0.142159     6B1     0.146590     6B2     0.146590
      14A1     0.153510     7B2     0.233335     7B1     0.233335
      15A1     0.255198     2A2     0.269051    16A1     0.269052
      17A1     0.322354     8B1     0.358628     8B2     0.358628
      18A1     0.516887

    Beta Occupied:

       1A1   -56.060372     2A1   -38.519960     3A1    -4.137446
       4A1    -2.693174     1B2    -2.689502     1B1    -2.689502
       5A1    -2.262931     6A1    -1.194875     2B2    -1.194413
       2B1    -1.194413

    Beta Virtual:

       7A1    -0.177146     8A1    -0.083198     3B1    -0.018244
       3B2    -0.018244     9A1    -0.010113     4B1     0.029779
       4B2     0.029779    10A1     0.031280    11A1     0.056926
       5B2     0.077159     5B1     0.077159    12A1     0.132764
      13A1     0.165469     1A2     0.165471     6B1     0.189428
       6B2     0.189428    14A1     0.199381     7B2     0.294690
       7B1     0.294690    15A1     0.323281    16A1     0.366679
       2A2     0.374681    17A1     0.374725     8B1     0.439575
       8B2     0.439575    18A1     0.575528

    Final Occupation by Irrep:
             A1    A2    B1    B2
    DOCC [     6,    0,    2,    2 ]
    SOCC [     2,    0,    1,    1 ]
    NA   [     8,    0,    3,    3 ]
    NB   [     6,    0,    2,    2 ]

  @DF-UKS Final Energy:  -404.56008741424569

   => Energetics <=

    Nuclear Repulsion Energy =             25.5492240283119045
    One-Electron Energy =                -615.0761685498879388
    Two-Electron Energy =                 211.6106120498162397
    DFT Exchange-Correlation Energy =     -26.6437549424858275
    Empirical Dispersion Energy =           0.0000000000000000
    VV10 Nonlocal Energy =                  0.0000000000000000
    Total Energy =                       -404.5600874142456291

  UHF NO Occupations:
  HONO-2 :    3 B2 1.0000000
  HONO-1 :    7 A1 1.0000000
  HONO-0 :    8 A1 1.0000000
  LUNO+0 :    9 A1 0.0000019
  LUNO+1 :    4 B1 0.0000003
  LUNO+2 :    4 B2 0.0000003
  LUNO+3 :   10 A1 0.0000002

Computation Completed

Properties will be evaluated at   0.000000,   0.000000,   0.000000 [a0]

Properties computed using the SCF density matrix

 Multipole Moments:

 ------------------------------------------------------------------------------------
     Multipole            Electronic (a.u.)      Nuclear  (a.u.)        Total (a.u.)
 ------------------------------------------------------------------------------------

 L = 1.  Multiply by 2.5417464519 to convert [e a0] to [Debye]
 Dipole X            :          0.0000000            0.0000000            0.0000000
 Dipole Y            :          0.0000000            0.0000000            0.0000000
 Dipole Z            :          2.5383351           -0.2318591            2.3064761
 Magnitude           :                                                    2.3064761

 ------------------------------------------------------------------------------------

*** tstop() called on Joses-MacBook-Pro-2.local at Wed Jul 16 19:42:29 2025
Module time:
	user time   =       6.00 seconds =       0.10 minutes
	system time =       2.74 seconds =       0.05 minutes
	total time  =          1 seconds =       0.02 minutes
Total time:
	user time   =     224.24 seconds =       3.74 minutes
	system time =      52.12 seconds =       0.87 minutes
	total time  =         28 seconds =       0.47 minutes

*** tstart() called on Joses-MacBook-Pro-2.local
*** at Wed Jul 16 19:42:29 2025

         ------------------------------------------------------------
                                   SCF GRAD
                          Rob Parrish, Justin Turney,
                       Andy Simmonett, and Alex Sokolov
         ------------------------------------------------------------

  ==> Geometry <==

    Molecular point group: c2v
    Full point group: C_inf_v

    Geometry (in Angstrom), charge = 0, multiplicity = 5:

       Center              X                  Y                   Z               Mass
    ------------   -----------------  -----------------  -----------------  -----------------
         NA           0.000000000000     0.000000000000     1.599209829038    22.989769282000
         AL           0.000000000000     0.000000000000    -1.362615588515    26.981538530000

  Nuclear repulsion =   25.549224028311905

  ==> Basis Set <==

  Basis Set: CC-PVDZ
    Blend: CC-PVDZ
    Number of shells: 16
    Number of basis functions: 36
    Number of Cartesian functions: 38
    Spherical Harmonics?: true
    Max angular momentum: 2

  ==> DFJKGrad: Density-Fitted SCF Gradients <==

    Gradient:                    1
    J tasked:                  Yes
    K tasked:                  Yes
    wK tasked:                  No
    OpenMP threads:              1
    Integrals threads:           1
    Memory [MiB]:              375
    Schwarz Cutoff:          1E-12
    Fitting Condition:       1E-10

   => Auxiliary Basis Set <=

  Basis Set: (CC-PVDZ AUX)
    Blend: CC-PVDZ-JKFIT + DEF2-UNIVERSAL-JKFIT
    Number of shells: 70
    Number of basis functions: 224
    Number of Cartesian functions: 267
    Spherical Harmonics?: true
    Max angular momentum: 4

  ==> DFT Potential <==

   => LibXC <=

    Version 6.2.2
    S. Lehtola, C. Steigemann, M. J.T. Oliveira, and M. A.L. Marques.,  SoftwareX 7, 1â€“5 (2018) (10.1016/j.softx.2017.11.002)

   => Composite Functional: B3LYP <=

    B3LYP Hyb-GGA Exchange-Correlation Functional

    P. J. Stephens, F. J. Devlin, C. F. Chabalowski, and M. J. Frisch.,  J. Phys. Chem. 98, 11623 (1994) (10.1021/j100096a001)

    Deriv               =              1
    GGA                 =           TRUE
    Meta                =          FALSE

    Exchange Hybrid     =           TRUE
    MP2 Hybrid          =          FALSE

   => Exchange Functionals <=

    0.0800   Slater exchange
    0.7200         Becke 88

   => Exact (HF) Exchange <=

    0.2000               HF

   => Correlation Functionals <=

    0.1900   Vosko, Wilk & Nusair (VWN5_RPA)
    0.8100   Lee, Yang & Parr

   => LibXC Density Thresholds  <==

    XC_HYB_GGA_XC_B3LYP:  1.00E-15

   => Molecular Quadrature <=

    Radial Scheme          =       TREUTLER
    Pruning Scheme         =           NONE
    Nuclear Scheme         =       TREUTLER

    Blocking Scheme        =         OCTREE
    BS radius alpha        =              1
    Pruning alpha          =              1
    Radial Points          =             75
    Spherical Points       =            302
    Total Points           =          43862
    Total Blocks           =            456
    Max Points             =            255
    Max Functions          =             36
    Weights Tolerance      =       1.00E-15

  -Total Gradient:
     Atom            X                  Y                   Z
    ------   -----------------  -----------------  -----------------
       1       -0.000000000000     0.000000000000    -0.000018801678
       2        0.000000000000     0.000000000000     0.000037441704

*** tstop() called on Joses-MacBook-Pro-2.local at Wed Jul 16 19:42:29 2025
Module time:
	user time   =       2.85 seconds =       0.05 minutes
	system time =       1.37 seconds =       0.02 minutes
	total time  =          0 seconds =       0.00 minutes
Total time:
	user time   =     227.09 seconds =       3.78 minutes
	system time =      53.50 seconds =       0.89 minutes
	total time  =         28 seconds =       0.47 minutes

    			-----------------------------------------

    			 OPTKING 3.0: for geometry optimizations

    			     By R.A. King, Bethel University

    			        with contributions from

    			    A.V. Copan, J. Cayton, A. Heide

    			-----------------------------------------

	                            ===> Fragment 1 <==

	 Z (Atomic Numbers)          Masses                          Geom
	      11.000000            22.989769          0.00000000  0.00000000  3.02206859
	      13.000000            26.981539          0.00000000  0.00000000 -2.57497028

	 - Coordinate -           - BOHR/RAD -       - ANG/DEG -
	 R(1,2)           =         5.597039           2.961825

	        --- Internal Coordinate Step in ANG or DEG, aJ/ANG or AJ/DEG ---
	-------------------------------------------------------------------------------
	           Coordinate      Previous         Force          Change          New
	           ----------      --------        ------          ------        ------
	               R(1,2)       2.96183        0.00023        0.00074       2.96256
	-------------------------------------------------------------------------------

	                                 ==> Convergence Check <==

	Measures of convergence in internal coordinates in au.

	Criteria marked as inactive (o), active & met (*), and active & unmet ( ).

	----------------------------------------------------------------------------------------------
	   Step    Total Energy     Delta E     Max Force     RMS Force      Max Disp      RMS Disp
	----------------------------------------------------------------------------------------------
	  Convergence Criteria     1.00e-06 *    3.00e-04 *             o    1.20e-03 *             o
	----------------------------------------------------------------------------------------------
	    16    -404.56008741   -5.33e-07 *    2.81e-05 *    2.81e-05 o    1.39e-03      1.39e-03 o  ~
	----------------------------------------------------------------------------------------------

Next Geometry in Ang
	Fragment 1 (Ang)

	   Na   0.0000000000   0.0000000000   1.5995779688
	   Al   0.0000000000   0.0000000000  -1.3629837283

    Final optimized geometry and variables:
    Molecular point group: c2v
    Full point group: C_inf_v

    Geometry (in Angstrom), charge = 0, multiplicity = 5:

    NA           0.000000000000     0.000000000000     1.599209829038
    AL           0.000000000000     0.000000000000    -1.362615588515

    Psi4 stopped on: Wednesday, 16 July 2025 07:42PM
    Psi4 wall time for execution: 0:00:28.54

*** Psi4 exiting successfully. Buy a developer a beer!
