                               Psi4 1.9.1 release

  ==> Input File <==

--------------------------------------------------------------------------
molecule {
0 5
B   0.00000        0.60000        0.00000
N   0.00000       -0.60000        0.00000
}

set {
basis              cc-pvdz
reference          uks
maxiter            500
geom_maxiter       500
DAMPING_PERCENTAGE 1
guess              SAP
}

optimize('b3lyp')
--------------------------------------------------------------------------

    Molecular point group: c2v
  Charge       = 0
  Multiplicity = 5
  Basis Set: CC-PVDZ
    Blend: CC-PVDZ
  Basis Set: (CC-PVDZ AUX)
    Blend: CC-PVDZ-JKFIT
  @DF-UKS Final Energy:   -79.17093391896309
    Total Energy =                        -79.1709339189630867
 Dipole X            :          0.0000000            0.0000000            0.0000000
 Dipole Y            :          0.0000000            0.0000000            0.0000000
 Dipole Z            :          0.6168476           -0.6391457           -0.0222981
 Magnitude           :                                                    0.0222981
    Molecular point group: c2v
  Basis Set: CC-PVDZ
    Blend: CC-PVDZ
  Basis Set: (CC-PVDZ AUX)
    Blend: CC-PVDZ-JKFIT
  Basis Set: CC-PVDZ
    Blend: CC-PVDZ
  Basis Set: (CC-PVDZ AUX)
    Blend: CC-PVDZ-JKFIT
  @DF-UKS Final Energy:   -79.26524909030155
    Total Energy =                        -79.2652490903015519
  Basis Set: CC-PVDZ
    Blend: CC-PVDZ
  Basis Set: (CC-PVDZ AUX)
    Blend: CC-PVDZ-JKFIT
  Basis Set: CC-PVDZ
    Blend: CC-PVDZ
  @DF-UKS Final Energy:   -79.27716883048845
    Total Energy =                        -79.2771688304884350
  @DF-UKS Final Energy:   -79.28283530048090
    Total Energy =                        -79.2828353004808974
  @DF-UKS Final Energy:   -79.28370758225341
    Total Energy =                        -79.2837075822534132
  @DF-UKS Final Energy:   -79.28387553490018
    Total Energy =                        -79.2838755349001758
  @DF-UKS Final Energy:   -79.28391157298555
    Total Energy =                        -79.2839115729855450
  Basis Set: (CC-PVDZ AUX)
    Blend: CC-PVDZ-JKFIT
  Basis Set: CC-PVDZ
    Blend: CC-PVDZ
  Basis Set: (CC-PVDZ AUX)
    Blend: CC-PVDZ-JKFIT
  @DF-UKS Final Energy:   -79.28392086496731
    Total Energy =                        -79.2839208649673139
  Basis Set: CC-PVDZ
    Blend: CC-PVDZ
  Basis Set: (CC-PVDZ AUX)
    Blend: CC-PVDZ-JKFIT
  Charge       = 0
  Multiplicity = 5
  Basis Set: CC-PVDZ
    Blend: CC-PVDZ
  Basis Set: (CC-PVDZ AUX)
    Blend: CC-PVDZ-JKFIT

    Orbital Energies [Eh]
    ---------------------

    Alpha Occupied:

       1A1   -14.436346     2A1    -6.849459     3A1    -0.851925
       4A1    -0.446142     1B2    -0.380981     1B1    -0.372074
       5A1    -0.316797     2B2    -0.162318

    Alpha Virtual:

       2B1    -0.077515     6A1     0.097992     3B2     0.264736
       3B1     0.284160     7A1     0.305163     8A1     0.345954
       9A1     0.649434     1A2     0.655611    10A1     0.662068
       4B2     0.671754     4B1     0.675049     5B2     0.766940
       5B1     0.768059    11A1     1.065603    12A1     1.188867
       2A2     1.682022    13A1     1.682302     6B1     1.920555
       6B2     1.921400    14A1     2.208798

    Beta Occupied:

       1A1   -14.395196     2A1    -6.827612     3A1    -0.719760
       4A1    -0.358120

    Beta Virtual:

       1B1    -0.173832     1B2    -0.155405     5A1    -0.142093
       2B1     0.002762     2B2     0.029571     6A1     0.142301
       3B1     0.306999     3B2     0.332240     7A1     0.382114
       8A1     0.391016     9A1     0.690833     1A2     0.734045
      10A1     0.735281     4B1     0.758774     4B2     0.779848
       5B1     0.835439     5B2     0.851162    11A1     1.135022
      12A1     1.258274     2A2     1.821812    13A1     1.821827
       6B1     2.004271     6B2     2.017553    14A1     2.283003

    Final Occupation by Irrep:
             A1    A2    B1    B2
    DOCC [     4,    0,    0,    0 ]
    SOCC [     1,    0,    1,    2 ]
    NA   [     5,    0,    1,    2 ]
    NB   [     4,    0,    0,    0 ]

  @DF-UKS Final Energy:   -79.28392211624649

   => Energetics <=

    Nuclear Repulsion Energy =             11.6001780838654494
    One-Electron Energy =                -129.3755451534281633
    Two-Electron Energy =                  47.2028161842263145
    DFT Exchange-Correlation Energy =      -8.7113712309100677
    Empirical Dispersion Energy =           0.0000000000000000
    VV10 Nonlocal Energy =                  0.0000000000000000
    Total Energy =                        -79.2839221162464582

  UHF NO Occupations:
  HONO-2 :    5 A1 1.0000000
  HONO-1 :    1 B1 1.0000000
  HONO-0 :    2 B2 1.0000000
  LUNO+0 :    6 A1 0.0016566
  LUNO+1 :    7 A1 0.0009441
  LUNO+2 :    8 A1 0.0000004
  LUNO+3 :    9 A1 0.0000002

Computation Completed

Properties will be evaluated at   0.000000,   0.000000,   0.000000 [a0]

Properties computed using the SCF density matrix

 Multipole Moments:

 ------------------------------------------------------------------------------------
     Multipole            Electronic (a.u.)      Nuclear  (a.u.)        Total (a.u.)
 ------------------------------------------------------------------------------------

 L = 1.  Multiply by 2.5417464519 to convert [e a0] to [Debye]
 Dipole X            :          0.0000000            0.0000000            0.0000000
 Dipole Y            :          0.0000000            0.0000000            0.0000000
 Dipole Z            :          0.9948389           -0.8503999            0.1444390
 Magnitude           :                                                    0.1444390

 ------------------------------------------------------------------------------------

*** tstop() called on Joses-MacBook-Pro-2.local at Wed Jul 16 18:49:58 2025
Module time:
	user time   =       3.75 seconds =       0.06 minutes
	system time =       4.21 seconds =       0.07 minutes
	total time  =          1 seconds =       0.02 minutes
Total time:
	user time   =      32.05 seconds =       0.53 minutes
	system time =      54.70 seconds =       0.91 minutes
	total time  =          9 seconds =       0.15 minutes

*** tstart() called on Joses-MacBook-Pro-2.local
*** at Wed Jul 16 18:49:58 2025

         ------------------------------------------------------------
                                   SCF GRAD
                          Rob Parrish, Justin Turney,
                       Andy Simmonett, and Alex Sokolov
         ------------------------------------------------------------

  ==> Geometry <==

    Molecular point group: c2v
    Full point group: C_inf_v

    Geometry (in Angstrom), charge = 0, multiplicity = 5:

       Center              X                  Y                   Z               Mass
    ------------   -----------------  -----------------  -----------------  -----------------
         B            0.000000000000     0.000000000000     0.893866986461    11.009305360000
         N            0.000000000000     0.000000000000    -0.702763878992    14.003074004430

  Nuclear repulsion =   11.600178083865449

  ==> Basis Set <==

  Basis Set: CC-PVDZ
    Blend: CC-PVDZ
    Number of shells: 12
    Number of basis functions: 28
    Number of Cartesian functions: 30
    Spherical Harmonics?: true
    Max angular momentum: 2

  ==> DFJKGrad: Density-Fitted SCF Gradients <==

    Gradient:                    1
    J tasked:                  Yes
    K tasked:                  Yes
    wK tasked:                  No
    OpenMP threads:              1
    Integrals threads:           1
    Memory [MiB]:              375
    Schwarz Cutoff:          1E-12
    Fitting Condition:       1E-10

   => Auxiliary Basis Set <=

  Basis Set: (CC-PVDZ AUX)
    Blend: CC-PVDZ-JKFIT
    Number of shells: 48
    Number of basis functions: 140
    Number of Cartesian functions: 162
    Spherical Harmonics?: true
    Max angular momentum: 3

  ==> DFT Potential <==

   => LibXC <=

    Version 6.2.2
    S. Lehtola, C. Steigemann, M. J.T. Oliveira, and M. A.L. Marques.,  SoftwareX 7, 1â€“5 (2018) (10.1016/j.softx.2017.11.002)

   => Composite Functional: B3LYP <=

    B3LYP Hyb-GGA Exchange-Correlation Functional

    P. J. Stephens, F. J. Devlin, C. F. Chabalowski, and M. J. Frisch.,  J. Phys. Chem. 98, 11623 (1994) (10.1021/j100096a001)

    Deriv               =              1
    GGA                 =           TRUE
    Meta                =          FALSE

    Exchange Hybrid     =           TRUE
    MP2 Hybrid          =          FALSE

   => Exchange Functionals <=

    0.0800   Slater exchange
    0.7200         Becke 88

   => Exact (HF) Exchange <=

    0.2000               HF

   => Correlation Functionals <=

    0.1900   Vosko, Wilk & Nusair (VWN5_RPA)
    0.8100   Lee, Yang & Parr

   => LibXC Density Thresholds  <==

    XC_HYB_GGA_XC_B3LYP:  1.00E-15

   => Molecular Quadrature <=

    Radial Scheme          =       TREUTLER
    Pruning Scheme         =           NONE
    Nuclear Scheme         =       TREUTLER

    Blocking Scheme        =         OCTREE
    BS radius alpha        =              1
    Pruning alpha          =              1
    Radial Points          =             75
    Spherical Points       =            302
    Total Points           =          43280
    Total Blocks           =            396
    Max Points             =            255
    Max Functions          =             28
    Weights Tolerance      =       1.00E-15

  -Total Gradient:
     Atom            X                  Y                   Z
    ------   -----------------  -----------------  -----------------
       1        0.000000000000     0.000000000000    -0.000108359575
       2        0.000000000000     0.000000000000     0.000117911040

*** tstop() called on Joses-MacBook-Pro-2.local at Wed Jul 16 18:49:58 2025
Module time:
	user time   =       0.46 seconds =       0.01 minutes
	system time =       1.55 seconds =       0.03 minutes
	total time  =          0 seconds =       0.00 minutes
Total time:
	user time   =      32.51 seconds =       0.54 minutes
	system time =      56.26 seconds =       0.94 minutes
	total time  =          9 seconds =       0.15 minutes

    			-----------------------------------------

    			 OPTKING 3.0: for geometry optimizations

    			     By R.A. King, Bethel University

    			        with contributions from

    			    A.V. Copan, J. Cayton, A. Heide

    			-----------------------------------------

	                            ===> Fragment 1 <==

	 Z (Atomic Numbers)          Masses                          Geom
	       5.000000            11.009305          0.00000000  0.00000000  1.68916380
	       7.000000            14.003074          0.00000000  0.00000000 -1.32803126

	 - Coordinate -           - BOHR/RAD -       - ANG/DEG -
	 R(1,2)           =         3.017195           1.596631

	        --- Internal Coordinate Step in ANG or DEG, aJ/ANG or AJ/DEG ---
	-------------------------------------------------------------------------------
	           Coordinate      Previous         Force          Change          New
	           ----------      --------        ------          ------        ------
	               R(1,2)       1.59663        0.00093        0.00034       1.59697
	-------------------------------------------------------------------------------

	                                 ==> Convergence Check <==

	Measures of convergence in internal coordinates in au.

	Criteria marked as inactive (o), active & met (*), and active & unmet ( ).

	----------------------------------------------------------------------------------------------
	   Step    Total Energy     Delta E     Max Force     RMS Force      Max Disp      RMS Disp
	----------------------------------------------------------------------------------------------
	  Convergence Criteria     1.00e-06 *    3.00e-04 *             o    1.20e-03 *             o
	----------------------------------------------------------------------------------------------
	     9     -79.28392212   -1.25e-06      1.13e-04 *    1.13e-04 o    6.41e-04 *    6.41e-04 o  ~
	----------------------------------------------------------------------------------------------

Next Geometry in Ang
	Fragment 1 (Ang)

	    B   0.0000000000   0.0000000000   0.8940366566
	    N   0.0000000000   0.0000000000  -0.7029335491

    Final optimized geometry and variables:
    Molecular point group: c2v
    Full point group: C_inf_v

    Geometry (in Angstrom), charge = 0, multiplicity = 5:

    B            0.000000000000     0.000000000000     0.893866986461
    N            0.000000000000     0.000000000000    -0.702763878992

    Psi4 stopped on: Wednesday, 16 July 2025 06:49PM
    Psi4 wall time for execution: 0:00:09.90

*** Psi4 exiting successfully. Buy a developer a beer!
