                               Psi4 1.9.1 release

  ==> Input File <==

--------------------------------------------------------------------------
molecule {
0 5
B   0.00000        0.60000        0.00000
Na   0.00000       -0.60000        0.00000
}

set {
basis              cc-pvdz
reference          uks
maxiter            500
geom_maxiter       500
DAMPING_PERCENTAGE 1
guess              SAP
}

optimize('b3lyp')
--------------------------------------------------------------------------

    Molecular point group: c2v
  Charge       = 0
  Multiplicity = 5
  Basis Set: CC-PVDZ
    Blend: CC-PVDZ
  Basis Set: (CC-PVDZ AUX)
    Blend: CC-PVDZ-JKFIT + DEF2-UNIVERSAL-JKFIT
  @DF-UKS Final Energy:  -186.47118830182404
    Total Energy =                       -186.4711883018240428
 Dipole X            :          0.0000000            0.0000000            0.0000000
 Dipole Y            :          0.0000000            0.0000000            0.0000000
 Dipole Z            :          0.4802468           -0.4104272            0.0698196
 Magnitude           :                                                    0.0698196
    Molecular point group: c2v
  Basis Set: CC-PVDZ
    Blend: CC-PVDZ
  Basis Set: (CC-PVDZ AUX)
    Blend: CC-PVDZ-JKFIT + DEF2-UNIVERSAL-JKFIT
  Basis Set: CC-PVDZ
    Blend: CC-PVDZ
  Basis Set: (CC-PVDZ AUX)
    Blend: CC-PVDZ-JKFIT + DEF2-UNIVERSAL-JKFIT
  @DF-UKS Final Energy:  -186.54917611996748
    Total Energy =                       -186.5491761199674841
  Basis Set: CC-PVDZ
    Blend: CC-PVDZ
  Basis Set: (CC-PVDZ AUX)
    Blend: CC-PVDZ-JKFIT + DEF2-UNIVERSAL-JKFIT
  Basis Set: CC-PVDZ
    Blend: CC-PVDZ
  @DF-UKS Final Energy:  -186.63988683255599
    Total Energy =                       -186.6398868325559874
  @DF-UKS Final Energy:  -186.75082445798949
    Total Energy =                       -186.7508244579894949
  @DF-UKS Final Energy:  -186.81415265813129
    Total Energy =                       -186.8141526581312917
  @DF-UKS Final Energy:  -186.84003696263898
    Total Energy =                       -186.8400369626389761
  @DF-UKS Final Energy:  -186.85040483682482
    Total Energy =                       -186.8504048368248220
  @DF-UKS Final Energy:  -186.85400514662513
    Total Energy =                       -186.8540051466251271
  @DF-UKS Final Energy:  -186.85496734432786
    Total Energy =                       -186.8549673443278607
  @DF-UKS Final Energy:  -186.85509369984308
    Total Energy =                       -186.8550936998430814
  @DF-UKS Final Energy:  -186.85511133165872
    Total Energy =                       -186.8551113316587191
  Basis Set: (CC-PVDZ AUX)
    Blend: CC-PVDZ-JKFIT + DEF2-UNIVERSAL-JKFIT
  Basis Set: CC-PVDZ
    Blend: CC-PVDZ
  Basis Set: (CC-PVDZ AUX)
    Blend: CC-PVDZ-JKFIT + DEF2-UNIVERSAL-JKFIT
  @DF-UKS Final Energy:  -186.85511387445297
    Total Energy =                       -186.8551138744529680
  Basis Set: CC-PVDZ
    Blend: CC-PVDZ
  Basis Set: (CC-PVDZ AUX)
    Blend: CC-PVDZ-JKFIT + DEF2-UNIVERSAL-JKFIT
  Charge       = 0
  Multiplicity = 5
  Basis Set: CC-PVDZ
    Blend: CC-PVDZ
  Basis Set: (CC-PVDZ AUX)
    Blend: CC-PVDZ-JKFIT + DEF2-UNIVERSAL-JKFIT

    Orbital Energies [Eh]
    ---------------------

    Alpha Occupied:

       1A1   -38.515877     2A1    -6.779666     3A1    -2.261128
       4A1    -1.192338     1B2    -1.191968     1B1    -1.191968
       5A1    -0.390365     6A1    -0.162338     2B1    -0.148550
       2B2    -0.148550

    Alpha Virtual:

       7A1    -0.071881     3B1    -0.007604     3B2    -0.007604
       8A1     0.015063     9A1     0.048614     4B1     0.073426
       4B2     0.073426    10A1     0.122202     1A2     0.154474
      11A1     0.154474     5B2     0.187800     5B1     0.187800
      12A1     0.280815     6B1     0.353575     6B2     0.353575
      13A1     0.395910    14A1     0.624884     2A2     0.727691
      15A1     0.727694     7B1     0.796587     7B2     0.796587
      16A1     0.917473

    Beta Occupied:

       1A1   -38.514508     2A1    -6.739912     3A1    -2.258640
       1B2    -1.190228     1B1    -1.190228     4A1    -1.190150

    Beta Virtual:

       5A1    -0.141996     6A1    -0.070193     2B1    -0.010024
       2B2    -0.010024     7A1     0.026896     8A1     0.045054
       9A1     0.065248     3B1     0.071643     3B2     0.071643
       4B1     0.088925     4B2     0.088925    10A1     0.162480
      11A1     0.169959     1A2     0.169963     5B2     0.229136
       5B1     0.229136    12A1     0.331716     6B1     0.450697
       6B2     0.450697    13A1     0.477408    14A1     0.754232
       2A2     0.903377    15A1     0.903444     7B1     0.955619
       7B2     0.955619    16A1     1.030818

    Final Occupation by Irrep:
             A1    A2    B1    B2
    DOCC [     4,    0,    1,    1 ]
    SOCC [     2,    0,    1,    1 ]
    NA   [     6,    0,    2,    2 ]
    NB   [     4,    0,    1,    1 ]

  @DF-UKS Final Energy:  -186.85511428421347

   => Energetics <=

    Nuclear Repulsion Energy =             11.7941630451173136
    One-Electron Energy =                -283.5830136435005215
    Two-Electron Energy =                  99.8095017809300771
    DFT Exchange-Correlation Energy =     -14.8757654667603472
    Empirical Dispersion Energy =           0.0000000000000000
    VV10 Nonlocal Energy =                  0.0000000000000000
    Total Energy =                       -186.8551142842134709

  UHF NO Occupations:
  HONO-2 :    2 B2 1.0000000
  HONO-1 :    5 A1 1.0000000
  HONO-0 :    6 A1 1.0000000
  LUNO+0 :    7 A1 0.0000038
  LUNO+1 :    8 A1 0.0000006
  LUNO+2 :    3 B1 0.0000001
  LUNO+3 :    3 B2 0.0000001

Computation Completed

Properties will be evaluated at   0.000000,   0.000000,   0.000000 [a0]

Properties computed using the SCF density matrix

 Multipole Moments:

 ------------------------------------------------------------------------------------
     Multipole            Electronic (a.u.)      Nuclear  (a.u.)        Total (a.u.)
 ------------------------------------------------------------------------------------

 L = 1.  Multiply by 2.5417464519 to convert [e a0] to [Debye]
 Dipole X            :          0.0000000            0.0000000            0.0000000
 Dipole Y            :          0.0000000            0.0000000            0.0000000
 Dipole Z            :         -1.7486072           -0.8440177           -2.5926249
 Magnitude           :                                                    2.5926249

 ------------------------------------------------------------------------------------

*** tstop() called on Joses-MacBook-Pro-2.local at Wed Jul 16 18:52:39 2025
Module time:
	user time   =       2.31 seconds =       0.04 minutes
	system time =       3.90 seconds =       0.06 minutes
	total time  =          1 seconds =       0.02 minutes
Total time:
	user time   =      56.72 seconds =       0.95 minutes
	system time =      84.50 seconds =       1.41 minutes
	total time  =         16 seconds =       0.27 minutes

*** tstart() called on Joses-MacBook-Pro-2.local
*** at Wed Jul 16 18:52:39 2025

         ------------------------------------------------------------
                                   SCF GRAD
                          Rob Parrish, Justin Turney,
                       Andy Simmonett, and Alex Sokolov
         ------------------------------------------------------------

  ==> Geometry <==

    Molecular point group: c2v
    Full point group: C_inf_v

    Geometry (in Angstrom), charge = 0, multiplicity = 5:

       Center              X                  Y                   Z               Mass
    ------------   -----------------  -----------------  -----------------  -----------------
         B            0.000000000000     0.000000000000     1.668645996853    11.009305360000
         NA           0.000000000000     0.000000000000    -0.799078628922    22.989769282000

  Nuclear repulsion =   11.794163045117314

  ==> Basis Set <==

  Basis Set: CC-PVDZ
    Blend: CC-PVDZ
    Number of shells: 14
    Number of basis functions: 32
    Number of Cartesian functions: 34
    Spherical Harmonics?: true
    Max angular momentum: 2

  ==> DFJKGrad: Density-Fitted SCF Gradients <==

    Gradient:                    1
    J tasked:                  Yes
    K tasked:                  Yes
    wK tasked:                  No
    OpenMP threads:              1
    Integrals threads:           1
    Memory [MiB]:              375
    Schwarz Cutoff:          1E-12
    Fitting Condition:       1E-10

   => Auxiliary Basis Set <=

  Basis Set: (CC-PVDZ AUX)
    Blend: CC-PVDZ-JKFIT + DEF2-UNIVERSAL-JKFIT
    Number of shells: 58
    Number of basis functions: 182
    Number of Cartesian functions: 218
    Spherical Harmonics?: true
    Max angular momentum: 4

  ==> DFT Potential <==

   => LibXC <=

    Version 6.2.2
    S. Lehtola, C. Steigemann, M. J.T. Oliveira, and M. A.L. Marques.,  SoftwareX 7, 1â€“5 (2018) (10.1016/j.softx.2017.11.002)

   => Composite Functional: B3LYP <=

    B3LYP Hyb-GGA Exchange-Correlation Functional

    P. J. Stephens, F. J. Devlin, C. F. Chabalowski, and M. J. Frisch.,  J. Phys. Chem. 98, 11623 (1994) (10.1021/j100096a001)

    Deriv               =              1
    GGA                 =           TRUE
    Meta                =          FALSE

    Exchange Hybrid     =           TRUE
    MP2 Hybrid          =          FALSE

   => Exchange Functionals <=

    0.0800   Slater exchange
    0.7200         Becke 88

   => Exact (HF) Exchange <=

    0.2000               HF

   => Correlation Functionals <=

    0.1900   Vosko, Wilk & Nusair (VWN5_RPA)
    0.8100   Lee, Yang & Parr

   => LibXC Density Thresholds  <==

    XC_HYB_GGA_XC_B3LYP:  1.00E-15

   => Molecular Quadrature <=

    Radial Scheme          =       TREUTLER
    Pruning Scheme         =           NONE
    Nuclear Scheme         =       TREUTLER

    Blocking Scheme        =         OCTREE
    BS radius alpha        =              1
    Pruning alpha          =              1
    Radial Points          =             75
    Spherical Points       =            302
    Total Points           =          43849
    Total Blocks           =            436
    Max Points             =            255
    Max Functions          =             32
    Weights Tolerance      =       1.00E-15

  -Total Gradient:
     Atom            X                  Y                   Z
    ------   -----------------  -----------------  -----------------
       1        0.000000000000    -0.000000000000    -0.000042621394
       2        0.000000000000    -0.000000000000     0.000024296092

*** tstop() called on Joses-MacBook-Pro-2.local at Wed Jul 16 18:52:39 2025
Module time:
	user time   =       1.17 seconds =       0.02 minutes
	system time =       2.19 seconds =       0.04 minutes
	total time  =          0 seconds =       0.00 minutes
Total time:
	user time   =      57.89 seconds =       0.96 minutes
	system time =      86.71 seconds =       1.45 minutes
	total time  =         16 seconds =       0.27 minutes

    			-----------------------------------------

    			 OPTKING 3.0: for geometry optimizations

    			     By R.A. King, Bethel University

    			        with contributions from

    			    A.V. Copan, J. Cayton, A. Heide

    			-----------------------------------------

	                            ===> Fragment 1 <==

	 Z (Atomic Numbers)          Masses                          Geom
	       5.000000            11.009305          0.00000000  0.00000000  3.15328393
	      11.000000            22.989769          0.00000000  0.00000000 -1.51003976

	 - Coordinate -           - BOHR/RAD -       - ANG/DEG -
	 R(1,2)           =         4.663324           2.467725

	        --- Internal Coordinate Step in ANG or DEG, aJ/ANG or AJ/DEG ---
	-------------------------------------------------------------------------------
	           Coordinate      Previous         Force          Change          New
	           ----------      --------        ------          ------        ------
	               R(1,2)       2.46772        0.00028        0.00062       2.46835
	-------------------------------------------------------------------------------

	                                 ==> Convergence Check <==

	Measures of convergence in internal coordinates in au.

	Criteria marked as inactive (o), active & met (*), and active & unmet ( ).

	----------------------------------------------------------------------------------------------
	   Step    Total Energy     Delta E     Max Force     RMS Force      Max Disp      RMS Disp
	----------------------------------------------------------------------------------------------
	  Convergence Criteria     1.00e-06 *    3.00e-04 *             o    1.20e-03 *             o
	----------------------------------------------------------------------------------------------
	    13    -186.85511428   -4.10e-07 *    3.35e-05 *    3.35e-05 o    1.18e-03 *    1.18e-03 o  ~
	----------------------------------------------------------------------------------------------

Next Geometry in Ang
	Fragment 1 (Ang)

	    B   0.0000000000   0.0000000000   1.6689579423
	   Na   0.0000000000   0.0000000000  -0.7993905743

    Final optimized geometry and variables:
    Molecular point group: c2v
    Full point group: C_inf_v

    Geometry (in Angstrom), charge = 0, multiplicity = 5:

    B            0.000000000000     0.000000000000     1.668645996853
    NA           0.000000000000     0.000000000000    -0.799078628922

    Psi4 stopped on: Wednesday, 16 July 2025 06:52PM
    Psi4 wall time for execution: 0:00:16.60

*** Psi4 exiting successfully. Buy a developer a beer!
