                               Psi4 1.9.1 release

  ==> Input File <==

--------------------------------------------------------------------------
molecule {
0 5
B   0.00000        0.60000        0.00000
Cl   0.00000       -0.60000        0.00000
}

set {
basis              cc-pvdz
reference          uks
maxiter            500
geom_maxiter       500
DAMPING_PERCENTAGE 1
guess              SAP
}

optimize('b3lyp')
--------------------------------------------------------------------------

    Molecular point group: c2v
  Charge       = 0
  Multiplicity = 5
  Basis Set: CC-PVDZ
    Blend: CC-PVDZ
  Basis Set: (CC-PVDZ AUX)
    Blend: CC-PVDZ-JKFIT
  @DF-UKS Final Energy:  -484.21497861909580
    Total Energy =                       -484.2149786190958025
 Dipole X            :          0.0000000            0.0000000            0.0000000
 Dipole Y            :          0.0000000            0.0000000            0.0000000
 Dipole Z            :         -0.7429865           -0.6073306           -1.3503171
 Magnitude           :                                                    1.3503171
    Molecular point group: c2v
  Basis Set: CC-PVDZ
    Blend: CC-PVDZ
  Basis Set: (CC-PVDZ AUX)
    Blend: CC-PVDZ-JKFIT
  Basis Set: CC-PVDZ
    Blend: CC-PVDZ
  Basis Set: (CC-PVDZ AUX)
    Blend: CC-PVDZ-JKFIT
  @DF-UKS Final Energy:  -484.48405844921683
    Total Energy =                       -484.4840584492168318
  Basis Set: CC-PVDZ
    Blend: CC-PVDZ
  Basis Set: (CC-PVDZ AUX)
    Blend: CC-PVDZ-JKFIT
  Basis Set: CC-PVDZ
    Blend: CC-PVDZ
  @DF-UKS Final Energy:  -484.60736543258867
    Total Energy =                       -484.6073654325886650
  @DF-UKS Final Energy:  -484.66834935384594
    Total Energy =                       -484.6683493538458833
  @DF-UKS Final Energy:  -484.69612303755218
    Total Energy =                       -484.6961230375521268
  @DF-UKS Final Energy:  -484.70547143736718
    Total Energy =                       -484.7054714373671800
  @DF-UKS Final Energy:  -484.71065655381460
    Total Energy =                       -484.7106565538146015
  @DF-UKS Final Energy:  -484.71294396507886
    Total Energy =                       -484.7129439650788640
  @DF-UKS Final Energy:  -484.71353819285605
    Total Energy =                       -484.7135381928560491
  @DF-UKS Final Energy:  -484.71374874339938
    Total Energy =                       -484.7137487433994352
  @DF-UKS Final Energy:  -484.71379449759132
    Total Energy =                       -484.7137944975913797
  @DF-UKS Final Energy:  -484.71380670223397
    Total Energy =                       -484.7138067022339669
  Basis Set: (CC-PVDZ AUX)
    Blend: CC-PVDZ-JKFIT
  Basis Set: CC-PVDZ
    Blend: CC-PVDZ
  Basis Set: (CC-PVDZ AUX)
    Blend: CC-PVDZ-JKFIT
  @DF-UKS Final Energy:  -484.71380838783239
    Total Energy =                       -484.7138083878323869
  Basis Set: CC-PVDZ
    Blend: CC-PVDZ
  Basis Set: (CC-PVDZ AUX)
    Blend: CC-PVDZ-JKFIT
  Charge       = 0
  Multiplicity = 5
  Basis Set: CC-PVDZ
    Blend: CC-PVDZ
  Basis Set: (CC-PVDZ AUX)
    Blend: CC-PVDZ-JKFIT

    Orbital Energies [Eh]
    ---------------------

    Alpha Occupied:

       1A1  -101.685104     2A1    -9.598005     1B2    -7.370614
       3A1    -7.351929     1B1    -7.346567     4A1    -6.803923
       5A1    -0.937778     6A1    -0.510370     2B2    -0.483916
       2B1    -0.429250     7A1    -0.326453     3B2    -0.166101
       3B1    -0.160688

    Alpha Virtual:

       8A1    -0.000162     9A1     0.262925     4B2     0.294104
       4B1     0.298113    10A1     0.355907    11A1     0.424996
       5B2     0.469689     6B2     0.491576     5B1     0.502518
       6B1     0.518932    12A1     0.576873     1A2     0.577552
      13A1     0.671940     2A2     0.704198    14A1     0.705400
      15A1     0.832412     7B2     0.893037     7B1     0.913266
      16A1     1.217632

    Beta Occupied:

       1A1  -101.676705     2A1    -9.589643     1B2    -7.346556
       3A1    -7.344788     1B1    -7.340825     4A1    -6.769337
       5A1    -0.875987     6A1    -0.462208     2B1    -0.405490

    Beta Virtual:

       2B2    -0.313955     7A1    -0.123601     3B2     0.022342
       3B1     0.022376     8A1     0.066317     9A1     0.289381
       4B2     0.383685     4B1     0.384988    10A1     0.437658
      11A1     0.453922     5B1     0.514697     5B2     0.519296
       6B1     0.566575     6B2     0.570761     1A2     0.645163
      12A1     0.650351    13A1     0.707248     2A2     0.835311
      14A1     0.835678    15A1     0.888470     7B2     0.985223
       7B1     0.985764    16A1     1.275523

    Final Occupation by Irrep:
             A1    A2    B1    B2
    DOCC [     6,    0,    2,    1 ]
    SOCC [     1,    0,    1,    2 ]
    NA   [     7,    0,    3,    3 ]
    NB   [     6,    0,    2,    1 ]

  @DF-UKS Final Energy:  -484.71380846363945

   => Energetics <=

    Nuclear Repulsion Energy =             21.7413752671195972
    One-Electron Energy =                -709.4782968920962958
    Two-Electron Energy =                 228.9395493989553074
    DFT Exchange-Correlation Energy =     -25.9164362376180257
    Empirical Dispersion Energy =           0.0000000000000000
    VV10 Nonlocal Energy =                  0.0000000000000000
    Total Energy =                       -484.7138084636394524

  UHF NO Occupations:
  HONO-2 :    3 B1 1.0000000
  HONO-1 :    2 B2 1.0000000
  HONO-0 :    3 B2 1.0000000
  LUNO+0 :    8 A1 0.0008800
  LUNO+1 :    9 A1 0.0003188
  LUNO+2 :    4 B1 0.0001326
  LUNO+3 :   10 A1 0.0000001

Computation Completed

Properties will be evaluated at   0.000000,   0.000000,   0.000000 [a0]

Properties computed using the SCF density matrix

 Multipole Moments:

 ------------------------------------------------------------------------------------
     Multipole            Electronic (a.u.)      Nuclear  (a.u.)        Total (a.u.)
 ------------------------------------------------------------------------------------

 L = 1.  Multiply by 2.5417464519 to convert [e a0] to [Debye]
 Dipole X            :          0.0000000            0.0000000            0.0000000
 Dipole Y            :          0.0000000            0.0000000            0.0000000
 Dipole Z            :         -0.2154509           -1.0470730           -1.2625238
 Magnitude           :                                                    1.2625238

 ------------------------------------------------------------------------------------

*** tstop() called on Joses-MacBook-Pro-2.local at Wed Jul 16 18:58:04 2025
Module time:
	user time   =       2.49 seconds =       0.04 minutes
	system time =       3.74 seconds =       0.06 minutes
	total time  =          0 seconds =       0.00 minutes
Total time:
	user time   =      63.75 seconds =       1.06 minutes
	system time =      78.77 seconds =       1.31 minutes
	total time  =         15 seconds =       0.25 minutes

*** tstart() called on Joses-MacBook-Pro-2.local
*** at Wed Jul 16 18:58:04 2025

         ------------------------------------------------------------
                                   SCF GRAD
                          Rob Parrish, Justin Turney,
                       Andy Simmonett, and Alex Sokolov
         ------------------------------------------------------------

  ==> Geometry <==

    Molecular point group: c2v
    Full point group: C_inf_v

    Geometry (in Angstrom), charge = 0, multiplicity = 5:

       Center              X                  Y                   Z               Mass
    ------------   -----------------  -----------------  -----------------  -----------------
         B            0.000000000000     0.000000000000     1.573485919541    11.009305360000
         CL           0.000000000000     0.000000000000    -0.495383338007    34.968852682000

  Nuclear repulsion =   21.741375267119597

  ==> Basis Set <==

  Basis Set: CC-PVDZ
    Blend: CC-PVDZ
    Number of shells: 14
    Number of basis functions: 32
    Number of Cartesian functions: 34
    Spherical Harmonics?: true
    Max angular momentum: 2

  ==> DFJKGrad: Density-Fitted SCF Gradients <==

    Gradient:                    1
    J tasked:                  Yes
    K tasked:                  Yes
    wK tasked:                  No
    OpenMP threads:              1
    Integrals threads:           1
    Memory [MiB]:              375
    Schwarz Cutoff:          1E-12
    Fitting Condition:       1E-10

   => Auxiliary Basis Set <=

  Basis Set: (CC-PVDZ AUX)
    Blend: CC-PVDZ-JKFIT
    Number of shells: 60
    Number of basis functions: 182
    Number of Cartesian functions: 211
    Spherical Harmonics?: true
    Max angular momentum: 3

  ==> DFT Potential <==

   => LibXC <=

    Version 6.2.2
    S. Lehtola, C. Steigemann, M. J.T. Oliveira, and M. A.L. Marques.,  SoftwareX 7, 1â€“5 (2018) (10.1016/j.softx.2017.11.002)

   => Composite Functional: B3LYP <=

    B3LYP Hyb-GGA Exchange-Correlation Functional

    P. J. Stephens, F. J. Devlin, C. F. Chabalowski, and M. J. Frisch.,  J. Phys. Chem. 98, 11623 (1994) (10.1021/j100096a001)

    Deriv               =              1
    GGA                 =           TRUE
    Meta                =          FALSE

    Exchange Hybrid     =           TRUE
    MP2 Hybrid          =          FALSE

   => Exchange Functionals <=

    0.0800   Slater exchange
    0.7200         Becke 88

   => Exact (HF) Exchange <=

    0.2000               HF

   => Correlation Functionals <=

    0.1900   Vosko, Wilk & Nusair (VWN5_RPA)
    0.8100   Lee, Yang & Parr

   => LibXC Density Thresholds  <==

    XC_HYB_GGA_XC_B3LYP:  1.00E-15

   => Molecular Quadrature <=

    Radial Scheme          =       TREUTLER
    Pruning Scheme         =           NONE
    Nuclear Scheme         =       TREUTLER

    Blocking Scheme        =         OCTREE
    BS radius alpha        =              1
    Pruning alpha          =              1
    Radial Points          =             75
    Spherical Points       =            302
    Total Points           =          42024
    Total Blocks           =            385
    Max Points             =            256
    Max Functions          =             32
    Weights Tolerance      =       1.00E-15

  -Total Gradient:
     Atom            X                  Y                   Z
    ------   -----------------  -----------------  -----------------
       1        0.000000000000     0.000000000000    -0.000010559947
       2        0.000000000000    -0.000000000000     0.000015204604

*** tstop() called on Joses-MacBook-Pro-2.local at Wed Jul 16 18:58:05 2025
Module time:
	user time   =       1.08 seconds =       0.02 minutes
	system time =       1.16 seconds =       0.02 minutes
	total time  =          1 seconds =       0.02 minutes
Total time:
	user time   =      64.83 seconds =       1.08 minutes
	system time =      79.94 seconds =       1.33 minutes
	total time  =         16 seconds =       0.27 minutes

    			-----------------------------------------

    			 OPTKING 3.0: for geometry optimizations

    			     By R.A. King, Bethel University

    			        with contributions from

    			    A.V. Copan, J. Cayton, A. Heide

    			-----------------------------------------

	                            ===> Fragment 1 <==

	 Z (Atomic Numbers)          Masses                          Geom
	       5.000000            11.009305          0.00000000  0.00000000  2.97345745
	      17.000000            34.968853          0.00000000  0.00000000 -0.93613884

	 - Coordinate -           - BOHR/RAD -       - ANG/DEG -
	 R(1,2)           =         3.909596           2.068869

	        --- Internal Coordinate Step in ANG or DEG, aJ/ANG or AJ/DEG ---
	-------------------------------------------------------------------------------
	           Coordinate      Previous         Force          Change          New
	           ----------      --------        ------          ------        ------
	               R(1,2)       2.06887        0.00011        0.00012       2.06899
	-------------------------------------------------------------------------------

	                                 ==> Convergence Check <==

	Measures of convergence in internal coordinates in au.

	Criteria marked as inactive (o), active & met (*), and active & unmet ( ).

	----------------------------------------------------------------------------------------------
	   Step    Total Energy     Delta E     Max Force     RMS Force      Max Disp      RMS Disp
	----------------------------------------------------------------------------------------------
	  Convergence Criteria     1.00e-06 *    3.00e-04 *             o    1.20e-03 *             o
	----------------------------------------------------------------------------------------------
	    14    -484.71380846   -7.58e-08 *    1.29e-05 *    1.29e-05 o    2.33e-04 *    2.33e-04 o  ~
	----------------------------------------------------------------------------------------------

Next Geometry in Ang
	Fragment 1 (Ang)

	    B   0.0000000000   0.0000000000   1.5735476143
	   Cl   0.0000000000   0.0000000000  -0.4954450327

    Final optimized geometry and variables:
    Molecular point group: c2v
    Full point group: C_inf_v

    Geometry (in Angstrom), charge = 0, multiplicity = 5:

    B            0.000000000000     0.000000000000     1.573485919541
    CL           0.000000000000     0.000000000000    -0.495383338007

    Psi4 stopped on: Wednesday, 16 July 2025 06:58PM
    Psi4 wall time for execution: 0:00:16.17

*** Psi4 exiting successfully. Buy a developer a beer!
