                               Psi4 1.9.1 release

  ==> Input File <==

--------------------------------------------------------------------------
molecule {
0 5
Ar   0.00000        0.60000        0.00000
Ar   0.00000       -0.60000        0.00000
}

set {
basis              cc-pvdz
reference          uks
maxiter            500
geom_maxiter       500
DAMPING_PERCENTAGE 1
guess              SAP
}

optimize('b3lyp')
--------------------------------------------------------------------------

    Molecular point group: d2h
  Charge       = 0
  Multiplicity = 5
  Basis Set: CC-PVDZ
    Blend: CC-PVDZ
  Basis Set: (CC-PVDZ AUX)
    Blend: CC-PVDZ-JKFIT
  @DF-UKS Final Energy: -1052.34108796886585
    Total Energy =                      -1052.3410879688658497
 Dipole X            :          0.0000000            0.0000000            0.0000000
 Dipole Y            :          0.0000000            0.0000000            0.0000000
 Dipole Z            :          0.0000000            0.0000000            0.0000000
 Magnitude           :                                                    0.0000000
    Molecular point group: d2h
  Basis Set: CC-PVDZ
    Blend: CC-PVDZ
  Basis Set: (CC-PVDZ AUX)
    Blend: CC-PVDZ-JKFIT
  Basis Set: CC-PVDZ
    Blend: CC-PVDZ
  Basis Set: (CC-PVDZ AUX)
    Blend: CC-PVDZ-JKFIT
  @DF-UKS Final Energy: -1052.38297277207221
    Total Energy =                      -1052.3829727720722076
  Basis Set: CC-PVDZ
    Blend: CC-PVDZ
  Basis Set: (CC-PVDZ AUX)
    Blend: CC-PVDZ-JKFIT
  Basis Set: CC-PVDZ
    Blend: CC-PVDZ
  @DF-UKS Final Energy: -1052.45913205140459
    Total Energy =                      -1052.4591320514045947
  @DF-UKS Final Energy: -1052.69498176856700
    Total Energy =                      -1052.6949817685670041
  @DF-UKS Final Energy: -1053.08071910479930
    Total Energy =                      -1053.0807191047993001
  @DF-UKS Final Energy: -1053.19583136713663
    Total Energy =                      -1053.1958313671366341
  @DF-UKS Final Energy: -1053.24466172644725
    Total Energy =                      -1053.2446617264472479
  @DF-UKS Final Energy: -1053.26965117709392
    Total Energy =                      -1053.2696511770939196
  @DF-UKS Final Energy: -1053.29605245193761
    Total Energy =                      -1053.2960524519376122
  @DF-UKS Final Energy: -1053.33662723024941
    Total Energy =                      -1053.3366272302494053
  @DF-UKS Final Energy: -1053.33669875808573
    Total Energy =                      -1053.3366987580857312
  @DF-UKS Final Energy: -1053.33670795370222
    Total Energy =                      -1053.3367079537022164
  Basis Set: (CC-PVDZ AUX)
    Blend: CC-PVDZ-JKFIT
  Basis Set: CC-PVDZ
    Blend: CC-PVDZ
  Basis Set: (CC-PVDZ AUX)
    Blend: CC-PVDZ-JKFIT
  @DF-UKS Final Energy: -1053.33670870311266
    Total Energy =                      -1053.3367087031126630
  Basis Set: CC-PVDZ
    Blend: CC-PVDZ
  Basis Set: (CC-PVDZ AUX)
    Blend: CC-PVDZ-JKFIT
  Charge       = 0
  Multiplicity = 5
  Basis Set: CC-PVDZ
    Blend: CC-PVDZ
  Basis Set: (CC-PVDZ AUX)
    Blend: CC-PVDZ-JKFIT

    Orbital Energies [Eh]
    ---------------------

    Alpha Occupied:

       1B2u -115.177286     1Ag  -115.177286     2B2u  -11.207808
       2Ag   -11.207749     1B3u   -8.767964     1B1g   -8.767962
       3Ag    -8.764681     3B2u   -8.764511     1B1u   -8.750919
       1B3g   -8.750911     4Ag    -1.160749     4B2u   -0.997776
       5Ag    -0.642443     2B3u   -0.573407     2B1u   -0.536675
       2B1g   -0.475365     2B3g   -0.438532     5B2u   -0.320384
       6Ag     0.367164     3B1u    0.439953

    Alpha Virtual:

       6B2u    0.466149     3B3u    0.481618     3B1g    0.555834
       3B3g    0.571057     4B3u    0.616913     7Ag     0.630073
       4B1u    0.644196     1B2g    0.729577     8Ag     0.729607
       7B2u    0.767786     1Au     0.777099     8B2u    0.809039
       9Ag     0.824220     4B1g    0.955413     4B3g    0.976069
       9B2u    1.489326

    Beta Occupied:

       1Ag  -115.162946     1B2u -115.162946     2B2u  -11.193589
       2Ag   -11.193550     1B3u   -8.747690     1B1g   -8.747681
       3Ag    -8.741797     3B2u   -8.741673     1B1u   -8.732402
       1B3g   -8.732395     4Ag    -1.076950     4B2u   -0.909293
       5Ag    -0.541637     2B1u   -0.485399     2B3u   -0.483606
       2B3g   -0.384304

    Beta Virtual:

       2B1g   -0.329734     5B2u   -0.159438     6Ag     0.515088
       6B2u    0.525284     3B3u    0.528774     3B1u    0.547723
       3B1g    0.599986     3B3g    0.613590     7Ag     0.680827
       4B3u    0.681619     4B1u    0.694792     1B2g    0.788832
       8Ag     0.790405     1Au     0.838423     7B2u    0.839094
       8B2u    0.874751     9Ag     0.892112     4B1g    1.025350
       4B3g    1.040104     9B2u    1.563665

    Final Occupation by Irrep:
             Ag   B1g   B2g   B3g    Au   B1u   B2u   B3u
    DOCC [     5,    1,    0,    2,    0,    2,    4,    2 ]
    SOCC [     1,    1,    0,    0,    0,    1,    1,    0 ]
    NA   [     6,    2,    0,    2,    0,    3,    5,    2 ]
    NB   [     5,    1,    0,    2,    0,    2,    4,    2 ]

  @DF-UKS Final Energy: -1053.33670879121814

   => Energetics <=

    Nuclear Repulsion Energy =             90.9777807555890092
    One-Electron Energy =               -1634.5435304459674626
    Two-Electron Energy =                 540.0626062679925781
    DFT Exchange-Correlation Energy =     -49.8335653688323816
    Empirical Dispersion Energy =           0.0000000000000000
    VV10 Nonlocal Energy =                  0.0000000000000000
    Total Energy =                      -1053.3367087912181432

  UHF NO Occupations:
  HONO-2 :    2B1g 1.0000000
  HONO-1 :    6 Ag 1.0000000
  HONO-0 :    3B1u 1.0000000
  LUNO+0 :    3B3u 0.0006461
  LUNO+1 :    3B3g 0.0002847
  LUNO+2 :    7 Ag 0.0002162
  LUNO+3 :    6B2u 0.0001691

Computation Completed

Properties will be evaluated at   0.000000,   0.000000,   0.000000 [a0]

Properties computed using the SCF density matrix

 Multipole Moments:

 ------------------------------------------------------------------------------------
     Multipole            Electronic (a.u.)      Nuclear  (a.u.)        Total (a.u.)
 ------------------------------------------------------------------------------------

 L = 1.  Multiply by 2.5417464519 to convert [e a0] to [Debye]
 Dipole X            :          0.0000000            0.0000000            0.0000000
 Dipole Y            :          0.0000000            0.0000000            0.0000000
 Dipole Z            :          0.0000000            0.0000000            0.0000000
 Magnitude           :                                                    0.0000000

 ------------------------------------------------------------------------------------

*** tstop() called on Joses-MacBook-Pro-2.local at Wed Jul 16 20:35:22 2025
Module time:
	user time   =       5.74 seconds =       0.10 minutes
	system time =       2.27 seconds =       0.04 minutes
	total time  =          1 seconds =       0.02 minutes
Total time:
	user time   =     142.29 seconds =       2.37 minutes
	system time =      47.94 seconds =       0.80 minutes
	total time  =         18 seconds =       0.30 minutes

*** tstart() called on Joses-MacBook-Pro-2.local
*** at Wed Jul 16 20:35:22 2025

         ------------------------------------------------------------
                                   SCF GRAD
                          Rob Parrish, Justin Turney,
                       Andy Simmonett, and Alex Sokolov
         ------------------------------------------------------------

  ==> Geometry <==

    Molecular point group: d2h
    Full point group: D_inf_h

    Geometry (in Angstrom), charge = 0, multiplicity = 5:

       Center              X                  Y                   Z               Mass
    ------------   -----------------  -----------------  -----------------  -----------------
         AR          -0.000000000000     0.942281812290     0.000000000000    39.962383123700
         AR           0.000000000000    -0.942281812290     0.000000000000    39.962383123700

  Nuclear repulsion =   90.977780755589009

  ==> Basis Set <==

  Basis Set: CC-PVDZ
    Blend: CC-PVDZ
    Number of shells: 16
    Number of basis functions: 36
    Number of Cartesian functions: 38
    Spherical Harmonics?: true
    Max angular momentum: 2

  ==> DFJKGrad: Density-Fitted SCF Gradients <==

    Gradient:                    1
    J tasked:                  Yes
    K tasked:                  Yes
    wK tasked:                  No
    OpenMP threads:              1
    Integrals threads:           1
    Memory [MiB]:              375
    Schwarz Cutoff:          1E-12
    Fitting Condition:       1E-10

   => Auxiliary Basis Set <=

  Basis Set: (CC-PVDZ AUX)
    Blend: CC-PVDZ-JKFIT
    Number of shells: 72
    Number of basis functions: 224
    Number of Cartesian functions: 260
    Spherical Harmonics?: true
    Max angular momentum: 3

  ==> DFT Potential <==

   => LibXC <=

    Version 6.2.2
    S. Lehtola, C. Steigemann, M. J.T. Oliveira, and M. A.L. Marques.,  SoftwareX 7, 1â€“5 (2018) (10.1016/j.softx.2017.11.002)

   => Composite Functional: B3LYP <=

    B3LYP Hyb-GGA Exchange-Correlation Functional

    P. J. Stephens, F. J. Devlin, C. F. Chabalowski, and M. J. Frisch.,  J. Phys. Chem. 98, 11623 (1994) (10.1021/j100096a001)

    Deriv               =              1
    GGA                 =           TRUE
    Meta                =          FALSE

    Exchange Hybrid     =           TRUE
    MP2 Hybrid          =          FALSE

   => Exchange Functionals <=

    0.0800   Slater exchange
    0.7200         Becke 88

   => Exact (HF) Exchange <=

    0.2000               HF

   => Correlation Functionals <=

    0.1900   Vosko, Wilk & Nusair (VWN5_RPA)
    0.8100   Lee, Yang & Parr

   => LibXC Density Thresholds  <==

    XC_HYB_GGA_XC_B3LYP:  1.00E-15

   => Molecular Quadrature <=

    Radial Scheme          =       TREUTLER
    Pruning Scheme         =           NONE
    Nuclear Scheme         =       TREUTLER

    Blocking Scheme        =         OCTREE
    BS radius alpha        =              1
    Pruning alpha          =              1
    Radial Points          =             75
    Spherical Points       =            302
    Total Points           =          39090
    Total Blocks           =            364
    Max Points             =            256
    Max Functions          =             36
    Weights Tolerance      =       1.00E-15

  -Total Gradient:
     Atom            X                  Y                   Z
    ------   -----------------  -----------------  -----------------
       1       -0.000000000000     0.000067564413     0.000000000000
       2        0.000000000000    -0.000067564413     0.000000000000

*** tstop() called on Joses-MacBook-Pro-2.local at Wed Jul 16 20:35:22 2025
Module time:
	user time   =       1.72 seconds =       0.03 minutes
	system time =       1.58 seconds =       0.03 minutes
	total time  =          0 seconds =       0.00 minutes
Total time:
	user time   =     144.01 seconds =       2.40 minutes
	system time =      49.53 seconds =       0.83 minutes
	total time  =         18 seconds =       0.30 minutes

    			-----------------------------------------

    			 OPTKING 3.0: for geometry optimizations

    			     By R.A. King, Bethel University

    			        with contributions from

    			    A.V. Copan, J. Cayton, A. Heide

    			-----------------------------------------

	                            ===> Fragment 1 <==

	 Z (Atomic Numbers)          Masses                          Geom
	      18.000000            39.962383         -0.00000000  1.78065456  0.00000000
	      18.000000            39.962383          0.00000000 -1.78065456  0.00000000

	 - Coordinate -           - BOHR/RAD -       - ANG/DEG -
	 R(1,2)           =         3.561309           1.884564

	        --- Internal Coordinate Step in ANG or DEG, aJ/ANG or AJ/DEG ---
	-------------------------------------------------------------------------------
	           Coordinate      Previous         Force          Change          New
	           ----------      --------        ------          ------        ------
	               R(1,2)       1.88456       -0.00056       -0.00006       1.88450
	-------------------------------------------------------------------------------

	                                 ==> Convergence Check <==

	Measures of convergence in internal coordinates in au.

	Criteria marked as inactive (o), active & met (*), and active & unmet ( ).

	----------------------------------------------------------------------------------------------
	   Step    Total Energy     Delta E     Max Force     RMS Force      Max Disp      RMS Disp
	----------------------------------------------------------------------------------------------
	  Convergence Criteria     1.00e-06 *    3.00e-04 *             o    1.20e-03 *             o
	----------------------------------------------------------------------------------------------
	    14   -1053.33670879   -8.81e-08 *    6.76e-05 *    6.76e-05 o    1.21e-04 *    1.21e-04 o  ~
	----------------------------------------------------------------------------------------------

Next Geometry in Ang
	Fragment 1 (Ang)

	   Ar  -0.0000000000   0.9422498814   0.0000000000
	   Ar   0.0000000000  -0.9422498814   0.0000000000

    Final optimized geometry and variables:
    Molecular point group: d2h
    Full point group: D_inf_h

    Geometry (in Angstrom), charge = 0, multiplicity = 5:

    AR          -0.000000000000     0.942281812290     0.000000000000
    AR           0.000000000000    -0.942281812290     0.000000000000

    Psi4 stopped on: Wednesday, 16 July 2025 08:35PM
    Psi4 wall time for execution: 0:00:18.89

*** Psi4 exiting successfully. Buy a developer a beer!
