                               Psi4 1.9.1 release

  ==> Input File <==

--------------------------------------------------------------------------
molecule {
0 5
C   0.00000        0.60000        0.00000
Si   0.00000       -0.60000        0.00000
}

set {
basis              cc-pvdz
reference          uks
maxiter            500
geom_maxiter       500
DAMPING_PERCENTAGE 1
guess              SAP
}

optimize('b3lyp')
--------------------------------------------------------------------------

    Molecular point group: c2v
  Charge       = 0
  Multiplicity = 5
  Basis Set: CC-PVDZ
    Blend: CC-PVDZ
  Basis Set: (CC-PVDZ AUX)
    Blend: CC-PVDZ-JKFIT
  @DF-UKS Final Energy:  -326.78438135016484
    Total Energy =                       -326.7843813501648356
 Dipole X            :          0.0000000            0.0000000            0.0000000
 Dipole Y            :          0.0000000            0.0000000            0.0000000
 Dipole Z            :         -0.2075849           -0.0078530           -0.2154379
 Magnitude           :                                                    0.2154379
    Molecular point group: c2v
  Basis Set: CC-PVDZ
    Blend: CC-PVDZ
  Basis Set: (CC-PVDZ AUX)
    Blend: CC-PVDZ-JKFIT
  Basis Set: CC-PVDZ
    Blend: CC-PVDZ
  Basis Set: (CC-PVDZ AUX)
    Blend: CC-PVDZ-JKFIT
  @DF-UKS Final Energy:  -327.02159443697172
    Total Energy =                       -327.0215944369717249
  Basis Set: CC-PVDZ
    Blend: CC-PVDZ
  Basis Set: (CC-PVDZ AUX)
    Blend: CC-PVDZ-JKFIT
  Basis Set: CC-PVDZ
    Blend: CC-PVDZ
  @DF-UKS Final Energy:  -327.19217872674488
    Total Energy =                       -327.1921787267448849
  @DF-UKS Final Energy:  -327.28298268462095
    Total Energy =                       -327.2829826846208903
  @DF-UKS Final Energy:  -327.31099587713913
    Total Energy =                       -327.3109958771391348
  @DF-UKS Final Energy:  -327.32230503589574
    Total Energy =                       -327.3223050358957380
  @DF-UKS Final Energy:  -327.32475454573205
    Total Energy =                       -327.3247545457320484
  @DF-UKS Final Energy:  -327.32550650070556
    Total Energy =                       -327.3255065007055578
  @DF-UKS Final Energy:  -327.32561971674943
    Total Energy =                       -327.3256197167494292
  @DF-UKS Final Energy:  -327.32563823446446
    Total Energy =                       -327.3256382344644635
  Basis Set: (CC-PVDZ AUX)
    Blend: CC-PVDZ-JKFIT
  Basis Set: CC-PVDZ
    Blend: CC-PVDZ
  Basis Set: (CC-PVDZ AUX)
    Blend: CC-PVDZ-JKFIT
  @DF-UKS Final Energy:  -327.32564179638706
    Total Energy =                       -327.3256417963871172
  Basis Set: CC-PVDZ
    Blend: CC-PVDZ
  Basis Set: (CC-PVDZ AUX)
    Blend: CC-PVDZ-JKFIT
  Charge       = 0
  Multiplicity = 5
  Basis Set: CC-PVDZ
    Blend: CC-PVDZ
  Basis Set: (CC-PVDZ AUX)
    Blend: CC-PVDZ-JKFIT

    Orbital Energies [Eh]
    ---------------------

    Alpha Occupied:

       1A1   -66.188328     2A1   -10.261341     3A1    -5.329201
       1B2    -3.690215     4A1    -3.687400     1B1    -3.687085
       5A1    -0.646902     6A1    -0.437866     2B1    -0.283589
       7A1    -0.283525     2B2    -0.270316     3B1    -0.162867

    Alpha Virtual:

       3B2    -0.103051     8A1     0.023733     9A1     0.233096
       4B1     0.288112     4B2     0.290598    10A1     0.303156
       1A2     0.327134    11A1     0.329734     5B1     0.360158
       5B2     0.365134    12A1     0.421385     6B1     0.511135
       6B2     0.514728    13A1     0.641113    14A1     0.823932
       2A2     1.128172    15A1     1.128787     7B2     1.246440
       7B1     1.246707    16A1     1.571955

    Beta Occupied:

       1A1   -66.183192     2A1   -10.228494     3A1    -5.323459
       1B2    -3.684653     4A1    -3.680502     1B1    -3.674337
       5A1    -0.538813     6A1    -0.345931

    Beta Virtual:

       2B2    -0.143902     7A1    -0.136596     2B1    -0.122297
       3B2    -0.029454     3B1    -0.008216     8A1     0.070901
       9A1     0.260459     4B2     0.309067     4B1     0.327497
      10A1     0.338888     1A2     0.385123    11A1     0.385213
       5B2     0.412664     5B1     0.434644    12A1     0.476281
       6B2     0.571474     6B1     0.584736    13A1     0.701140
      14A1     0.886340     2A2     1.234554    15A1     1.234581
       7B2     1.334276     7B1     1.349489    16A1     1.654139

    Final Occupation by Irrep:
             A1    A2    B1    B2
    DOCC [     6,    0,    1,    1 ]
    SOCC [     1,    0,    2,    1 ]
    NA   [     7,    0,    3,    2 ]
    NB   [     6,    0,    1,    1 ]

  @DF-UKS Final Energy:  -327.32564200621084

   => Energetics <=

    Nuclear Repulsion Energy =             22.3595646341816519
    One-Electron Energy =                -495.7322877616728647
    Two-Electron Energy =                 167.1204307012987726
    DFT Exchange-Correlation Energy =     -21.0733495800183768
    Empirical Dispersion Energy =           0.0000000000000000
    VV10 Nonlocal Energy =                  0.0000000000000000
    Total Energy =                       -327.3256420062107850

  UHF NO Occupations:
  HONO-2 :    2 B1 1.0000000
  HONO-1 :    7 A1 1.0000000
  HONO-0 :    3 B1 1.0000000
  LUNO+0 :    8 A1 0.0011615
  LUNO+1 :    9 A1 0.0004766
  LUNO+2 :   10 A1 0.0000002
  LUNO+3 :   11 A1 0.0000000

Computation Completed

Properties will be evaluated at   0.000000,   0.000000,   0.000000 [a0]

Properties computed using the SCF density matrix

 Multipole Moments:

 ------------------------------------------------------------------------------------
     Multipole            Electronic (a.u.)      Nuclear  (a.u.)        Total (a.u.)
 ------------------------------------------------------------------------------------

 L = 1.  Multiply by 2.5417464519 to convert [e a0] to [Debye]
 Dipole X            :          0.0000000            0.0000000            0.0000000
 Dipole Y            :          0.0000000            0.0000000            0.0000000
 Dipole Z            :         -0.4016372           -0.0130098           -0.4146470
 Magnitude           :                                                    0.4146470

 ------------------------------------------------------------------------------------

*** tstop() called on Joses-MacBook-Pro-2.local at Wed Jul 16 19:04:07 2025
Module time:
	user time   =       3.19 seconds =       0.05 minutes
	system time =       3.05 seconds =       0.05 minutes
	total time  =          0 seconds =       0.00 minutes
Total time:
	user time   =      57.26 seconds =       0.95 minutes
	system time =      62.85 seconds =       1.05 minutes
	total time  =         11 seconds =       0.18 minutes

*** tstart() called on Joses-MacBook-Pro-2.local
*** at Wed Jul 16 19:04:07 2025

         ------------------------------------------------------------
                                   SCF GRAD
                          Rob Parrish, Justin Turney,
                       Andy Simmonett, and Alex Sokolov
         ------------------------------------------------------------

  ==> Geometry <==

    Molecular point group: c2v
    Full point group: C_inf_v

    Geometry (in Angstrom), charge = 0, multiplicity = 5:

       Center              X                  Y                   Z               Mass
    ------------   -----------------  -----------------  -----------------  -----------------
         C            0.000000000000     0.000000000000     1.391258004653    12.000000000000
         SI           0.000000000000     0.000000000000    -0.596745179824    27.976926534650

  Nuclear repulsion =   22.359564634181652

  ==> Basis Set <==

  Basis Set: CC-PVDZ
    Blend: CC-PVDZ
    Number of shells: 14
    Number of basis functions: 32
    Number of Cartesian functions: 34
    Spherical Harmonics?: true
    Max angular momentum: 2

  ==> DFJKGrad: Density-Fitted SCF Gradients <==

    Gradient:                    1
    J tasked:                  Yes
    K tasked:                  Yes
    wK tasked:                  No
    OpenMP threads:              1
    Integrals threads:           1
    Memory [MiB]:              375
    Schwarz Cutoff:          1E-12
    Fitting Condition:       1E-10

   => Auxiliary Basis Set <=

  Basis Set: (CC-PVDZ AUX)
    Blend: CC-PVDZ-JKFIT
    Number of shells: 60
    Number of basis functions: 182
    Number of Cartesian functions: 211
    Spherical Harmonics?: true
    Max angular momentum: 3

  ==> DFT Potential <==

   => LibXC <=

    Version 6.2.2
    S. Lehtola, C. Steigemann, M. J.T. Oliveira, and M. A.L. Marques.,  SoftwareX 7, 1â€“5 (2018) (10.1016/j.softx.2017.11.002)

   => Composite Functional: B3LYP <=

    B3LYP Hyb-GGA Exchange-Correlation Functional

    P. J. Stephens, F. J. Devlin, C. F. Chabalowski, and M. J. Frisch.,  J. Phys. Chem. 98, 11623 (1994) (10.1021/j100096a001)

    Deriv               =              1
    GGA                 =           TRUE
    Meta                =          FALSE

    Exchange Hybrid     =           TRUE
    MP2 Hybrid          =          FALSE

   => Exchange Functionals <=

    0.0800   Slater exchange
    0.7200         Becke 88

   => Exact (HF) Exchange <=

    0.2000               HF

   => Correlation Functionals <=

    0.1900   Vosko, Wilk & Nusair (VWN5_RPA)
    0.8100   Lee, Yang & Parr

   => LibXC Density Thresholds  <==

    XC_HYB_GGA_XC_B3LYP:  1.00E-15

   => Molecular Quadrature <=

    Radial Scheme          =       TREUTLER
    Pruning Scheme         =           NONE
    Nuclear Scheme         =       TREUTLER

    Blocking Scheme        =         OCTREE
    BS radius alpha        =              1
    Pruning alpha          =              1
    Radial Points          =             75
    Spherical Points       =            302
    Total Points           =          42467
    Total Blocks           =            388
    Max Points             =            256
    Max Functions          =             32
    Weights Tolerance      =       1.00E-15

  -Total Gradient:
     Atom            X                  Y                   Z
    ------   -----------------  -----------------  -----------------
       1        0.000000000000     0.000000000000    -0.000038316082
       2        0.000000000000     0.000000000000     0.000024780830

*** tstop() called on Joses-MacBook-Pro-2.local at Wed Jul 16 19:04:08 2025
Module time:
	user time   =       0.98 seconds =       0.02 minutes
	system time =       1.46 seconds =       0.02 minutes
	total time  =          1 seconds =       0.02 minutes
Total time:
	user time   =      58.25 seconds =       0.97 minutes
	system time =      64.31 seconds =       1.07 minutes
	total time  =         12 seconds =       0.20 minutes

    			-----------------------------------------

    			 OPTKING 3.0: for geometry optimizations

    			     By R.A. King, Bethel University

    			        with contributions from

    			    A.V. Copan, J. Cayton, A. Heide

    			-----------------------------------------

	                            ===> Fragment 1 <==

	 Z (Atomic Numbers)          Masses                          Geom
	       6.000000            12.000000          0.00000000  0.00000000  2.62909660
	      14.000000            27.976927          0.00000000  0.00000000 -1.12768496

	 - Coordinate -           - BOHR/RAD -       - ANG/DEG -
	 R(1,2)           =         3.756782           1.988003

	        --- Internal Coordinate Step in ANG or DEG, aJ/ANG or AJ/DEG ---
	-------------------------------------------------------------------------------
	           Coordinate      Previous         Force          Change          New
	           ----------      --------        ------          ------        ------
	               R(1,2)       1.98800        0.00026        0.00014       1.98814
	-------------------------------------------------------------------------------

	                                 ==> Convergence Check <==

	Measures of convergence in internal coordinates in au.

	Criteria marked as inactive (o), active & met (*), and active & unmet ( ).

	----------------------------------------------------------------------------------------------
	   Step    Total Energy     Delta E     Max Force     RMS Force      Max Disp      RMS Disp
	----------------------------------------------------------------------------------------------
	  Convergence Criteria     1.00e-06 *    3.00e-04 *             o    1.20e-03 *             o
	----------------------------------------------------------------------------------------------
	    12    -327.32564201   -2.10e-07 *    3.15e-05 *    3.15e-05 o    2.56e-04 *    2.56e-04 o  ~
	----------------------------------------------------------------------------------------------

Next Geometry in Ang
	Fragment 1 (Ang)

	    C   0.0000000000   0.0000000000   1.3913257687
	   Si   0.0000000000   0.0000000000  -0.5968129439

    Final optimized geometry and variables:
    Molecular point group: c2v
    Full point group: C_inf_v

    Geometry (in Angstrom), charge = 0, multiplicity = 5:

    C            0.000000000000     0.000000000000     1.391258004653
    SI           0.000000000000     0.000000000000    -0.596745179824

    Psi4 stopped on: Wednesday, 16 July 2025 07:04PM
    Psi4 wall time for execution: 0:00:12.28

*** Psi4 exiting successfully. Buy a developer a beer!
