                               Psi4 1.9.1 release

  ==> Input File <==

--------------------------------------------------------------------------
molecule {
0 5
He   0.00000        0.60000        0.00000
Mg   0.00000       -0.60000        0.00000
}

set {
basis              cc-pvdz
reference          uks
maxiter            500
geom_maxiter       500
DAMPING_PERCENTAGE 1
guess              SAP
}

optimize('b3lyp')
--------------------------------------------------------------------------

    Molecular point group: c2v
  Charge       = 0
  Multiplicity = 5
  Basis Set: CC-PVDZ
    Blend: CC-PVDZ
  Basis Set: (CC-PVDZ AUX)
    Blend: DEF2-UNIVERSAL-JKFIT
  @DF-UKS Final Energy:  -201.87860038522990
    Total Energy =                       -201.8786003852299302
 Dipole X            :          0.0000000            0.0000000            0.0000000
 Dipole Y            :          0.0000000            0.0000000            0.0000000
 Dipole Z            :          1.0488005           -0.0049551            1.0438455
 Magnitude           :                                                    1.0438455
    Molecular point group: c2v
  Basis Set: CC-PVDZ
    Blend: CC-PVDZ
  Basis Set: (CC-PVDZ AUX)
    Blend: DEF2-UNIVERSAL-JKFIT
  Basis Set: CC-PVDZ
    Blend: CC-PVDZ
  Basis Set: (CC-PVDZ AUX)
    Blend: DEF2-UNIVERSAL-JKFIT
  @DF-UKS Final Energy:  -202.00242450548808
    Total Energy =                       -202.0024245054881078
  Basis Set: CC-PVDZ
    Blend: CC-PVDZ
  Basis Set: (CC-PVDZ AUX)
    Blend: DEF2-UNIVERSAL-JKFIT
  Basis Set: CC-PVDZ
    Blend: CC-PVDZ
  @DF-UKS Final Energy:  -202.05659213066565
    Total Energy =                       -202.0565921306656776
  @DF-UKS Final Energy:  -202.09630518553459
    Total Energy =                       -202.0963051855345896
  @DF-UKS Final Energy:  -202.11602236482614
    Total Energy =                       -202.1160223648261365
  @DF-UKS Final Energy:  -202.12367040350506
    Total Energy =                       -202.1236704035050593
  @DF-UKS Final Energy:  -202.12581597048802
    Total Energy =                       -202.1258159704880200
  @DF-UKS Final Energy:  -202.12616688166179
    Total Energy =                       -202.1261668816617885
  @DF-UKS Final Energy:  -202.12618711980934
    Total Energy =                       -202.1261871198093445
  Basis Set: (CC-PVDZ AUX)
    Blend: DEF2-UNIVERSAL-JKFIT
  Basis Set: CC-PVDZ
    Blend: CC-PVDZ
  Basis Set: (CC-PVDZ AUX)
    Blend: DEF2-UNIVERSAL-JKFIT
  @DF-UKS Final Energy:  -202.12618822186448
    Total Energy =                       -202.1261882218644814
  Basis Set: CC-PVDZ
    Blend: CC-PVDZ
  Basis Set: (CC-PVDZ AUX)
    Blend: DEF2-UNIVERSAL-JKFIT
  Charge       = 0
  Multiplicity = 5
  Basis Set: CC-PVDZ
    Blend: CC-PVDZ
  Basis Set: (CC-PVDZ AUX)
    Blend: DEF2-UNIVERSAL-JKFIT

    Orbital Energies [Eh]
    ---------------------

    Alpha Occupied:

       1A1   -46.831822     2A1    -3.116018     3A1    -1.862456
       1B1    -1.858219     1B2    -1.858219     4A1    -1.445287
       5A1    -0.246257     2B1    -0.092233     2B2    -0.092233

    Alpha Virtual:

       6A1    -0.060676     7A1     0.054166     8A1     0.132952
       3B1     0.146703     3B2     0.146703     9A1     0.277753
       4B1     0.284449     4B2     0.284449    10A1     0.301772
       1A2     0.301772    11A1     0.752984     5B2     1.517844
       5B1     1.517844    12A1     1.577283

    Beta Occupied:

       1A1   -46.827100     2A1    -3.108511     3A1    -1.857599
       1B1    -1.850398     1B2    -1.850398

    Beta Virtual:

       4A1    -0.804166     5A1    -0.114644     6A1    -0.008658
       2B1     0.016525     2B2     0.016525     7A1     0.104758
       8A1     0.158128     3B1     0.196231     3B2     0.196231
       9A1     0.335287     4B1     0.341570     4B2     0.341570
      10A1     0.379399     1A2     0.379399    11A1     1.032010
       5B1     1.867103     5B2     1.867103    12A1     1.916201

    Final Occupation by Irrep:
             A1    A2    B1    B2
    DOCC [     3,    0,    1,    1 ]
    SOCC [     2,    0,    1,    1 ]
    NA   [     5,    0,    2,    2 ]
    NB   [     3,    0,    1,    1 ]

  @DF-UKS Final Energy:  -202.12618826770282

   => Energetics <=

    Nuclear Repulsion Energy =              4.8439230153140915
    One-Electron Energy =                -291.1162757872141356
    Two-Electron Energy =                  98.0427168314712389
    DFT Exchange-Correlation Energy =     -13.8965523272740139
    Empirical Dispersion Energy =           0.0000000000000000
    VV10 Nonlocal Energy =                  0.0000000000000000
    Total Energy =                       -202.1261882677028154

  UHF NO Occupations:
  HONO-2 :    2 B2 1.0000000
  HONO-1 :    5 A1 1.0000000
  HONO-0 :    2 B1 1.0000000
  LUNO+0 :    6 A1 0.0000010
  LUNO+1 :    3 B2 0.0000004
  LUNO+2 :    3 B1 0.0000004
  LUNO+3 :    7 A1 0.0000001

Computation Completed

Properties will be evaluated at   0.000000,   0.000000,   0.000000 [a0]

Properties computed using the SCF density matrix

 Multipole Moments:

 ------------------------------------------------------------------------------------
     Multipole            Electronic (a.u.)      Nuclear  (a.u.)        Total (a.u.)
 ------------------------------------------------------------------------------------

 L = 1.  Multiply by 2.5417464519 to convert [e a0] to [Debye]
 Dipole X            :          0.0000000            0.0000000            0.0000000
 Dipole Y            :          0.0000000            0.0000000            0.0000000
 Dipole Z            :          3.5414960           -0.0108264            3.5306695
 Magnitude           :                                                    3.5306695

 ------------------------------------------------------------------------------------

*** tstop() called on Joses-MacBook-Pro-2.local at Wed Jul 16 18:23:15 2025
Module time:
	user time   =       1.66 seconds =       0.03 minutes
	system time =       2.91 seconds =       0.05 minutes
	total time  =          1 seconds =       0.02 minutes
Total time:
	user time   =      42.27 seconds =       0.70 minutes
	system time =      46.37 seconds =       0.77 minutes
	total time  =          9 seconds =       0.15 minutes

*** tstart() called on Joses-MacBook-Pro-2.local
*** at Wed Jul 16 18:23:15 2025

         ------------------------------------------------------------
                                   SCF GRAD
                          Rob Parrish, Justin Turney,
                       Andy Simmonett, and Alex Sokolov
         ------------------------------------------------------------

  ==> Geometry <==

    Molecular point group: c2v
    Full point group: C_inf_v

    Geometry (in Angstrom), charge = 0, multiplicity = 5:

       Center              X                  Y                   Z               Mass
    ------------   -----------------  -----------------  -----------------  -----------------
         HE           0.000000000000     0.000000000000     2.246928558514     4.002603254130
         MG           0.000000000000     0.000000000000    -0.374965516997    23.985041697000

  Nuclear repulsion =    4.843923015314092

  ==> Basis Set <==

  Basis Set: CC-PVDZ
    Blend: CC-PVDZ
    Number of shells: 11
    Number of basis functions: 23
    Number of Cartesian functions: 24
    Spherical Harmonics?: true
    Max angular momentum: 2

  ==> DFJKGrad: Density-Fitted SCF Gradients <==

    Gradient:                    1
    J tasked:                  Yes
    K tasked:                  Yes
    wK tasked:                  No
    OpenMP threads:              1
    Integrals threads:           1
    Memory [MiB]:              375
    Schwarz Cutoff:          1E-12
    Fitting Condition:       1E-10

   => Auxiliary Basis Set <=

  Basis Set: (CC-PVDZ AUX)
    Blend: DEF2-UNIVERSAL-JKFIT
    Number of shells: 43
    Number of basis functions: 135
    Number of Cartesian functions: 162
    Spherical Harmonics?: true
    Max angular momentum: 4

  ==> DFT Potential <==

   => LibXC <=

    Version 6.2.2
    S. Lehtola, C. Steigemann, M. J.T. Oliveira, and M. A.L. Marques.,  SoftwareX 7, 1â€“5 (2018) (10.1016/j.softx.2017.11.002)

   => Composite Functional: B3LYP <=

    B3LYP Hyb-GGA Exchange-Correlation Functional

    P. J. Stephens, F. J. Devlin, C. F. Chabalowski, and M. J. Frisch.,  J. Phys. Chem. 98, 11623 (1994) (10.1021/j100096a001)

    Deriv               =              1
    GGA                 =           TRUE
    Meta                =          FALSE

    Exchange Hybrid     =           TRUE
    MP2 Hybrid          =          FALSE

   => Exchange Functionals <=

    0.0800   Slater exchange
    0.7200         Becke 88

   => Exact (HF) Exchange <=

    0.2000               HF

   => Correlation Functionals <=

    0.1900   Vosko, Wilk & Nusair (VWN5_RPA)
    0.8100   Lee, Yang & Parr

   => LibXC Density Thresholds  <==

    XC_HYB_GGA_XC_B3LYP:  1.00E-15

   => Molecular Quadrature <=

    Radial Scheme          =       TREUTLER
    Pruning Scheme         =           NONE
    Nuclear Scheme         =       TREUTLER

    Blocking Scheme        =         OCTREE
    BS radius alpha        =              1
    Pruning alpha          =              1
    Radial Points          =             75
    Spherical Points       =            302
    Total Points           =          43497
    Total Blocks           =            406
    Max Points             =            253
    Max Functions          =             23
    Weights Tolerance      =       1.00E-15

  -Total Gradient:
     Atom            X                  Y                   Z
    ------   -----------------  -----------------  -----------------
       1        0.000000000000    -0.000000000000    -0.000021857277
       2        0.000000000000     0.000000000000     0.000006127895

*** tstop() called on Joses-MacBook-Pro-2.local at Wed Jul 16 18:23:15 2025
Module time:
	user time   =       0.54 seconds =       0.01 minutes
	system time =       1.58 seconds =       0.03 minutes
	total time  =          0 seconds =       0.00 minutes
Total time:
	user time   =      42.81 seconds =       0.71 minutes
	system time =      47.95 seconds =       0.80 minutes
	total time  =          9 seconds =       0.15 minutes

    			-----------------------------------------

    			 OPTKING 3.0: for geometry optimizations

    			     By R.A. King, Bethel University

    			        with contributions from

    			    A.V. Copan, J. Cayton, A. Heide

    			-----------------------------------------

	                            ===> Fragment 1 <==

	 Z (Atomic Numbers)          Masses                          Geom
	       2.000000             4.002603          0.00000000  0.00000000  4.24607960
	      12.000000            23.985042          0.00000000  0.00000000 -0.70858213

	 - Coordinate -           - BOHR/RAD -       - ANG/DEG -
	 R(1,2)           =         4.954662           2.621894

	        --- Internal Coordinate Step in ANG or DEG, aJ/ANG or AJ/DEG ---
	-------------------------------------------------------------------------------
	           Coordinate      Previous         Force          Change          New
	           ----------      --------        ------          ------        ------
	               R(1,2)       2.62189        0.00012        0.00027       2.62217
	-------------------------------------------------------------------------------

	                                 ==> Convergence Check <==

	Measures of convergence in internal coordinates in au.

	Criteria marked as inactive (o), active & met (*), and active & unmet ( ).

	----------------------------------------------------------------------------------------------
	   Step    Total Energy     Delta E     Max Force     RMS Force      Max Disp      RMS Disp
	----------------------------------------------------------------------------------------------
	  Convergence Criteria     1.00e-06 *    3.00e-04 *             o    1.20e-03 *             o
	----------------------------------------------------------------------------------------------
	    11    -202.12618827   -4.58e-08 *    1.40e-05 *    1.40e-05 o    5.13e-04 *    5.13e-04 o  ~
	----------------------------------------------------------------------------------------------

Next Geometry in Ang
	Fragment 1 (Ang)

	   He   0.0000000000   0.0000000000   2.2470643201
	   Mg   0.0000000000   0.0000000000  -0.3751012786

    Final optimized geometry and variables:
    Molecular point group: c2v
    Full point group: C_inf_v

    Geometry (in Angstrom), charge = 0, multiplicity = 5:

    HE           0.000000000000     0.000000000000     2.246928558514
    MG           0.000000000000     0.000000000000    -0.374965516997

    Psi4 stopped on: Wednesday, 16 July 2025 06:23PM
    Psi4 wall time for execution: 0:00:09.65

*** Psi4 exiting successfully. Buy a developer a beer!
