                               Psi4 1.9.1 release

  ==> Input File <==

--------------------------------------------------------------------------
molecule {
0 5
O   0.00000        0.60000        0.00000
Si   0.00000       -0.60000        0.00000
}

set {
basis              cc-pvdz
reference          uks
maxiter            500
geom_maxiter       500
DAMPING_PERCENTAGE 1
guess              SAP
}

optimize('b3lyp')
--------------------------------------------------------------------------

    Molecular point group: c2v
  Charge       = 0
  Multiplicity = 5
  Basis Set: CC-PVDZ
    Blend: CC-PVDZ
  Basis Set: (CC-PVDZ AUX)
    Blend: CC-PVDZ-JKFIT
  @DF-UKS Final Energy:  -364.05005474851851
    Total Energy =                       -364.0500547485185052
 Dipole X            :          0.0000000            0.0000000            0.0000000
 Dipole Y            :          0.0000000            0.0000000            0.0000000
 Dipole Z            :          0.5177086           -0.0058478            0.5118609
 Magnitude           :                                                    0.5118609
    Molecular point group: c2v
  Basis Set: CC-PVDZ
    Blend: CC-PVDZ
  Basis Set: (CC-PVDZ AUX)
    Blend: CC-PVDZ-JKFIT
  Basis Set: CC-PVDZ
    Blend: CC-PVDZ
  Basis Set: (CC-PVDZ AUX)
    Blend: CC-PVDZ-JKFIT
  @DF-UKS Final Energy:  -364.22649606798575
    Total Energy =                       -364.2264960679856927
  Basis Set: CC-PVDZ
    Blend: CC-PVDZ
  Basis Set: (CC-PVDZ AUX)
    Blend: CC-PVDZ-JKFIT
  Basis Set: CC-PVDZ
    Blend: CC-PVDZ
  @DF-UKS Final Energy:  -364.31272588856586
    Total Energy =                       -364.3127258885658648
  @DF-UKS Final Energy:  -364.34073307127613
    Total Energy =                       -364.3407330712761336
  @DF-UKS Final Energy:  -364.35504543232526
    Total Energy =                       -364.3550454323253120
  @DF-UKS Final Energy:  -364.45944729896900
    Total Energy =                       -364.4594472989690530
  @DF-UKS Final Energy:  -364.47185733196261
    Total Energy =                       -364.4718573319626671
  @DF-UKS Final Energy:  -364.47424971130118
    Total Energy =                       -364.4742497113011837
  @DF-UKS Final Energy:  -364.47462540618966
    Total Energy =                       -364.4746254061897162
  @DF-UKS Final Energy:  -364.47463180019201
    Total Energy =                       -364.4746318001920145
  Basis Set: (CC-PVDZ AUX)
    Blend: CC-PVDZ-JKFIT
  Basis Set: CC-PVDZ
    Blend: CC-PVDZ
  Basis Set: (CC-PVDZ AUX)
    Blend: CC-PVDZ-JKFIT
  @DF-UKS Final Energy:  -364.47463361267285
    Total Energy =                       -364.4746336126728465
  Basis Set: CC-PVDZ
    Blend: CC-PVDZ
  Basis Set: (CC-PVDZ AUX)
    Blend: CC-PVDZ-JKFIT
  Charge       = 0
  Multiplicity = 5
  Basis Set: CC-PVDZ
    Blend: CC-PVDZ
  Basis Set: (CC-PVDZ AUX)
    Blend: CC-PVDZ-JKFIT

    Orbital Energies [Eh]
    ---------------------

    Alpha Occupied:

       1A1   -66.196179     2A1   -19.266804     3A1    -5.338398
       4A1    -3.699226     1B2    -3.697574     1B1    -3.696629
       5A1    -1.026424     6A1    -0.522362     2B2    -0.460123
       7A1    -0.394244     2B1    -0.393204     3B2    -0.199260
       3B1    -0.190631

    Alpha Virtual:

       8A1    -0.030515     9A1     0.228174     4B2     0.284140
       4B1     0.288213    10A1     0.303755     1A2     0.317132
      11A1     0.317183     5B2     0.344442     5B1     0.354923
      12A1     0.498045     6B2     0.899945    13A1     0.931980
       6B1     0.942891    14A1     1.585251    15A1     2.484056
       2A2     2.486850     7B2     2.503785     7B1     2.557413
      16A1     2.725955

    Beta Occupied:

       1A1   -66.186833     2A1   -19.228528     3A1    -5.326763
       4A1    -3.690623     1B2    -3.680931     1B1    -3.680472
       5A1    -0.914047     6A1    -0.424493     2B1    -0.342745

    Beta Virtual:

       7A1    -0.230118     2B2    -0.208657     3B1    -0.054386
       3B2    -0.044947     8A1     0.025679     9A1     0.265916
       4B2     0.330664     4B1     0.331435    10A1     0.334762
       1A2     0.413270    11A1     0.413361     5B1     0.420046
       5B2     0.423615    12A1     0.554358     6B1     0.973085
      13A1     0.988420     6B2     1.001866    14A1     1.645186
       2A2     2.578732    15A1     2.588219     7B1     2.609413
       7B2     2.624851    16A1     2.804031

    Final Occupation by Irrep:
             A1    A2    B1    B2
    DOCC [     6,    0,    2,    1 ]
    SOCC [     1,    0,    1,    2 ]
    NA   [     7,    0,    3,    3 ]
    NB   [     6,    0,    2,    1 ]

  @DF-UKS Final Energy:  -364.47463424825310

   => Energetics <=

    Nuclear Repulsion Energy =             31.5943770118662997
    One-Electron Energy =                -566.6654214983169595
    Two-Electron Energy =                 194.2800471600780270
    DFT Exchange-Correlation Energy =     -23.6836369218804386
    Empirical Dispersion Energy =           0.0000000000000000
    VV10 Nonlocal Energy =                  0.0000000000000000
    Total Energy =                       -364.4746342482530963

  UHF NO Occupations:
  HONO-2 :    2 B2 1.0000000
  HONO-1 :    7 A1 1.0000000
  HONO-0 :    3 B2 1.0000000
  LUNO+0 :    8 A1 0.0030168
  LUNO+1 :    4 B1 0.0005161
  LUNO+2 :    9 A1 0.0004295
  LUNO+3 :   10 A1 0.0000003

Computation Completed

Properties will be evaluated at   0.000000,   0.000000,   0.000000 [a0]

Properties computed using the SCF density matrix

 Multipole Moments:

 ------------------------------------------------------------------------------------
     Multipole            Electronic (a.u.)      Nuclear  (a.u.)        Total (a.u.)
 ------------------------------------------------------------------------------------

 L = 1.  Multiply by 2.5417464519 to convert [e a0] to [Debye]
 Dipole X            :          0.0000000            0.0000000            0.0000000
 Dipole Y            :          0.0000000            0.0000000            0.0000000
 Dipole Z            :         -0.3347908           -0.0091415           -0.3439323
 Magnitude           :                                                    0.3439323

 ------------------------------------------------------------------------------------

*** tstop() called on Joses-MacBook-Pro-2.local at Wed Jul 16 19:21:48 2025
Module time:
	user time   =       2.64 seconds =       0.04 minutes
	system time =       3.44 seconds =       0.06 minutes
	total time  =          1 seconds =       0.02 minutes
Total time:
	user time   =      57.59 seconds =       0.96 minutes
	system time =      68.95 seconds =       1.15 minutes
	total time  =         13 seconds =       0.22 minutes

*** tstart() called on Joses-MacBook-Pro-2.local
*** at Wed Jul 16 19:21:48 2025

         ------------------------------------------------------------
                                   SCF GRAD
                          Rob Parrish, Justin Turney,
                       Andy Simmonett, and Alex Sokolov
         ------------------------------------------------------------

  ==> Geometry <==

    Molecular point group: c2v
    Full point group: C_inf_v

    Geometry (in Angstrom), charge = 0, multiplicity = 5:

       Center              X                  Y                   Z               Mass
    ------------   -----------------  -----------------  -----------------  -----------------
         O            0.000000000000     0.000000000000     1.193533769174    15.994914619570
         SI           0.000000000000     0.000000000000    -0.682364830528    27.976926534650

  Nuclear repulsion =   31.594377011866300

  ==> Basis Set <==

  Basis Set: CC-PVDZ
    Blend: CC-PVDZ
    Number of shells: 14
    Number of basis functions: 32
    Number of Cartesian functions: 34
    Spherical Harmonics?: true
    Max angular momentum: 2

  ==> DFJKGrad: Density-Fitted SCF Gradients <==

    Gradient:                    1
    J tasked:                  Yes
    K tasked:                  Yes
    wK tasked:                  No
    OpenMP threads:              1
    Integrals threads:           1
    Memory [MiB]:              375
    Schwarz Cutoff:          1E-12
    Fitting Condition:       1E-10

   => Auxiliary Basis Set <=

  Basis Set: (CC-PVDZ AUX)
    Blend: CC-PVDZ-JKFIT
    Number of shells: 60
    Number of basis functions: 182
    Number of Cartesian functions: 211
    Spherical Harmonics?: true
    Max angular momentum: 3

  ==> DFT Potential <==

   => LibXC <=

    Version 6.2.2
    S. Lehtola, C. Steigemann, M. J.T. Oliveira, and M. A.L. Marques.,  SoftwareX 7, 1â€“5 (2018) (10.1016/j.softx.2017.11.002)

   => Composite Functional: B3LYP <=

    B3LYP Hyb-GGA Exchange-Correlation Functional

    P. J. Stephens, F. J. Devlin, C. F. Chabalowski, and M. J. Frisch.,  J. Phys. Chem. 98, 11623 (1994) (10.1021/j100096a001)

    Deriv               =              1
    GGA                 =           TRUE
    Meta                =          FALSE

    Exchange Hybrid     =           TRUE
    MP2 Hybrid          =          FALSE

   => Exchange Functionals <=

    0.0800   Slater exchange
    0.7200         Becke 88

   => Exact (HF) Exchange <=

    0.2000               HF

   => Correlation Functionals <=

    0.1900   Vosko, Wilk & Nusair (VWN5_RPA)
    0.8100   Lee, Yang & Parr

   => LibXC Density Thresholds  <==

    XC_HYB_GGA_XC_B3LYP:  1.00E-15

   => Molecular Quadrature <=

    Radial Scheme          =       TREUTLER
    Pruning Scheme         =           NONE
    Nuclear Scheme         =       TREUTLER

    Blocking Scheme        =         OCTREE
    BS radius alpha        =              1
    Pruning alpha          =              1
    Radial Points          =             75
    Spherical Points       =            302
    Total Points           =          42733
    Total Blocks           =            397
    Max Points             =            255
    Max Functions          =             32
    Weights Tolerance      =       1.00E-15

  -Total Gradient:
     Atom            X                  Y                   Z
    ------   -----------------  -----------------  -----------------
       1       -0.000000000000     0.000000000000    -0.000150912093
       2       -0.000000000000     0.000000000000     0.000114005409

*** tstop() called on Joses-MacBook-Pro-2.local at Wed Jul 16 19:21:48 2025
Module time:
	user time   =       0.87 seconds =       0.01 minutes
	system time =       1.38 seconds =       0.02 minutes
	total time  =          0 seconds =       0.00 minutes
Total time:
	user time   =      58.46 seconds =       0.97 minutes
	system time =      70.33 seconds =       1.17 minutes
	total time  =         13 seconds =       0.22 minutes

    			-----------------------------------------

    			 OPTKING 3.0: for geometry optimizations

    			     By R.A. King, Bethel University

    			        with contributions from

    			    A.V. Copan, J. Cayton, A. Heide

    			-----------------------------------------

	                            ===> Fragment 1 <==

	 Z (Atomic Numbers)          Masses                          Geom
	       8.000000            15.994915          0.00000000  0.00000000  2.25545195
	      14.000000            27.976927          0.00000000  0.00000000 -1.28948265

	 - Coordinate -           - BOHR/RAD -       - ANG/DEG -
	 R(1,2)           =         3.544935           1.875899

	        --- Internal Coordinate Step in ANG or DEG, aJ/ANG or AJ/DEG ---
	-------------------------------------------------------------------------------
	           Coordinate      Previous         Force          Change          New
	           ----------      --------        ------          ------        ------
	               R(1,2)       1.87590        0.00109        0.00061       1.87650
	-------------------------------------------------------------------------------

	                                 ==> Convergence Check <==

	Measures of convergence in internal coordinates in au.

	Criteria marked as inactive (o), active & met (*), and active & unmet ( ).

	----------------------------------------------------------------------------------------------
	   Step    Total Energy     Delta E     Max Force     RMS Force      Max Disp      RMS Disp
	----------------------------------------------------------------------------------------------
	  Convergence Criteria     1.00e-06 *    3.00e-04 *             o    1.20e-03 *             o
	----------------------------------------------------------------------------------------------
	    12    -364.47463425   -6.36e-07 *    1.32e-04 *    1.32e-04 o    1.14e-03 *    1.14e-03 o  ~
	----------------------------------------------------------------------------------------------

Next Geometry in Ang
	Fragment 1 (Ang)

	    O   0.0000000000   0.0000000000   1.1938364507
	   Si   0.0000000000   0.0000000000  -0.6826675121

    Final optimized geometry and variables:
    Molecular point group: c2v
    Full point group: C_inf_v

    Geometry (in Angstrom), charge = 0, multiplicity = 5:

    O            0.000000000000     0.000000000000     1.193533769174
    SI           0.000000000000     0.000000000000    -0.682364830528

    Psi4 stopped on: Wednesday, 16 July 2025 07:21PM
    Psi4 wall time for execution: 0:00:12.95

*** Psi4 exiting successfully. Buy a developer a beer!
