                               Psi4 1.9.1 release

  ==> Input File <==

--------------------------------------------------------------------------
molecule {
0 5
Mg   0.00000        0.60000        0.00000
Mg   0.00000       -0.60000        0.00000
}

set {
basis              cc-pvdz
reference          uks
maxiter            500
geom_maxiter       500
DAMPING_PERCENTAGE 1
guess              SAP
}

optimize('b3lyp')
--------------------------------------------------------------------------

    Molecular point group: d2h
  Charge       = 0
  Multiplicity = 5
  Basis Set: CC-PVDZ
    Blend: CC-PVDZ
  Basis Set: (CC-PVDZ AUX)
    Blend: DEF2-UNIVERSAL-JKFIT
  @DF-UKS Final Energy:  -399.27736774845619
    Total Energy =                       -399.2773677484562427
 Dipole X            :          0.0000000            0.0000000            0.0000000
 Dipole Y            :          0.0000000            0.0000000            0.0000000
 Dipole Z            :          0.0000000            0.0000000            0.0000000
 Magnitude           :                                                    0.0000000
    Molecular point group: d2h
  Basis Set: CC-PVDZ
    Blend: CC-PVDZ
  Basis Set: (CC-PVDZ AUX)
    Blend: DEF2-UNIVERSAL-JKFIT
  Basis Set: CC-PVDZ
    Blend: CC-PVDZ
  Basis Set: (CC-PVDZ AUX)
    Blend: DEF2-UNIVERSAL-JKFIT
  @DF-UKS Final Energy:  -399.28489004953235
    Total Energy =                       -399.2848900495324642
  Basis Set: CC-PVDZ
    Blend: CC-PVDZ
  Basis Set: (CC-PVDZ AUX)
    Blend: DEF2-UNIVERSAL-JKFIT
  Basis Set: CC-PVDZ
    Blend: CC-PVDZ
  @DF-UKS Final Energy:  -399.29943978739556
    Total Energy =                       -399.2994397873954995
  @DF-UKS Final Energy:  -399.35254207273834
    Total Energy =                       -399.3525420727383448
  @DF-UKS Final Energy:  -399.60151494391090
    Total Energy =                       -399.6015149439108995
  @DF-UKS Final Energy:  -399.74853592736173
    Total Energy =                       -399.7485359273617291
  @DF-UKS Final Energy:  -399.86015286590145
    Total Energy =                       -399.8601528659014548
  @DF-UKS Final Energy:  -399.93450805784892
    Total Energy =                       -399.9345080578489160
  @DF-UKS Final Energy:  -399.97520109325927
    Total Energy =                       -399.9752010932592725
  @DF-UKS Final Energy:  -399.99406914943336
    Total Energy =                       -399.9940691494333578
  @DF-UKS Final Energy:  -400.00132178769400
    Total Energy =                       -400.0013217876939962
  @DF-UKS Final Energy:  -400.00357656624629
    Total Energy =                       -400.0035765662462950
  @DF-UKS Final Energy:  -400.00401556134705
    Total Energy =                       -400.0040155613470461
  @DF-UKS Final Energy:  -400.00405003146267
    Total Energy =                       -400.0040500314626684
  Basis Set: (CC-PVDZ AUX)
    Blend: DEF2-UNIVERSAL-JKFIT
  Basis Set: CC-PVDZ
    Blend: CC-PVDZ
  Basis Set: (CC-PVDZ AUX)
    Blend: DEF2-UNIVERSAL-JKFIT
  @DF-UKS Final Energy:  -400.00405282986009
    Total Energy =                       -400.0040528298600861
  Basis Set: CC-PVDZ
    Blend: CC-PVDZ
  Basis Set: (CC-PVDZ AUX)
    Blend: DEF2-UNIVERSAL-JKFIT
  Charge       = 0
  Multiplicity = 5
  Basis Set: CC-PVDZ
    Blend: CC-PVDZ
  Basis Set: (CC-PVDZ AUX)
    Blend: DEF2-UNIVERSAL-JKFIT

    Orbital Energies [Eh]
    ---------------------

    Alpha Occupied:

       1B2u  -46.883935     1Ag   -46.883934     2B2u   -3.163450
       2Ag    -3.163435     3Ag    -1.908724     3B2u   -1.907721
       1B3u   -1.906192     1B1u   -1.906192     1B1g   -1.906093
       1B3g   -1.906093     4Ag    -0.306262     4B2u   -0.207943
       2B3u   -0.130752     2B1u   -0.130752

    Alpha Virtual:

       5Ag    -0.089623     2B1g   -0.037253     2B3g   -0.037253
       5B2u    0.025468     6Ag     0.063399     7Ag     0.101769
       3B3u    0.116101     3B1u    0.116101     6B2u    0.130873
       3B3g    0.153745     3B1g    0.153745     4B3u    0.213243
       4B1u    0.213243     7B2u    0.216416     1B2g    0.241581
       8Ag     0.241581     1Au     0.301015     8B2u    0.301015
       9Ag     0.337495     4B1g    0.413318     4B3g    0.413318
       9B2u    0.591981

    Beta Occupied:

       1B2u  -46.879540     1Ag   -46.879538     2B2u   -3.156171
       2Ag    -3.156131     3Ag    -1.903721     3B2u   -1.902830
       1B3u   -1.899495     1B1u   -1.899495     1B1g   -1.899417
       1B3g   -1.899417

    Beta Virtual:

       4Ag    -0.177391     4B2u   -0.109626     5Ag    -0.028519
       2B1u   -0.027473     2B3u   -0.027473     2B1g    0.021818
       2B3g    0.021818     5B2u    0.059514     6Ag     0.107486
       7Ag     0.132541     3B3u    0.155938     3B1u    0.155938
       6B2u    0.167178     3B3g    0.189265     3B1g    0.189265
       7B2u    0.250038     4B1u    0.274468     4B3u    0.274468
       1B2g    0.309691     8Ag     0.309696     1Au     0.363023
       8B2u    0.363030     9Ag     0.385796     4B1g    0.464483
       4B3g    0.464483     9B2u    0.626301

    Final Occupation by Irrep:
             Ag   B1g   B2g   B3g    Au   B1u   B2u   B3u
    DOCC [     3,    1,    0,    1,    0,    1,    3,    1 ]
    SOCC [     1,    0,    0,    0,    0,    1,    1,    1 ]
    NA   [     4,    1,    0,    1,    0,    2,    4,    2 ]
    NB   [     3,    1,    0,    1,    0,    1,    3,    1 ]

  @DF-UKS Final Energy:  -400.00405305867992

   => Energetics <=

    Nuclear Repulsion Energy =             26.7550449480905570
    One-Electron Energy =                -610.7955234984120807
    Two-Electron Energy =                 210.5641551104619396
    DFT Exchange-Correlation Energy =     -26.5277296188204161
    Empirical Dispersion Energy =           0.0000000000000000
    VV10 Nonlocal Energy =                  0.0000000000000000
    Total Energy =                       -400.0040530586800287

  UHF NO Occupations:
  HONO-2 :    2B3u 1.0000000
  HONO-1 :    4 Ag 1.0000000
  HONO-0 :    4B2u 1.0000000
  LUNO+0 :    5 Ag 0.0000016
  LUNO+1 :    2B1g 0.0000008
  LUNO+2 :    2B3g 0.0000008
  LUNO+3 :    5B2u 0.0000003

Computation Completed

Properties will be evaluated at   0.000000,   0.000000,   0.000000 [a0]

Properties computed using the SCF density matrix

 Multipole Moments:

 ------------------------------------------------------------------------------------
     Multipole            Electronic (a.u.)      Nuclear  (a.u.)        Total (a.u.)
 ------------------------------------------------------------------------------------

 L = 1.  Multiply by 2.5417464519 to convert [e a0] to [Debye]
 Dipole X            :          0.0000000            0.0000000            0.0000000
 Dipole Y            :          0.0000000            0.0000000            0.0000000
 Dipole Z            :          0.0000000            0.0000000            0.0000000
 Magnitude           :                                                    0.0000000

 ------------------------------------------------------------------------------------

*** tstop() called on Joses-MacBook-Pro-2.local at Wed Jul 16 19:54:35 2025
Module time:
	user time   =       5.20 seconds =       0.09 minutes
	system time =       2.74 seconds =       0.05 minutes
	total time  =          0 seconds =       0.00 minutes
Total time:
	user time   =     152.22 seconds =       2.54 minutes
	system time =      73.85 seconds =       1.23 minutes
	total time  =         21 seconds =       0.35 minutes

*** tstart() called on Joses-MacBook-Pro-2.local
*** at Wed Jul 16 19:54:35 2025

         ------------------------------------------------------------
                                   SCF GRAD
                          Rob Parrish, Justin Turney,
                       Andy Simmonett, and Alex Sokolov
         ------------------------------------------------------------

  ==> Geometry <==

    Molecular point group: d2h
    Full point group: D_inf_h

    Geometry (in Angstrom), charge = 0, multiplicity = 5:

       Center              X                  Y                   Z               Mass
    ------------   -----------------  -----------------  -----------------  -----------------
         MG          -0.000000000000     1.424058873463     0.000000000000    23.985041697000
         MG           0.000000000000    -1.424058873463     0.000000000000    23.985041697000

  Nuclear repulsion =   26.755044948090557

  ==> Basis Set <==

  Basis Set: CC-PVDZ
    Blend: CC-PVDZ
    Number of shells: 16
    Number of basis functions: 36
    Number of Cartesian functions: 38
    Spherical Harmonics?: true
    Max angular momentum: 2

  ==> DFJKGrad: Density-Fitted SCF Gradients <==

    Gradient:                    1
    J tasked:                  Yes
    K tasked:                  Yes
    wK tasked:                  No
    OpenMP threads:              1
    Integrals threads:           1
    Memory [MiB]:              375
    Schwarz Cutoff:          1E-12
    Fitting Condition:       1E-10

   => Auxiliary Basis Set <=

  Basis Set: (CC-PVDZ AUX)
    Blend: DEF2-UNIVERSAL-JKFIT
    Number of shells: 68
    Number of basis functions: 224
    Number of Cartesian functions: 274
    Spherical Harmonics?: true
    Max angular momentum: 4

  ==> DFT Potential <==

   => LibXC <=

    Version 6.2.2
    S. Lehtola, C. Steigemann, M. J.T. Oliveira, and M. A.L. Marques.,  SoftwareX 7, 1â€“5 (2018) (10.1016/j.softx.2017.11.002)

   => Composite Functional: B3LYP <=

    B3LYP Hyb-GGA Exchange-Correlation Functional

    P. J. Stephens, F. J. Devlin, C. F. Chabalowski, and M. J. Frisch.,  J. Phys. Chem. 98, 11623 (1994) (10.1021/j100096a001)

    Deriv               =              1
    GGA                 =           TRUE
    Meta                =          FALSE

    Exchange Hybrid     =           TRUE
    MP2 Hybrid          =          FALSE

   => Exchange Functionals <=

    0.0800   Slater exchange
    0.7200         Becke 88

   => Exact (HF) Exchange <=

    0.2000               HF

   => Correlation Functionals <=

    0.1900   Vosko, Wilk & Nusair (VWN5_RPA)
    0.8100   Lee, Yang & Parr

   => LibXC Density Thresholds  <==

    XC_HYB_GGA_XC_B3LYP:  1.00E-15

   => Molecular Quadrature <=

    Radial Scheme          =       TREUTLER
    Pruning Scheme         =           NONE
    Nuclear Scheme         =       TREUTLER

    Blocking Scheme        =         OCTREE
    BS radius alpha        =              1
    Pruning alpha          =              1
    Radial Points          =             75
    Spherical Points       =            302
    Total Points           =          42380
    Total Blocks           =            414
    Max Points             =            254
    Max Functions          =             36
    Weights Tolerance      =       1.00E-15

  -Total Gradient:
     Atom            X                  Y                   Z
    ------   -----------------  -----------------  -----------------
       1        0.000000000000    -0.000031470926     0.000000000000
       2       -0.000000000000     0.000031470926     0.000000000000

*** tstop() called on Joses-MacBook-Pro-2.local at Wed Jul 16 19:54:36 2025
Module time:
	user time   =       2.90 seconds =       0.05 minutes
	system time =       1.75 seconds =       0.03 minutes
	total time  =          1 seconds =       0.02 minutes
Total time:
	user time   =     155.13 seconds =       2.59 minutes
	system time =      75.60 seconds =       1.26 minutes
	total time  =         22 seconds =       0.37 minutes

    			-----------------------------------------

    			 OPTKING 3.0: for geometry optimizations

    			     By R.A. King, Bethel University

    			        with contributions from

    			    A.V. Copan, J. Cayton, A. Heide

    			-----------------------------------------

	                            ===> Fragment 1 <==

	 Z (Atomic Numbers)          Masses                          Geom
	      12.000000            23.985042         -0.00000000  2.69108126  0.00000000
	      12.000000            23.985042          0.00000000 -2.69108126  0.00000000

	 - Coordinate -           - BOHR/RAD -       - ANG/DEG -
	 R(1,2)           =         5.382163           2.848118

	        --- Internal Coordinate Step in ANG or DEG, aJ/ANG or AJ/DEG ---
	-------------------------------------------------------------------------------
	           Coordinate      Previous         Force          Change          New
	           ----------      --------        ------          ------        ------
	               R(1,2)       2.84812        0.00026        0.00066       2.84877
	-------------------------------------------------------------------------------

	                                 ==> Convergence Check <==

	Measures of convergence in internal coordinates in au.

	Criteria marked as inactive (o), active & met (*), and active & unmet ( ).

	----------------------------------------------------------------------------------------------
	   Step    Total Energy     Delta E     Max Force     RMS Force      Max Disp      RMS Disp
	----------------------------------------------------------------------------------------------
	  Convergence Criteria     1.00e-06 *    3.00e-04 *             o    1.20e-03 *             o
	----------------------------------------------------------------------------------------------
	    16    -400.00405306   -2.29e-07 *    3.15e-05 *    3.15e-05 o    1.24e-03      1.24e-03 o  ~
	----------------------------------------------------------------------------------------------

Next Geometry in Ang
	Fragment 1 (Ang)

	   Mg  -0.0000000000   1.4243871595   0.0000000000
	   Mg   0.0000000000  -1.4243871595   0.0000000000

    Final optimized geometry and variables:
    Molecular point group: d2h
    Full point group: D_inf_h

    Geometry (in Angstrom), charge = 0, multiplicity = 5:

    MG          -0.000000000000     1.424058873463     0.000000000000
    MG           0.000000000000    -1.424058873463     0.000000000000

    Psi4 stopped on: Wednesday, 16 July 2025 07:54PM
    Psi4 wall time for execution: 0:00:22.62

*** Psi4 exiting successfully. Buy a developer a beer!
