                               Psi4 1.9.1 release

  ==> Input File <==

--------------------------------------------------------------------------
molecule {
0 5
Ne   0.00000        0.60000        0.00000
Ne   0.00000       -0.60000        0.00000
}

set {
basis              cc-pvdz
reference          uks
maxiter            500
geom_maxiter       500
DAMPING_PERCENTAGE 1
guess              SAP
}

optimize('b3lyp')
--------------------------------------------------------------------------

    Molecular point group: d2h
  Charge       = 0
  Multiplicity = 5
  Basis Set: CC-PVDZ
    Blend: CC-PVDZ
  Basis Set: (CC-PVDZ AUX)
    Blend: CC-PVDZ-JKFIT
  @DF-UKS Final Energy:  -254.33850823758686
    Total Energy =                       -254.3385082375868649
 Dipole X            :          0.0000000            0.0000000            0.0000000
 Dipole Y            :          0.0000000            0.0000000            0.0000000
 Dipole Z            :          0.0000000            0.0000000            0.0000000
 Magnitude           :                                                    0.0000000
    Molecular point group: d2h
  Basis Set: CC-PVDZ
    Blend: CC-PVDZ
  Basis Set: (CC-PVDZ AUX)
    Blend: CC-PVDZ-JKFIT
  Basis Set: CC-PVDZ
    Blend: CC-PVDZ
  Basis Set: (CC-PVDZ AUX)
    Blend: CC-PVDZ-JKFIT
  @DF-UKS Final Energy:  -254.55606826470947
    Total Energy =                       -254.5560682647094666
  Basis Set: CC-PVDZ
    Blend: CC-PVDZ
  Basis Set: (CC-PVDZ AUX)
    Blend: CC-PVDZ-JKFIT
  Basis Set: CC-PVDZ
    Blend: CC-PVDZ
  @DF-UKS Final Energy:  -254.56511255163906
    Total Energy =                       -254.5651125516390607
  @DF-UKS Final Energy:  -254.56789395365854
    Total Energy =                       -254.5678939536585403
  @DF-UKS Final Energy:  -254.56798230988272
    Total Energy =                       -254.5679823098827228
  Basis Set: (CC-PVDZ AUX)
    Blend: CC-PVDZ-JKFIT
  Basis Set: CC-PVDZ
    Blend: CC-PVDZ
  Basis Set: (CC-PVDZ AUX)
    Blend: CC-PVDZ-JKFIT
  @DF-UKS Final Energy:  -254.56798528184947
    Total Energy =                       -254.5679852818494737
  Basis Set: CC-PVDZ
    Blend: CC-PVDZ
  Basis Set: (CC-PVDZ AUX)
    Blend: CC-PVDZ-JKFIT
  Charge       = 0
  Multiplicity = 5
  Basis Set: CC-PVDZ
    Blend: CC-PVDZ
  Basis Set: (CC-PVDZ AUX)
    Blend: CC-PVDZ-JKFIT

    Orbital Energies [Eh]
    ---------------------

    Alpha Occupied:

       1B2u  -31.107437     1Ag   -31.107411     2Ag    -1.678531
       2B2u   -1.583193     3Ag    -0.841237     1B3u   -0.782515
       1B1g   -0.730077     1B1u   -0.729557     1B3g   -0.674649
       3B2u   -0.637187     2B3u    1.016430     2B1u    1.049154

    Alpha Virtual:

       4B2u    1.292168     4Ag     1.307593     2B1g    1.326376
       2B3g    1.358438     5Ag     1.560270     5B2u    2.301373
       6Ag     4.443117     3B3u    4.487620     3B1u    4.529875
       3B1g    4.532691     1B2g    4.556364     6B2u    4.557217
       1Au     4.558872     7Ag     4.561856     3B3g    4.575024
       7B2u    4.855138

    Beta Occupied:

       1Ag   -31.030812     1B2u  -31.030794     2Ag    -1.546316
       2B2u   -1.442676     3Ag    -0.674058     1B1u   -0.633331
       1B3g   -0.574005     1B3u   -0.570713

    Beta Virtual:

       1B1g   -0.443458     3B2u   -0.372782     2B1u    1.229849
       2B3u    1.246747     4B2u    1.384662     4Ag     1.428891
       2B3g    1.472360     2B1g    1.487248     5Ag     1.670077
       5B2u    2.411459     6Ag     4.557484     3B1u    4.610471
       3B3u    4.616853     1B2g    4.645893     7Ag     4.648847
       1Au     4.649254     6B2u    4.652090     3B3g    4.657206
       3B1g    4.664701     7B2u    4.965229

    Final Occupation by Irrep:
             Ag   B1g   B2g   B3g    Au   B1u   B2u   B3u
    DOCC [     3,    0,    0,    1,    0,    1,    2,    1 ]
    SOCC [     0,    1,    0,    0,    0,    1,    1,    1 ]
    NA   [     3,    1,    0,    1,    0,    2,    3,    2 ]
    NB   [     3,    0,    0,    1,    0,    1,    2,    1 ]

  @DF-UKS Final Energy:  -254.56798537545018

   => Energetics <=

    Nuclear Repulsion Energy =             33.8111183016489676
    One-Electron Energy =                -427.0331277684833253
    Two-Electron Energy =                 158.7963728120542442
    DFT Exchange-Correlation Energy =     -20.1423487206700322
    Empirical Dispersion Energy =           0.0000000000000000
    VV10 Nonlocal Energy =                  0.0000000000000000
    Total Energy =                       -254.5679853754501778

  UHF NO Occupations:
  HONO-2 :    2B3u 1.0000000
  HONO-1 :    2B1u 1.0000000
  HONO-0 :    1B1g 1.0000000
  LUNO+0 :    4 Ag 0.0008813
  LUNO+1 :    2B3g 0.0003400
  LUNO+2 :    5 Ag 0.0001765
  LUNO+3 :    4B2u 0.0001557

Computation Completed

Properties will be evaluated at   0.000000,   0.000000,   0.000000 [a0]

Properties computed using the SCF density matrix

 Multipole Moments:

 ------------------------------------------------------------------------------------
     Multipole            Electronic (a.u.)      Nuclear  (a.u.)        Total (a.u.)
 ------------------------------------------------------------------------------------

 L = 1.  Multiply by 2.5417464519 to convert [e a0] to [Debye]
 Dipole X            :          0.0000000            0.0000000            0.0000000
 Dipole Y            :          0.0000000            0.0000000            0.0000000
 Dipole Z            :          0.0000000            0.0000000            0.0000000
 Magnitude           :                                                    0.0000000

 ------------------------------------------------------------------------------------

*** tstop() called on Joses-MacBook-Pro-2.local at Wed Jul 16 19:32:33 2025
Module time:
	user time   =       3.30 seconds =       0.06 minutes
	system time =       1.93 seconds =       0.03 minutes
	total time  =          1 seconds =       0.02 minutes
Total time:
	user time   =      30.95 seconds =       0.52 minutes
	system time =      23.13 seconds =       0.39 minutes
	total time  =          5 seconds =       0.08 minutes

*** tstart() called on Joses-MacBook-Pro-2.local
*** at Wed Jul 16 19:32:33 2025

         ------------------------------------------------------------
                                   SCF GRAD
                          Rob Parrish, Justin Turney,
                       Andy Simmonett, and Alex Sokolov
         ------------------------------------------------------------

  ==> Geometry <==

    Molecular point group: d2h
    Full point group: D_inf_h

    Geometry (in Angstrom), charge = 0, multiplicity = 5:

       Center              X                  Y                   Z               Mass
    ------------   -----------------  -----------------  -----------------  -----------------
         NE          -0.000000000000     0.782549109954     0.000000000000    19.992440176200
         NE           0.000000000000    -0.782549109954     0.000000000000    19.992440176200

  Nuclear repulsion =   33.811118301648968

  ==> Basis Set <==

  Basis Set: CC-PVDZ
    Blend: CC-PVDZ
    Number of shells: 12
    Number of basis functions: 28
    Number of Cartesian functions: 30
    Spherical Harmonics?: true
    Max angular momentum: 2

  ==> DFJKGrad: Density-Fitted SCF Gradients <==

    Gradient:                    1
    J tasked:                  Yes
    K tasked:                  Yes
    wK tasked:                  No
    OpenMP threads:              1
    Integrals threads:           1
    Memory [MiB]:              375
    Schwarz Cutoff:          1E-12
    Fitting Condition:       1E-10

   => Auxiliary Basis Set <=

  Basis Set: (CC-PVDZ AUX)
    Blend: CC-PVDZ-JKFIT
    Number of shells: 48
    Number of basis functions: 140
    Number of Cartesian functions: 162
    Spherical Harmonics?: true
    Max angular momentum: 3

  ==> DFT Potential <==

   => LibXC <=

    Version 6.2.2
    S. Lehtola, C. Steigemann, M. J.T. Oliveira, and M. A.L. Marques.,  SoftwareX 7, 1â€“5 (2018) (10.1016/j.softx.2017.11.002)

   => Composite Functional: B3LYP <=

    B3LYP Hyb-GGA Exchange-Correlation Functional

    P. J. Stephens, F. J. Devlin, C. F. Chabalowski, and M. J. Frisch.,  J. Phys. Chem. 98, 11623 (1994) (10.1021/j100096a001)

    Deriv               =              1
    GGA                 =           TRUE
    Meta                =          FALSE

    Exchange Hybrid     =           TRUE
    MP2 Hybrid          =          FALSE

   => Exchange Functionals <=

    0.0800   Slater exchange
    0.7200         Becke 88

   => Exact (HF) Exchange <=

    0.2000               HF

   => Correlation Functionals <=

    0.1900   Vosko, Wilk & Nusair (VWN5_RPA)
    0.8100   Lee, Yang & Parr

   => LibXC Density Thresholds  <==

    XC_HYB_GGA_XC_B3LYP:  1.00E-15

   => Molecular Quadrature <=

    Radial Scheme          =       TREUTLER
    Pruning Scheme         =           NONE
    Nuclear Scheme         =       TREUTLER

    Blocking Scheme        =         OCTREE
    BS radius alpha        =              1
    Pruning alpha          =              1
    Radial Points          =             75
    Spherical Points       =            302
    Total Points           =          41956
    Total Blocks           =            380
    Max Points             =            256
    Max Functions          =             28
    Weights Tolerance      =       1.00E-15

  -Total Gradient:
     Atom            X                  Y                   Z
    ------   -----------------  -----------------  -----------------
       1        0.000000000000    -0.000066812134     0.000000000000
       2       -0.000000000000     0.000066812134     0.000000000000

*** tstop() called on Joses-MacBook-Pro-2.local at Wed Jul 16 19:32:33 2025
Module time:
	user time   =       1.15 seconds =       0.02 minutes
	system time =       0.39 seconds =       0.01 minutes
	total time  =          0 seconds =       0.00 minutes
Total time:
	user time   =      32.10 seconds =       0.54 minutes
	system time =      23.52 seconds =       0.39 minutes
	total time  =          5 seconds =       0.08 minutes

    			-----------------------------------------

    			 OPTKING 3.0: for geometry optimizations

    			     By R.A. King, Bethel University

    			        with contributions from

    			    A.V. Copan, J. Cayton, A. Heide

    			-----------------------------------------

	                            ===> Fragment 1 <==

	 Z (Atomic Numbers)          Masses                          Geom
	      10.000000            19.992440         -0.00000000  1.47880350  0.00000000
	      10.000000            19.992440          0.00000000 -1.47880350  0.00000000

	 - Coordinate -           - BOHR/RAD -       - ANG/DEG -
	 R(1,2)           =         2.957607           1.565098

	        --- Internal Coordinate Step in ANG or DEG, aJ/ANG or AJ/DEG ---
	-------------------------------------------------------------------------------
	           Coordinate      Previous         Force          Change          New
	           ----------      --------        ------          ------        ------
	               R(1,2)       1.56510        0.00055        0.00006       1.56515
	-------------------------------------------------------------------------------

	                                 ==> Convergence Check <==

	Measures of convergence in internal coordinates in au.

	Criteria marked as inactive (o), active & met (*), and active & unmet ( ).

	----------------------------------------------------------------------------------------------
	   Step    Total Energy     Delta E     Max Force     RMS Force      Max Disp      RMS Disp
	----------------------------------------------------------------------------------------------
	  Convergence Criteria     1.00e-06 *    3.00e-04 *             o    1.20e-03 *             o
	----------------------------------------------------------------------------------------------
	     7    -254.56798538   -9.36e-08 *    6.68e-05 *    6.68e-05 o    1.05e-04 *    1.05e-04 o  ~
	----------------------------------------------------------------------------------------------

Next Geometry in Ang
	Fragment 1 (Ang)

	   Ne  -0.0000000000   0.7825768068   0.0000000000
	   Ne   0.0000000000  -0.7825768068   0.0000000000

    Final optimized geometry and variables:
    Molecular point group: d2h
    Full point group: D_inf_h

    Geometry (in Angstrom), charge = 0, multiplicity = 5:

    NE          -0.000000000000     0.782549109954     0.000000000000
    NE           0.000000000000    -0.782549109954     0.000000000000

    Psi4 stopped on: Wednesday, 16 July 2025 07:32PM
    Psi4 wall time for execution: 0:00:06.05

*** Psi4 exiting successfully. Buy a developer a beer!
