                               Psi4 1.9.1 release

  ==> Input File <==

--------------------------------------------------------------------------
molecule {
0 5
O   0.00000        0.60000        0.00000
S   0.00000       -0.60000        0.00000
}

set {
basis              cc-pvdz
reference          uks
maxiter            500
geom_maxiter       500
DAMPING_PERCENTAGE 1
guess              SAP
}

optimize('b3lyp')
--------------------------------------------------------------------------

    Molecular point group: c2v
  Charge       = 0
  Multiplicity = 5
  Basis Set: CC-PVDZ
    Blend: CC-PVDZ
  Basis Set: (CC-PVDZ AUX)
    Blend: CC-PVDZ-JKFIT
  @DF-UKS Final Energy:  -472.74612808353936
    Total Energy =                       -472.7461280835393609
 Dipole X            :          0.0000000            0.0000000            0.0000000
 Dipole Y            :          0.0000000            0.0000000            0.0000000
 Dipole Z            :          0.0389352           -0.0067162            0.0322190
 Magnitude           :                                                    0.0322190
    Molecular point group: c2v
  Basis Set: CC-PVDZ
    Blend: CC-PVDZ
  Basis Set: (CC-PVDZ AUX)
    Blend: CC-PVDZ-JKFIT
  Basis Set: CC-PVDZ
    Blend: CC-PVDZ
  Basis Set: (CC-PVDZ AUX)
    Blend: CC-PVDZ-JKFIT
  @DF-UKS Final Energy:  -472.90656582571779
    Total Energy =                       -472.9065658257177915
  Basis Set: CC-PVDZ
    Blend: CC-PVDZ
  Basis Set: (CC-PVDZ AUX)
    Blend: CC-PVDZ-JKFIT
  Basis Set: CC-PVDZ
    Blend: CC-PVDZ
  @DF-UKS Final Energy:  -473.00430974724213
    Total Energy =                       -473.0043097472421323
  @DF-UKS Final Energy:  -473.05802909298961
    Total Energy =                       -473.0580290929895568
  @DF-UKS Final Energy:  -473.10743906624657
    Total Energy =                       -473.1074390662465134
  @DF-UKS Final Energy:  -473.14423439309780
    Total Energy =                       -473.1442343930977472
  @DF-UKS Final Energy:  -473.16270444589378
    Total Energy =                       -473.1627044458937803
  @DF-UKS Final Energy:  -473.16873567428246
    Total Energy =                       -473.1687356742824591
  @DF-UKS Final Energy:  -473.17049547151288
    Total Energy =                       -473.1704954715128792
  @DF-UKS Final Energy:  -473.17077811750625
    Total Energy =                       -473.1707781175062451
  @DF-UKS Final Energy:  -473.17083840544774
    Total Energy =                       -473.1708384054476824
  Basis Set: (CC-PVDZ AUX)
    Blend: CC-PVDZ-JKFIT
  Basis Set: CC-PVDZ
    Blend: CC-PVDZ
  Basis Set: (CC-PVDZ AUX)
    Blend: CC-PVDZ-JKFIT
  @DF-UKS Final Energy:  -473.17084348052725
    Total Energy =                       -473.1708434805271963
  Basis Set: CC-PVDZ
    Blend: CC-PVDZ
  Basis Set: (CC-PVDZ AUX)
    Blend: CC-PVDZ-JKFIT
  Charge       = 0
  Multiplicity = 5
  Basis Set: CC-PVDZ
    Blend: CC-PVDZ
  Basis Set: (CC-PVDZ AUX)
    Blend: CC-PVDZ-JKFIT

    Orbital Energies [Eh]
    ---------------------

    Alpha Occupied:

       1A1   -88.958999     2A1   -19.253639     3A1    -8.016465
       4A1    -5.984815     1B1    -5.976833     1B2    -5.976833
       5A1    -0.990125     6A1    -0.746273     7A1    -0.454273
       2B2    -0.389378     2B1    -0.389378     3B1    -0.325173
       3B2    -0.325173     8A1    -0.307503

    Alpha Virtual:

       9A1     0.419426     4B1     0.452466     4B2     0.452466
      10A1     0.458048     5B1     0.509046     5B2     0.509046
      11A1     0.533495     1A2     0.533496    12A1     0.546307
       6B2     0.888500     6B1     0.888500    13A1     0.926158
      14A1     1.368122     7B2     2.490138     7B1     2.490138
      15A1     2.513971     2A2     2.520564    16A1     2.520566

    Beta Occupied:

       1A1   -88.946306     2A1   -19.204288     3A1    -8.003561
       4A1    -5.961288     1B1    -5.960007     1B2    -5.960007
       5A1    -0.842173     6A1    -0.643073     2B1    -0.269138
       2B2    -0.269138

    Beta Virtual:

       7A1    -0.226740     3B1    -0.189889     3B2    -0.189889
       8A1    -0.090049     9A1     0.466150     4B2     0.489325
       4B1     0.489325    10A1     0.523773     5B2     0.596431
       5B1     0.596431     1A2     0.601361    11A1     0.601361
      12A1     0.628469     6B1     0.953005     6B2     0.953005
      13A1     1.029875    14A1     1.444554     2A2     2.606745
      15A1     2.606747     7B1     2.616366     7B2     2.616366
      16A1     2.657591

    Final Occupation by Irrep:
             A1    A2    B1    B2
    DOCC [     6,    0,    2,    2 ]
    SOCC [     2,    0,    1,    1 ]
    NA   [     8,    0,    3,    3 ]
    NB   [     6,    0,    2,    2 ]

  @DF-UKS Final Energy:  -473.17084396057436

   => Energetics <=

    Nuclear Repulsion Energy =             28.3400934960830568
    One-Electron Energy =                -709.2690653679167099
    Two-Electron Energy =                 235.2421551231853982
    DFT Exchange-Correlation Energy =     -27.4840272119260334
    Empirical Dispersion Energy =           0.0000000000000000
    VV10 Nonlocal Energy =                  0.0000000000000000
    Total Energy =                       -473.1708439605743592

  UHF NO Occupations:
  HONO-2 :    3 B1 1.0000000
  HONO-1 :    7 A1 1.0000000
  HONO-0 :    8 A1 1.0000000
  LUNO+0 :    4 B2 0.0015918
  LUNO+1 :    4 B1 0.0015918
  LUNO+2 :    9 A1 0.0005303
  LUNO+3 :   10 A1 0.0002867

Computation Completed

Properties will be evaluated at   0.000000,   0.000000,   0.000000 [a0]

Properties computed using the SCF density matrix

 Multipole Moments:

 ------------------------------------------------------------------------------------
     Multipole            Electronic (a.u.)      Nuclear  (a.u.)        Total (a.u.)
 ------------------------------------------------------------------------------------

 L = 1.  Multiply by 2.5417464519 to convert [e a0] to [Debye]
 Dipole X            :          0.0000000            0.0000000            0.0000000
 Dipole Y            :          0.0000000            0.0000000            0.0000000
 Dipole Z            :         -0.3998968           -0.0133768           -0.4132736
 Magnitude           :                                                    0.4132736

 ------------------------------------------------------------------------------------

*** tstop() called on Joses-MacBook-Pro-2.local at Wed Jul 16 19:23:11 2025
Module time:
	user time   =       2.93 seconds =       0.05 minutes
	system time =       3.67 seconds =       0.06 minutes
	total time  =          1 seconds =       0.02 minutes
Total time:
	user time   =      76.25 seconds =       1.27 minutes
	system time =      68.01 seconds =       1.13 minutes
	total time  =         14 seconds =       0.23 minutes

*** tstart() called on Joses-MacBook-Pro-2.local
*** at Wed Jul 16 19:23:11 2025

         ------------------------------------------------------------
                                   SCF GRAD
                          Rob Parrish, Justin Turney,
                       Andy Simmonett, and Alex Sokolov
         ------------------------------------------------------------

  ==> Geometry <==

    Molecular point group: c2v
    Full point group: C_inf_v

    Geometry (in Angstrom), charge = 0, multiplicity = 5:

       Center              X                  Y                   Z               Mass
    ------------   -----------------  -----------------  -----------------  -----------------
         O            0.000000000000     0.000000000000     1.593082130575    15.994914619570
         S            0.000000000000     0.000000000000    -0.796983483539    31.972071174400

  Nuclear repulsion =   28.340093496083057

  ==> Basis Set <==

  Basis Set: CC-PVDZ
    Blend: CC-PVDZ
    Number of shells: 14
    Number of basis functions: 32
    Number of Cartesian functions: 34
    Spherical Harmonics?: true
    Max angular momentum: 2

  ==> DFJKGrad: Density-Fitted SCF Gradients <==

    Gradient:                    1
    J tasked:                  Yes
    K tasked:                  Yes
    wK tasked:                  No
    OpenMP threads:              1
    Integrals threads:           1
    Memory [MiB]:              375
    Schwarz Cutoff:          1E-12
    Fitting Condition:       1E-10

   => Auxiliary Basis Set <=

  Basis Set: (CC-PVDZ AUX)
    Blend: CC-PVDZ-JKFIT
    Number of shells: 60
    Number of basis functions: 182
    Number of Cartesian functions: 211
    Spherical Harmonics?: true
    Max angular momentum: 3

  ==> DFT Potential <==

   => LibXC <=

    Version 6.2.2
    S. Lehtola, C. Steigemann, M. J.T. Oliveira, and M. A.L. Marques.,  SoftwareX 7, 1â€“5 (2018) (10.1016/j.softx.2017.11.002)

   => Composite Functional: B3LYP <=

    B3LYP Hyb-GGA Exchange-Correlation Functional

    P. J. Stephens, F. J. Devlin, C. F. Chabalowski, and M. J. Frisch.,  J. Phys. Chem. 98, 11623 (1994) (10.1021/j100096a001)

    Deriv               =              1
    GGA                 =           TRUE
    Meta                =          FALSE

    Exchange Hybrid     =           TRUE
    MP2 Hybrid          =          FALSE

   => Exchange Functionals <=

    0.0800   Slater exchange
    0.7200         Becke 88

   => Exact (HF) Exchange <=

    0.2000               HF

   => Correlation Functionals <=

    0.1900   Vosko, Wilk & Nusair (VWN5_RPA)
    0.8100   Lee, Yang & Parr

   => LibXC Density Thresholds  <==

    XC_HYB_GGA_XC_B3LYP:  1.00E-15

   => Molecular Quadrature <=

    Radial Scheme          =       TREUTLER
    Pruning Scheme         =           NONE
    Nuclear Scheme         =       TREUTLER

    Blocking Scheme        =         OCTREE
    BS radius alpha        =              1
    Pruning alpha          =              1
    Radial Points          =             75
    Spherical Points       =            302
    Total Points           =          41926
    Total Blocks           =            376
    Max Points             =            253
    Max Functions          =             32
    Weights Tolerance      =       1.00E-15

  -Total Gradient:
     Atom            X                  Y                   Z
    ------   -----------------  -----------------  -----------------
       1        0.000000000000    -0.000000000000    -0.000046142858
       2        0.000000000000     0.000000000000     0.000052540260

*** tstop() called on Joses-MacBook-Pro-2.local at Wed Jul 16 19:23:11 2025
Module time:
	user time   =       0.94 seconds =       0.02 minutes
	system time =       1.24 seconds =       0.02 minutes
	total time  =          0 seconds =       0.00 minutes
Total time:
	user time   =      77.19 seconds =       1.29 minutes
	system time =      69.26 seconds =       1.15 minutes
	total time  =         14 seconds =       0.23 minutes

    			-----------------------------------------

    			 OPTKING 3.0: for geometry optimizations

    			     By R.A. King, Bethel University

    			        with contributions from

    			    A.V. Copan, J. Cayton, A. Heide

    			-----------------------------------------

	                            ===> Fragment 1 <==

	 Z (Atomic Numbers)          Masses                          Geom
	       8.000000            15.994915          0.00000000  0.00000000  3.01048892
	      16.000000            31.972071          0.00000000  0.00000000 -1.50608051

	 - Coordinate -           - BOHR/RAD -       - ANG/DEG -
	 R(1,2)           =         4.516569           2.390066

	        --- Internal Coordinate Step in ANG or DEG, aJ/ANG or AJ/DEG ---
	-------------------------------------------------------------------------------
	           Coordinate      Previous         Force          Change          New
	           ----------      --------        ------          ------        ------
	               R(1,2)       2.39007        0.00041        0.00075       2.39081
	-------------------------------------------------------------------------------

	                                 ==> Convergence Check <==

	Measures of convergence in internal coordinates in au.

	Criteria marked as inactive (o), active & met (*), and active & unmet ( ).

	----------------------------------------------------------------------------------------------
	   Step    Total Energy     Delta E     Max Force     RMS Force      Max Disp      RMS Disp
	----------------------------------------------------------------------------------------------
	  Convergence Criteria     1.00e-06 *    3.00e-04 *             o    1.20e-03 *             o
	----------------------------------------------------------------------------------------------
	    13    -473.17084396   -4.80e-07 *    4.93e-05 *    4.93e-05 o    1.42e-03      1.42e-03 o  ~
	----------------------------------------------------------------------------------------------

Next Geometry in Ang
	Fragment 1 (Ang)

	    O   0.0000000000   0.0000000000   1.5934566854
	    S   0.0000000000   0.0000000000  -0.7973580383

    Final optimized geometry and variables:
    Molecular point group: c2v
    Full point group: C_inf_v

    Geometry (in Angstrom), charge = 0, multiplicity = 5:

    O            0.000000000000     0.000000000000     1.593082130575
    S            0.000000000000     0.000000000000    -0.796983483539

    Psi4 stopped on: Wednesday, 16 July 2025 07:23PM
    Psi4 wall time for execution: 0:00:14.86

*** Psi4 exiting successfully. Buy a developer a beer!
