                               Psi4 1.9.1 release

  ==> Input File <==

--------------------------------------------------------------------------
molecule {
0 5
Na   0.00000        0.60000        0.00000
P   0.00000       -0.60000        0.00000
}

set {
basis              cc-pvdz
reference          uks
maxiter            500
geom_maxiter       500
DAMPING_PERCENTAGE 1
guess              SAP
}

optimize('b3lyp')
--------------------------------------------------------------------------

    Molecular point group: c2v
  Charge       = 0
  Multiplicity = 5
  Basis Set: CC-PVDZ
    Blend: CC-PVDZ
  Basis Set: (CC-PVDZ AUX)
    Blend: CC-PVDZ-JKFIT + DEF2-UNIVERSAL-JKFIT
  @DF-UKS Final Energy:  -502.56070992216041
    Total Energy =                       -502.5607099221604130
 Dipole X            :          0.0000000            0.0000000            0.0000000
 Dipole Y            :          0.0000000            0.0000000            0.0000000
 Dipole Z            :         -0.7902599           -0.1737688           -0.9640286
 Magnitude           :                                                    0.9640286
    Molecular point group: c2v
  Basis Set: CC-PVDZ
    Blend: CC-PVDZ
  Basis Set: (CC-PVDZ AUX)
    Blend: CC-PVDZ-JKFIT + DEF2-UNIVERSAL-JKFIT
  Basis Set: CC-PVDZ
    Blend: CC-PVDZ
  Basis Set: (CC-PVDZ AUX)
    Blend: CC-PVDZ-JKFIT + DEF2-UNIVERSAL-JKFIT
  @DF-UKS Final Energy:  -502.57214019688990
    Total Energy =                       -502.5721401968899045
  Basis Set: CC-PVDZ
    Blend: CC-PVDZ
  Basis Set: (CC-PVDZ AUX)
    Blend: CC-PVDZ-JKFIT + DEF2-UNIVERSAL-JKFIT
  Basis Set: CC-PVDZ
    Blend: CC-PVDZ
  @DF-UKS Final Energy:  -502.59425177602009
    Total Energy =                       -502.5942517760200872
  @DF-UKS Final Energy:  -502.67494337252936
    Total Energy =                       -502.6749433725293557
  @DF-UKS Final Energy:  -503.04520784997237
    Total Energy =                       -503.0452078499723712
  @DF-UKS Final Energy:  -503.26720349274581
    Total Energy =                       -503.2672034927458071
  @DF-UKS Final Energy:  -503.40782620934760
    Total Energy =                       -503.4078262093476042
  @DF-UKS Final Energy:  -503.47765931209369
    Total Energy =                       -503.4776593120936923
  @DF-UKS Final Energy:  -503.51427381235709
    Total Energy =                       -503.5142738123570894
  @DF-UKS Final Energy:  -503.53432325546140
    Total Energy =                       -503.5343232554614019
  @DF-UKS Final Energy:  -503.54627799984348
    Total Energy =                       -503.5462779998434826
  @DF-UKS Final Energy:  -503.55367192873769
    Total Energy =                       -503.5536719287376854
  @DF-UKS Final Energy:  -503.55837330986310
    Total Energy =                       -503.5583733098631001
  @DF-UKS Final Energy:  -503.56149476653741
    Total Energy =                       -503.5614947665374075
  @DF-UKS Final Energy:  -503.56155390421651
    Total Energy =                       -503.5615539042165096
  @DF-UKS Final Energy:  -503.56389441967889
    Total Energy =                       -503.5638944196788884
  @DF-UKS Final Energy:  -503.56391723999235
    Total Energy =                       -503.5639172399923496
  @DF-UKS Final Energy:  -503.56533243252039
    Total Energy =                       -503.5653324325203926
  @DF-UKS Final Energy:  -503.56534122381038
    Total Energy =                       -503.5653412238103215
  @DF-UKS Final Energy:  -503.56534994528977
    Total Energy =                       -503.5653499452898245
  @DF-UKS Final Energy:  -503.56616438732459
    Total Energy =                       -503.5661643873246476
  @DF-UKS Final Energy:  -503.56616767165048
    Total Energy =                       -503.5661676716504189
  @DF-UKS Final Energy:  -503.56617093696019
    Total Energy =                       -503.5661709369602477
  @DF-UKS Final Energy:  -503.56617418494420
    Total Energy =                       -503.5661741849442024
  @DF-UKS Final Energy:  -503.56617741572461
    Total Energy =                       -503.5661774157246100
  @DF-UKS Final Energy:  -503.56664766679035
    Total Energy =                       -503.5666476667903453
  @DF-UKS Final Energy:  -503.56664883171982
    Total Energy =                       -503.5666488317198173
  @DF-UKS Final Energy:  -503.56664999482859
    Total Energy =                       -503.5666499948285946
  @DF-UKS Final Energy:  -503.56665115407606
    Total Energy =                       -503.5666511540759984
  @DF-UKS Final Energy:  -503.56665230966627
    Total Energy =                       -503.5666523096662672
  @DF-UKS Final Energy:  -503.56665346154540
    Total Energy =                       -503.5666534615453998
  @DF-UKS Final Energy:  -503.56665460967832
    Total Energy =                       -503.5666546096783236
  @DF-UKS Final Energy:  -503.56665575412393
    Total Energy =                       -503.5666557541239285
  Basis Set: (CC-PVDZ AUX)
    Blend: CC-PVDZ-JKFIT + DEF2-UNIVERSAL-JKFIT
  Basis Set: CC-PVDZ
    Blend: CC-PVDZ
  Basis Set: (CC-PVDZ AUX)
    Blend: CC-PVDZ-JKFIT + DEF2-UNIVERSAL-JKFIT
  @DF-UKS Final Energy:  -503.56691511134608
    Total Energy =                       -503.5669151113460771
  Basis Set: CC-PVDZ
    Blend: CC-PVDZ
  Basis Set: (CC-PVDZ AUX)
    Blend: CC-PVDZ-JKFIT + DEF2-UNIVERSAL-JKFIT
  Charge       = 0
  Multiplicity = 5
  Basis Set: CC-PVDZ
    Blend: CC-PVDZ
  Basis Set: (CC-PVDZ AUX)
    Blend: CC-PVDZ-JKFIT + DEF2-UNIVERSAL-JKFIT

    Orbital Energies [Eh]
    ---------------------

    Alpha Occupied:

       1A1   -77.119072     2A1   -38.478998     3A1    -6.587127
       4A1    -4.750553     1B1    -4.750531     1B2    -4.750531
       5A1    -2.223718     6A1    -1.154574     2B1    -1.154542
       2B2    -1.154542     7A1    -0.597592     8A1    -0.258637
       3B1    -0.258090     3B2    -0.258090     9A1    -0.127398

    Alpha Virtual:

       4B2    -0.020446     4B1    -0.020446    10A1    -0.017649
      11A1     0.054646    12A1     0.076264     5B1     0.076490
       5B2     0.076490    13A1     0.156668     1A2     0.159474
      14A1     0.159474     6B2     0.159685     6B1     0.159685
      15A1     0.359263     7B1     0.402872     7B2     0.402872
      16A1     0.427207    17A1     0.430935     2A2     0.430994
       8B1     0.431368     8B2     0.431368    18A1     0.443509

    Beta Occupied:

       1A1   -77.106838     2A1   -38.477531     3A1    -6.574184
       4A1    -4.731447     1B1    -4.731398     1B2    -4.731398
       5A1    -2.220772     6A1    -1.152654     2B2    -1.152622
       2B1    -1.152622     7A1    -0.480907

    Beta Virtual:

       8A1    -0.114440     3B1    -0.111392     3B2    -0.111392
       9A1    -0.062386     4B1     0.003663     4B2     0.003663
      10A1     0.005991    11A1     0.069754    12A1     0.094067
       5B1     0.094944     5B2     0.094944    13A1     0.186499
       1A2     0.188748    14A1     0.188749     6B2     0.189392
       6B1     0.189392    15A1     0.403314     7B1     0.452333
       7B2     0.452333    16A1     0.483825    17A1     0.527958
       2A2     0.528013     8B1     0.528138     8B2     0.528138
      18A1     0.530464

    Final Occupation by Irrep:
             A1    A2    B1    B2
    DOCC [     7,    0,    2,    2 ]
    SOCC [     2,    0,    1,    1 ]
    NA   [     9,    0,    3,    3 ]
    NB   [     7,    0,    2,    2 ]

  @DF-UKS Final Energy:  -503.56691551036056

   => Energetics <=

    Nuclear Repulsion Energy =             16.6558081361313768
    One-Electron Energy =                -732.6947082077922460
    Two-Electron Energy =                 242.7858332729170741
    DFT Exchange-Correlation Energy =     -30.3138487116167532
    Empirical Dispersion Energy =           0.0000000000000000
    VV10 Nonlocal Energy =                  0.0000000000000000
    Total Energy =                       -503.5669155103605590

  UHF NO Occupations:
  HONO-2 :    3 B1 1.0000000
  HONO-1 :    3 B2 1.0000000
  HONO-0 :    9 A1 1.0000000
  LUNO+0 :   10 A1 0.0001313
  LUNO+1 :    4 B1 0.0000012
  LUNO+2 :    4 B2 0.0000012
  LUNO+3 :   11 A1 0.0000011

Computation Completed

Properties will be evaluated at   0.000000,   0.000000,   0.000000 [a0]

Properties computed using the SCF density matrix

 Multipole Moments:

 ------------------------------------------------------------------------------------
     Multipole            Electronic (a.u.)      Nuclear  (a.u.)        Total (a.u.)
 ------------------------------------------------------------------------------------

 L = 1.  Multiply by 2.5417464519 to convert [e a0] to [Debye]
 Dipole X            :          0.0000000            0.0000000            0.0000000
 Dipole Y            :          0.0000000            0.0000000            0.0000000
 Dipole Z            :          0.6485391           -0.7591191           -0.1105800
 Magnitude           :                                                    0.1105800

 ------------------------------------------------------------------------------------

*** tstop() called on Joses-MacBook-Pro-2.local at Wed Jul 16 19:47:48 2025
Module time:
	user time   =       5.92 seconds =       0.10 minutes
	system time =       4.19 seconds =       0.07 minutes
	total time  =          1 seconds =       0.02 minutes
Total time:
	user time   =     442.82 seconds =       7.38 minutes
	system time =     216.57 seconds =       3.61 minutes
	total time  =         67 seconds =       1.12 minutes

*** tstart() called on Joses-MacBook-Pro-2.local
*** at Wed Jul 16 19:47:48 2025

         ------------------------------------------------------------
                                   SCF GRAD
                          Rob Parrish, Justin Turney,
                       Andy Simmonett, and Alex Sokolov
         ------------------------------------------------------------

  ==> Geometry <==

    Molecular point group: c2v
    Full point group: C_inf_v

    Geometry (in Angstrom), charge = 0, multiplicity = 5:

       Center              X                  Y                   Z               Mass
    ------------   -----------------  -----------------  -----------------  -----------------
         NA           0.000000000000     0.000000000000     3.008936087828    22.989769282000
         P            0.000000000000     0.000000000000    -2.233333698598    30.973761998420

  Nuclear repulsion =   16.655808136131377

  ==> Basis Set <==

  Basis Set: CC-PVDZ
    Blend: CC-PVDZ
    Number of shells: 16
    Number of basis functions: 36
    Number of Cartesian functions: 38
    Spherical Harmonics?: true
    Max angular momentum: 2

  ==> DFJKGrad: Density-Fitted SCF Gradients <==

    Gradient:                    1
    J tasked:                  Yes
    K tasked:                  Yes
    wK tasked:                  No
    OpenMP threads:              1
    Integrals threads:           1
    Memory [MiB]:              375
    Schwarz Cutoff:          1E-12
    Fitting Condition:       1E-10

   => Auxiliary Basis Set <=

  Basis Set: (CC-PVDZ AUX)
    Blend: CC-PVDZ-JKFIT + DEF2-UNIVERSAL-JKFIT
    Number of shells: 70
    Number of basis functions: 224
    Number of Cartesian functions: 267
    Spherical Harmonics?: true
    Max angular momentum: 4

  ==> DFT Potential <==

   => LibXC <=

    Version 6.2.2
    S. Lehtola, C. Steigemann, M. J.T. Oliveira, and M. A.L. Marques.,  SoftwareX 7, 1â€“5 (2018) (10.1016/j.softx.2017.11.002)

   => Composite Functional: B3LYP <=

    B3LYP Hyb-GGA Exchange-Correlation Functional

    P. J. Stephens, F. J. Devlin, C. F. Chabalowski, and M. J. Frisch.,  J. Phys. Chem. 98, 11623 (1994) (10.1021/j100096a001)

    Deriv               =              1
    GGA                 =           TRUE
    Meta                =          FALSE

    Exchange Hybrid     =           TRUE
    MP2 Hybrid          =          FALSE

   => Exchange Functionals <=

    0.0800   Slater exchange
    0.7200         Becke 88

   => Exact (HF) Exchange <=

    0.2000               HF

   => Correlation Functionals <=

    0.1900   Vosko, Wilk & Nusair (VWN5_RPA)
    0.8100   Lee, Yang & Parr

   => LibXC Density Thresholds  <==

    XC_HYB_GGA_XC_B3LYP:  1.00E-15

   => Molecular Quadrature <=

    Radial Scheme          =       TREUTLER
    Pruning Scheme         =           NONE
    Nuclear Scheme         =       TREUTLER

    Blocking Scheme        =         OCTREE
    BS radius alpha        =              1
    Pruning alpha          =              1
    Radial Points          =             75
    Spherical Points       =            302
    Total Points           =          43923
    Total Blocks           =            468
    Max Points             =            255
    Max Functions          =             36
    Weights Tolerance      =       1.00E-15

  -Total Gradient:
     Atom            X                  Y                   Z
    ------   -----------------  -----------------  -----------------
       1        0.000000000000    -0.000000000000    -0.000283943106
       2       -0.000000000000     0.000000000000     0.000293809324

*** tstop() called on Joses-MacBook-Pro-2.local at Wed Jul 16 19:47:48 2025
Module time:
	user time   =       1.06 seconds =       0.02 minutes
	system time =       2.45 seconds =       0.04 minutes
	total time  =          0 seconds =       0.00 minutes
Total time:
	user time   =     443.88 seconds =       7.40 minutes
	system time =     219.03 seconds =       3.65 minutes
	total time  =         67 seconds =       1.12 minutes

    			-----------------------------------------

    			 OPTKING 3.0: for geometry optimizations

    			     By R.A. King, Bethel University

    			        with contributions from

    			    A.V. Copan, J. Cayton, A. Heide

    			-----------------------------------------

	                            ===> Fragment 1 <==

	 Z (Atomic Numbers)          Masses                          Geom
	      11.000000            22.989769          0.00000000  0.00000000  5.68606514
	      15.000000            30.973762          0.00000000  0.00000000 -4.22038904

	 - Coordinate -           - BOHR/RAD -       - ANG/DEG -
	 R(1,2)           =         9.906454           5.242270

	        --- Internal Coordinate Step in ANG or DEG, aJ/ANG or AJ/DEG ---
	-------------------------------------------------------------------------------
	           Coordinate      Previous         Force          Change          New
	           ----------      --------        ------          ------        ------
	               R(1,2)       5.24227        0.00238        0.00074       5.24301
	-------------------------------------------------------------------------------

	                                 ==> Convergence Check <==

	Measures of convergence in internal coordinates in au.

	Criteria marked as inactive (o), active & met (*), and active & unmet ( ).

	----------------------------------------------------------------------------------------------
	   Step    Total Energy     Delta E     Max Force     RMS Force      Max Disp      RMS Disp
	----------------------------------------------------------------------------------------------
	  Convergence Criteria     1.00e-06 *    3.00e-04 *             o    1.20e-03 *             o
	----------------------------------------------------------------------------------------------
	    35    -503.56691551   -3.99e-07 *    2.89e-04 *    2.89e-04 o    1.39e-03      1.39e-03 o  ~
	----------------------------------------------------------------------------------------------

Next Geometry in Ang
	Fragment 1 (Ang)

	   Na   0.0000000000   0.0000000000   3.0093049267
	    P   0.0000000000   0.0000000000  -2.2337025375

    Final optimized geometry and variables:
    Molecular point group: c2v
    Full point group: C_inf_v

    Geometry (in Angstrom), charge = 0, multiplicity = 5:

    NA           0.000000000000     0.000000000000     3.008936087828
    P            0.000000000000     0.000000000000    -2.233333698598

    Psi4 stopped on: Wednesday, 16 July 2025 07:47PM
    Psi4 wall time for execution: 0:01:07.70

*** Psi4 exiting successfully. Buy a developer a beer!
