                               Psi4 1.9.1 release

  ==> Input File <==

--------------------------------------------------------------------------
molecule {
0 5
O   0.00000        0.60000        0.00000
O   0.00000       -0.60000        0.00000
}

set {
basis              cc-pvdz
reference          uks
maxiter            500
geom_maxiter       500
DAMPING_PERCENTAGE 1
guess              SAP
}

optimize('b3lyp')
--------------------------------------------------------------------------

    Molecular point group: d2h
  Charge       = 0
  Multiplicity = 5
  Basis Set: CC-PVDZ
    Blend: CC-PVDZ
  Basis Set: (CC-PVDZ AUX)
    Blend: CC-PVDZ-JKFIT
  @DF-UKS Final Energy:  -149.76218562477075
    Total Energy =                       -149.7621856247707228
 Dipole X            :          0.0000000            0.0000000            0.0000000
 Dipole Y            :          0.0000000            0.0000000            0.0000000
 Dipole Z            :          0.0000000            0.0000000            0.0000000
 Magnitude           :                                                    0.0000000
    Molecular point group: d2h
  Basis Set: CC-PVDZ
    Blend: CC-PVDZ
  Basis Set: (CC-PVDZ AUX)
    Blend: CC-PVDZ-JKFIT
  Basis Set: CC-PVDZ
    Blend: CC-PVDZ
  Basis Set: (CC-PVDZ AUX)
    Blend: CC-PVDZ-JKFIT
  @DF-UKS Final Energy:  -150.01258085502258
    Total Energy =                       -150.0125808550225486
  Basis Set: CC-PVDZ
    Blend: CC-PVDZ
  Basis Set: (CC-PVDZ AUX)
    Blend: CC-PVDZ-JKFIT
  Basis Set: CC-PVDZ
    Blend: CC-PVDZ
  @DF-UKS Final Energy:  -150.05802905943216
    Total Energy =                       -150.0580290594321866
  @DF-UKS Final Energy:  -150.08604916691419
    Total Energy =                       -150.0860491669141936
  @DF-UKS Final Energy:  -150.09490239091656
    Total Energy =                       -150.0949023909165589
  @DF-UKS Final Energy:  -150.09917532419999
    Total Energy =                       -150.0991753241999902
  @DF-UKS Final Energy:  -150.10095986228134
    Total Energy =                       -150.1009598622813428
  @DF-UKS Final Energy:  -150.10136214305476
    Total Energy =                       -150.1013621430547573
  @DF-UKS Final Energy:  -150.10148351566673
    Total Energy =                       -150.1014835156667289
  @DF-UKS Final Energy:  -150.10150438092984
    Total Energy =                       -150.1015043809298390
  Basis Set: (CC-PVDZ AUX)
    Blend: CC-PVDZ-JKFIT
  Basis Set: CC-PVDZ
    Blend: CC-PVDZ
  Basis Set: (CC-PVDZ AUX)
    Blend: CC-PVDZ-JKFIT
  @DF-UKS Final Energy:  -150.10150862126912
    Total Energy =                       -150.1015086212691187
  Basis Set: CC-PVDZ
    Blend: CC-PVDZ
  Basis Set: (CC-PVDZ AUX)
    Blend: CC-PVDZ-JKFIT
  Charge       = 0
  Multiplicity = 5
  Basis Set: CC-PVDZ
    Blend: CC-PVDZ
  Basis Set: (CC-PVDZ AUX)
    Blend: CC-PVDZ-JKFIT

    Orbital Energies [Eh]
    ---------------------

    Alpha Occupied:

       1B2u  -19.291651     1Ag   -19.291605     2Ag    -1.046494
       2B2u   -0.994941     3Ag    -0.512021     1B1u   -0.435291
       1B3u   -0.435291     1B3g   -0.401804     1B1g   -0.401804
       3B2u   -0.385883

    Alpha Virtual:

       2B1u    0.767838     2B3u    0.767838     4Ag     0.850783
       4B2u    0.853739     2B3g    0.914853     2B1g    0.914853
       5Ag     1.000063     5B2u    1.436961     6Ag     2.386314
       3B3u    2.440348     3B1u    2.440348     1B2g    2.484161
       7Ag     2.484172     3B1g    2.486132     3B3g    2.486132
       1Au     2.487144     6B2u    2.487155     7B2u    2.721594

    Beta Occupied:

       1B2u  -19.238420     1Ag   -19.238413     2Ag    -0.890978
       2B2u   -0.829691     1B1u   -0.294077     1B3u   -0.294077

    Beta Virtual:

       3Ag    -0.234194     1B3g   -0.203171     1B1g   -0.203171
       3B2u   -0.081936     2B1u    0.842279     2B3u    0.842279
       4B2u    0.957063     4Ag     0.973061     2B3g    0.984931
       2B1g    0.984931     5Ag     1.083789     5B2u    1.524404
       6Ag     2.536821     3B3u    2.572614     3B1u    2.572614
       1B2g    2.579967     7Ag     2.579980     1Au     2.584348
       6B2u    2.584361     3B3g    2.619270     3B1g    2.619270
       7B2u    2.862758

    Final Occupation by Irrep:
             Ag   B1g   B2g   B3g    Au   B1u   B2u   B3u
    DOCC [     2,    0,    0,    0,    0,    1,    2,    1 ]
    SOCC [     1,    1,    0,    1,    0,    0,    1,    0 ]
    NA   [     3,    1,    0,    1,    0,    1,    3,    1 ]
    NB   [     2,    0,    0,    0,    0,    1,    2,    1 ]

  @DF-UKS Final Energy:  -150.10150902497784

   => Energetics <=

    Nuclear Repulsion Energy =             16.6609059911070858
    One-Electron Energy =                -239.7191053061981165
    Two-Electron Energy =                  86.6258924036060876
    DFT Exchange-Correlation Energy =     -13.6692021134928936
    Empirical Dispersion Energy =           0.0000000000000000
    VV10 Nonlocal Energy =                  0.0000000000000000
    Total Energy =                       -150.1015090249778439

  UHF NO Occupations:
  HONO-2 :    3 Ag 1.0000000
  HONO-1 :    1B3g 1.0000000
  HONO-0 :    3B2u 1.0000000
  LUNO+0 :    2B3u 0.0021306
  LUNO+1 :    2B1u 0.0021306
  LUNO+2 :    4 Ag 0.0006137
  LUNO+3 :    4B2u 0.0004994

Computation Completed

Properties will be evaluated at   0.000000,   0.000000,   0.000000 [a0]

Properties computed using the SCF density matrix

 Multipole Moments:

 ------------------------------------------------------------------------------------
     Multipole            Electronic (a.u.)      Nuclear  (a.u.)        Total (a.u.)
 ------------------------------------------------------------------------------------

 L = 1.  Multiply by 2.5417464519 to convert [e a0] to [Debye]
 Dipole X            :          0.0000000            0.0000000            0.0000000
 Dipole Y            :          0.0000000            0.0000000            0.0000000
 Dipole Z            :          0.0000000            0.0000000            0.0000000
 Magnitude           :                                                    0.0000000

 ------------------------------------------------------------------------------------

*** tstop() called on Joses-MacBook-Pro-2.local at Wed Jul 16 19:17:06 2025
Module time:
	user time   =       3.38 seconds =       0.06 minutes
	system time =       3.20 seconds =       0.05 minutes
	total time  =          0 seconds =       0.00 minutes
Total time:
	user time   =      57.85 seconds =       0.96 minutes
	system time =      56.24 seconds =       0.94 minutes
	total time  =         11 seconds =       0.18 minutes

*** tstart() called on Joses-MacBook-Pro-2.local
*** at Wed Jul 16 19:17:06 2025

         ------------------------------------------------------------
                                   SCF GRAD
                          Rob Parrish, Justin Turney,
                       Andy Simmonett, and Alex Sokolov
         ------------------------------------------------------------

  ==> Geometry <==

    Molecular point group: d2h
    Full point group: D_inf_h

    Geometry (in Angstrom), charge = 0, multiplicity = 5:

       Center              X                  Y                   Z               Mass
    ------------   -----------------  -----------------  -----------------  -----------------
         O           -0.000000000000     1.016371543689     0.000000000000    15.994914619570
         O            0.000000000000    -1.016371543689     0.000000000000    15.994914619570

  Nuclear repulsion =   16.660905991107086

  ==> Basis Set <==

  Basis Set: CC-PVDZ
    Blend: CC-PVDZ
    Number of shells: 12
    Number of basis functions: 28
    Number of Cartesian functions: 30
    Spherical Harmonics?: true
    Max angular momentum: 2

  ==> DFJKGrad: Density-Fitted SCF Gradients <==

    Gradient:                    1
    J tasked:                  Yes
    K tasked:                  Yes
    wK tasked:                  No
    OpenMP threads:              1
    Integrals threads:           1
    Memory [MiB]:              375
    Schwarz Cutoff:          1E-12
    Fitting Condition:       1E-10

   => Auxiliary Basis Set <=

  Basis Set: (CC-PVDZ AUX)
    Blend: CC-PVDZ-JKFIT
    Number of shells: 48
    Number of basis functions: 140
    Number of Cartesian functions: 162
    Spherical Harmonics?: true
    Max angular momentum: 3

  ==> DFT Potential <==

   => LibXC <=

    Version 6.2.2
    S. Lehtola, C. Steigemann, M. J.T. Oliveira, and M. A.L. Marques.,  SoftwareX 7, 1â€“5 (2018) (10.1016/j.softx.2017.11.002)

   => Composite Functional: B3LYP <=

    B3LYP Hyb-GGA Exchange-Correlation Functional

    P. J. Stephens, F. J. Devlin, C. F. Chabalowski, and M. J. Frisch.,  J. Phys. Chem. 98, 11623 (1994) (10.1021/j100096a001)

    Deriv               =              1
    GGA                 =           TRUE
    Meta                =          FALSE

    Exchange Hybrid     =           TRUE
    MP2 Hybrid          =          FALSE

   => Exchange Functionals <=

    0.0800   Slater exchange
    0.7200         Becke 88

   => Exact (HF) Exchange <=

    0.2000               HF

   => Correlation Functionals <=

    0.1900   Vosko, Wilk & Nusair (VWN5_RPA)
    0.8100   Lee, Yang & Parr

   => LibXC Density Thresholds  <==

    XC_HYB_GGA_XC_B3LYP:  1.00E-15

   => Molecular Quadrature <=

    Radial Scheme          =       TREUTLER
    Pruning Scheme         =           NONE
    Nuclear Scheme         =       TREUTLER

    Blocking Scheme        =         OCTREE
    BS radius alpha        =              1
    Pruning alpha          =              1
    Radial Points          =             75
    Spherical Points       =            302
    Total Points           =          41562
    Total Blocks           =            378
    Max Points             =            256
    Max Functions          =             28
    Weights Tolerance      =       1.00E-15

  -Total Gradient:
     Atom            X                  Y                   Z
    ------   -----------------  -----------------  -----------------
       1        0.000000000000    -0.000037324352     0.000000000000
       2       -0.000000000000     0.000037324352     0.000000000000

*** tstop() called on Joses-MacBook-Pro-2.local at Wed Jul 16 19:17:07 2025
Module time:
	user time   =       0.90 seconds =       0.02 minutes
	system time =       1.01 seconds =       0.02 minutes
	total time  =          1 seconds =       0.02 minutes
Total time:
	user time   =      58.76 seconds =       0.98 minutes
	system time =      57.26 seconds =       0.95 minutes
	total time  =         12 seconds =       0.20 minutes

    			-----------------------------------------

    			 OPTKING 3.0: for geometry optimizations

    			     By R.A. King, Bethel University

    			        with contributions from

    			    A.V. Copan, J. Cayton, A. Heide

    			-----------------------------------------

	                            ===> Fragment 1 <==

	 Z (Atomic Numbers)          Masses                          Geom
	       8.000000            15.994915         -0.00000000  1.92066386  0.00000000
	       8.000000            15.994915          0.00000000 -1.92066386  0.00000000

	 - Coordinate -           - BOHR/RAD -       - ANG/DEG -
	 R(1,2)           =         3.841328           2.032743

	        --- Internal Coordinate Step in ANG or DEG, aJ/ANG or AJ/DEG ---
	-------------------------------------------------------------------------------
	           Coordinate      Previous         Force          Change          New
	           ----------      --------        ------          ------        ------
	               R(1,2)       2.03274        0.00031        0.00034       2.03308
	-------------------------------------------------------------------------------

	                                 ==> Convergence Check <==

	Measures of convergence in internal coordinates in au.

	Criteria marked as inactive (o), active & met (*), and active & unmet ( ).

	----------------------------------------------------------------------------------------------
	   Step    Total Energy     Delta E     Max Force     RMS Force      Max Disp      RMS Disp
	----------------------------------------------------------------------------------------------
	  Convergence Criteria     1.00e-06 *    3.00e-04 *             o    1.20e-03 *             o
	----------------------------------------------------------------------------------------------
	    12    -150.10150902   -4.04e-07 *    3.73e-05 *    3.73e-05 o    6.44e-04 *    6.44e-04 o  ~
	----------------------------------------------------------------------------------------------

Next Geometry in Ang
	Fragment 1 (Ang)

	    O  -0.0000000000   1.0165420086   0.0000000000
	    O   0.0000000000  -1.0165420086   0.0000000000

    Final optimized geometry and variables:
    Molecular point group: d2h
    Full point group: D_inf_h

    Geometry (in Angstrom), charge = 0, multiplicity = 5:

    O           -0.000000000000     1.016371543689     0.000000000000
    O            0.000000000000    -1.016371543689     0.000000000000

    Psi4 stopped on: Wednesday, 16 July 2025 07:17PM
    Psi4 wall time for execution: 0:00:12.32

*** Psi4 exiting successfully. Buy a developer a beer!
