                               Psi4 1.9.1 release

  ==> Input File <==

--------------------------------------------------------------------------
molecule {
0 5
Be   0.00000        0.60000        0.00000
Si   0.00000       -0.60000        0.00000
}

set {
basis              cc-pvdz
reference          uks
maxiter            500
geom_maxiter       500
DAMPING_PERCENTAGE 1
guess              SAP
}

optimize('b3lyp')
--------------------------------------------------------------------------

    Molecular point group: c2v
  Charge       = 0
  Multiplicity = 5
  Basis Set: CC-PVDZ
    Blend: CC-PVDZ
  Basis Set: (CC-PVDZ AUX)
    Blend: CC-PVDZ-JKFIT + DEF2-UNIVERSAL-JKFIT
  @DF-UKS Final Energy:  -303.53664934232995
    Total Energy =                       -303.5366493423298948
 Dipole X            :          0.0000000            0.0000000            0.0000000
 Dipole Y            :          0.0000000            0.0000000            0.0000000
 Dipole Z            :         -0.1275776           -0.8744053           -1.0019829
 Magnitude           :                                                    1.0019829
    Molecular point group: c2v
  Basis Set: CC-PVDZ
    Blend: CC-PVDZ
  Basis Set: (CC-PVDZ AUX)
    Blend: CC-PVDZ-JKFIT + DEF2-UNIVERSAL-JKFIT
  Basis Set: CC-PVDZ
    Blend: CC-PVDZ
  Basis Set: (CC-PVDZ AUX)
    Blend: CC-PVDZ-JKFIT + DEF2-UNIVERSAL-JKFIT
  @DF-UKS Final Energy:  -303.74557740794842
    Total Energy =                       -303.7455774079484740
  Basis Set: CC-PVDZ
    Blend: CC-PVDZ
  Basis Set: (CC-PVDZ AUX)
    Blend: CC-PVDZ-JKFIT + DEF2-UNIVERSAL-JKFIT
  Basis Set: CC-PVDZ
    Blend: CC-PVDZ
  @DF-UKS Final Energy:  -303.91286997978835
    Total Energy =                       -303.9128699797883542
  @DF-UKS Final Energy:  -304.01183024332710
    Total Energy =                       -304.0118302433270969
  @DF-UKS Final Energy:  -304.05329934339176
    Total Energy =                       -304.0532993433917568
  @DF-UKS Final Energy:  -304.06890276335190
    Total Energy =                       -304.0689027633519004
  @DF-UKS Final Energy:  -304.07340709936398
    Total Energy =                       -304.0734070993639762
  @DF-UKS Final Energy:  -304.07410263498861
    Total Energy =                       -304.0741026349886624
  @DF-UKS Final Energy:  -304.07422285699249
    Total Energy =                       -304.0742228569924919
  @DF-UKS Final Energy:  -304.07424836958904
    Total Energy =                       -304.0742483695890428
  Basis Set: (CC-PVDZ AUX)
    Blend: CC-PVDZ-JKFIT + DEF2-UNIVERSAL-JKFIT
  Basis Set: CC-PVDZ
    Blend: CC-PVDZ
  Basis Set: (CC-PVDZ AUX)
    Blend: CC-PVDZ-JKFIT + DEF2-UNIVERSAL-JKFIT
  @DF-UKS Final Energy:  -304.07425022304761
    Total Energy =                       -304.0742502230476134
  Basis Set: CC-PVDZ
    Blend: CC-PVDZ
  Basis Set: (CC-PVDZ AUX)
    Blend: CC-PVDZ-JKFIT + DEF2-UNIVERSAL-JKFIT
  Charge       = 0
  Multiplicity = 5
  Basis Set: CC-PVDZ
    Blend: CC-PVDZ
  Basis Set: (CC-PVDZ AUX)
    Blend: CC-PVDZ-JKFIT + DEF2-UNIVERSAL-JKFIT

    Orbital Energies [Eh]
    ---------------------

    Alpha Occupied:

       1A1   -66.158378     2A1    -5.304595     3A1    -4.100266
       1B2    -3.663925     1B1    -3.663925     4A1    -3.663783
       5A1    -0.501486     6A1    -0.295739     2B2    -0.215876
       2B1    -0.215876     7A1    -0.190310

    Alpha Virtual:

       3B2    -0.044006     3B1    -0.044006     8A1     0.067972
       9A1     0.129000     4B2     0.173046     4B1     0.173046
      10A1     0.177390    11A1     0.283022     5B2     0.299647
       5B1     0.299647    12A1     0.312099     1A2     0.312099
       6B2     0.343310     6B1     0.343310    13A1     0.432866
      14A1     0.485448     2A2     0.485448    15A1     0.632124
       7B2     0.663695     7B1     0.663695    16A1     0.845104

    Beta Occupied:

       1A1   -66.150417     2A1    -5.295261     3A1    -4.084760
       1B2    -3.651440     1B1    -3.651440     4A1    -3.651068
       5A1    -0.412275

    Beta Virtual:

       6A1    -0.163746     2B2    -0.104851     2B1    -0.104851
       7A1    -0.047462     3B2     0.017888     3B1     0.017888
       8A1     0.097336     9A1     0.183479     4B2     0.200562
       4B1     0.200562    10A1     0.232877    11A1     0.337595
       5B2     0.347514     5B1     0.347514    12A1     0.382660
       1A2     0.382661     6B2     0.410592     6B1     0.410592
      13A1     0.470141    14A1     0.544235     2A2     0.544236
      15A1     0.694507     7B2     0.738288     7B1     0.738288
      16A1     0.903819

    Final Occupation by Irrep:
             A1    A2    B1    B2
    DOCC [     5,    0,    1,    1 ]
    SOCC [     2,    0,    1,    1 ]
    NA   [     7,    0,    2,    2 ]
    NB   [     5,    0,    1,    1 ]

  @DF-UKS Final Energy:  -304.07425037491527

   => Energetics <=

    Nuclear Repulsion Energy =             14.0016669501910656
    One-Electron Energy =                -447.6597454925554302
    Two-Electron Energy =                 148.6714194106244236
    DFT Exchange-Correlation Energy =     -19.0875912431753250
    Empirical Dispersion Energy =           0.0000000000000000
    VV10 Nonlocal Energy =                  0.0000000000000000
    Total Energy =                       -304.0742503749152661

  UHF NO Occupations:
  HONO-2 :    6 A1 1.0000000
  HONO-1 :    2 B2 1.0000000
  HONO-0 :    7 A1 1.0000000
  LUNO+0 :    8 A1 0.0001997
  LUNO+1 :    9 A1 0.0000002
  LUNO+2 :    3 B2 0.0000001
  LUNO+3 :    3 B1 0.0000001

Computation Completed

Properties will be evaluated at   0.000000,   0.000000,   0.000000 [a0]

Properties computed using the SCF density matrix

 Multipole Moments:

 ------------------------------------------------------------------------------------
     Multipole            Electronic (a.u.)      Nuclear  (a.u.)        Total (a.u.)
 ------------------------------------------------------------------------------------

 L = 1.  Multiply by 2.5417464519 to convert [e a0] to [Debye]
 Dipole X            :          0.0000000            0.0000000            0.0000000
 Dipole Y            :          0.0000000            0.0000000            0.0000000
 Dipole Z            :          1.2521164           -1.5422008           -0.2900844
 Magnitude           :                                                    0.2900844

 ------------------------------------------------------------------------------------

*** tstop() called on Joses-MacBook-Pro-2.local at Wed Jul 16 18:45:02 2025
Module time:
	user time   =       4.54 seconds =       0.08 minutes
	system time =       3.46 seconds =       0.06 minutes
	total time  =          1 seconds =       0.02 minutes
Total time:
	user time   =      84.58 seconds =       1.41 minutes
	system time =      58.50 seconds =       0.97 minutes
	total time  =         15 seconds =       0.25 minutes

*** tstart() called on Joses-MacBook-Pro-2.local
*** at Wed Jul 16 18:45:02 2025

         ------------------------------------------------------------
                                   SCF GRAD
                          Rob Parrish, Justin Turney,
                       Andy Simmonett, and Alex Sokolov
         ------------------------------------------------------------

  ==> Geometry <==

    Molecular point group: c2v
    Full point group: C_inf_v

    Geometry (in Angstrom), charge = 0, multiplicity = 5:

       Center              X                  Y                   Z               Mass
    ------------   -----------------  -----------------  -----------------  -----------------
         BE           0.000000000000     0.000000000000     1.600794346933     9.012183065000
         SI           0.000000000000     0.000000000000    -0.515662493738    27.976926534650

  Nuclear repulsion =   14.001666950191064

  ==> Basis Set <==

  Basis Set: CC-PVDZ
    Blend: CC-PVDZ
    Number of shells: 14
    Number of basis functions: 32
    Number of Cartesian functions: 34
    Spherical Harmonics?: true
    Max angular momentum: 2

  ==> DFJKGrad: Density-Fitted SCF Gradients <==

    Gradient:                    1
    J tasked:                  Yes
    K tasked:                  Yes
    wK tasked:                  No
    OpenMP threads:              1
    Integrals threads:           1
    Memory [MiB]:              375
    Schwarz Cutoff:          1E-12
    Fitting Condition:       1E-10

   => Auxiliary Basis Set <=

  Basis Set: (CC-PVDZ AUX)
    Blend: CC-PVDZ-JKFIT + DEF2-UNIVERSAL-JKFIT
    Number of shells: 53
    Number of basis functions: 163
    Number of Cartesian functions: 190
    Spherical Harmonics?: true
    Max angular momentum: 3

  ==> DFT Potential <==

   => LibXC <=

    Version 6.2.2
    S. Lehtola, C. Steigemann, M. J.T. Oliveira, and M. A.L. Marques.,  SoftwareX 7, 1â€“5 (2018) (10.1016/j.softx.2017.11.002)

   => Composite Functional: B3LYP <=

    B3LYP Hyb-GGA Exchange-Correlation Functional

    P. J. Stephens, F. J. Devlin, C. F. Chabalowski, and M. J. Frisch.,  J. Phys. Chem. 98, 11623 (1994) (10.1021/j100096a001)

    Deriv               =              1
    GGA                 =           TRUE
    Meta                =          FALSE

    Exchange Hybrid     =           TRUE
    MP2 Hybrid          =          FALSE

   => Exchange Functionals <=

    0.0800   Slater exchange
    0.7200         Becke 88

   => Exact (HF) Exchange <=

    0.2000               HF

   => Correlation Functionals <=

    0.1900   Vosko, Wilk & Nusair (VWN5_RPA)
    0.8100   Lee, Yang & Parr

   => LibXC Density Thresholds  <==

    XC_HYB_GGA_XC_B3LYP:  1.00E-15

   => Molecular Quadrature <=

    Radial Scheme          =       TREUTLER
    Pruning Scheme         =           NONE
    Nuclear Scheme         =       TREUTLER

    Blocking Scheme        =         OCTREE
    BS radius alpha        =              1
    Pruning alpha          =              1
    Radial Points          =             75
    Spherical Points       =            302
    Total Points           =          42483
    Total Blocks           =            393
    Max Points             =            255
    Max Functions          =             32
    Weights Tolerance      =       1.00E-15

  -Total Gradient:
     Atom            X                  Y                   Z
    ------   -----------------  -----------------  -----------------
       1       -0.000000000000     0.000000000000    -0.000023568290
       2        0.000000000000     0.000000000000     0.000018221161

*** tstop() called on Joses-MacBook-Pro-2.local at Wed Jul 16 18:45:02 2025
Module time:
	user time   =       1.63 seconds =       0.03 minutes
	system time =       1.52 seconds =       0.03 minutes
	total time  =          0 seconds =       0.00 minutes
Total time:
	user time   =      86.21 seconds =       1.44 minutes
	system time =      60.03 seconds =       1.00 minutes
	total time  =         15 seconds =       0.25 minutes

    			-----------------------------------------

    			 OPTKING 3.0: for geometry optimizations

    			     By R.A. King, Bethel University

    			        with contributions from

    			    A.V. Copan, J. Cayton, A. Heide

    			-----------------------------------------

	                            ===> Fragment 1 <==

	 Z (Atomic Numbers)          Masses                          Geom
	       4.000000             9.012183          0.00000000  0.00000000  3.02506290
	      14.000000            27.976927          0.00000000  0.00000000 -0.97446089

	 - Coordinate -           - BOHR/RAD -       - ANG/DEG -
	 R(1,2)           =         3.999524           2.116457

	        --- Internal Coordinate Step in ANG or DEG, aJ/ANG or AJ/DEG ---
	-------------------------------------------------------------------------------
	           Coordinate      Previous         Force          Change          New
	           ----------      --------        ------          ------        ------
	               R(1,2)       2.11646        0.00017        0.00011       2.11657
	-------------------------------------------------------------------------------

	                                 ==> Convergence Check <==

	Measures of convergence in internal coordinates in au.

	Criteria marked as inactive (o), active & met (*), and active & unmet ( ).

	----------------------------------------------------------------------------------------------
	   Step    Total Energy     Delta E     Max Force     RMS Force      Max Disp      RMS Disp
	----------------------------------------------------------------------------------------------
	  Convergence Criteria     1.00e-06 *    3.00e-04 *             o    1.20e-03 *             o
	----------------------------------------------------------------------------------------------
	    12    -304.07425037   -1.52e-07 *    2.09e-05 *    2.09e-05 o    2.11e-04 *    2.11e-04 o  ~
	----------------------------------------------------------------------------------------------

Next Geometry in Ang
	Fragment 1 (Ang)

	   Be   0.0000000000   0.0000000000   1.6008501610
	   Si   0.0000000000   0.0000000000  -0.5157183078

    Final optimized geometry and variables:
    Molecular point group: c2v
    Full point group: C_inf_v

    Geometry (in Angstrom), charge = 0, multiplicity = 5:

    BE           0.000000000000     0.000000000000     1.600794346933
    SI           0.000000000000     0.000000000000    -0.515662493738

    Psi4 stopped on: Wednesday, 16 July 2025 06:45PM
    Psi4 wall time for execution: 0:00:15.90

*** Psi4 exiting successfully. Buy a developer a beer!
