                               Psi4 1.9.1 release

  ==> Input File <==

--------------------------------------------------------------------------
molecule {
0 5
Li   0.00000        0.60000        0.00000
P   0.00000       -0.60000        0.00000
}

set {
basis              cc-pvdz
reference          uks
maxiter            500
geom_maxiter       500
DAMPING_PERCENTAGE 1
guess              SAP
}

optimize('b3lyp')
--------------------------------------------------------------------------

    Molecular point group: c2v
  Charge       = 0
  Multiplicity = 5
  Basis Set: CC-PVDZ
    Blend: CC-PVDZ
  Basis Set: (CC-PVDZ AUX)
    Blend: CC-PVDZ-JKFIT + DEF2-UNIVERSAL-JKFIT
  @DF-UKS Final Energy:  -348.24521942643344
    Total Energy =                       -348.2452194264335503
 Dipole X            :          0.0000000            0.0000000            0.0000000
 Dipole Y            :          0.0000000            0.0000000            0.0000000
 Dipole Z            :         -0.7221673           -0.7353273           -1.4574946
 Magnitude           :                                                    1.4574946
    Molecular point group: c2v
  Basis Set: CC-PVDZ
    Blend: CC-PVDZ
  Basis Set: (CC-PVDZ AUX)
    Blend: CC-PVDZ-JKFIT + DEF2-UNIVERSAL-JKFIT
  Basis Set: CC-PVDZ
    Blend: CC-PVDZ
  Basis Set: (CC-PVDZ AUX)
    Blend: CC-PVDZ-JKFIT + DEF2-UNIVERSAL-JKFIT
  @DF-UKS Final Energy:  -348.38376483987508
    Total Energy =                       -348.3837648398750844
  Basis Set: CC-PVDZ
    Blend: CC-PVDZ
  Basis Set: (CC-PVDZ AUX)
    Blend: CC-PVDZ-JKFIT + DEF2-UNIVERSAL-JKFIT
  Basis Set: CC-PVDZ
    Blend: CC-PVDZ
  @DF-UKS Final Energy:  -348.52214729738415
    Total Energy =                       -348.5221472973841514
  @DF-UKS Final Energy:  -348.63394900456422
    Total Energy =                       -348.6339490045642719
  @DF-UKS Final Energy:  -348.69323360026573
    Total Energy =                       -348.6932336002657848
  @DF-UKS Final Energy:  -348.72389486635342
    Total Energy =                       -348.7238948663534188
  @DF-UKS Final Energy:  -348.74050030878828
    Total Energy =                       -348.7405003087882847
  @DF-UKS Final Energy:  -348.74970583076072
    Total Energy =                       -348.7497058307607745
  @DF-UKS Final Energy:  -348.75518407563646
    Total Energy =                       -348.7551840756365209
  @DF-UKS Final Energy:  -348.75880134763571
    Total Energy =                       -348.7588013476356537
  @DF-UKS Final Energy:  -348.76151020773801
    Total Energy =                       -348.7615102077380129
  @DF-UKS Final Energy:  -348.76159179537063
    Total Energy =                       -348.7615917953706912
  @DF-UKS Final Energy:  -348.76403616832266
    Total Energy =                       -348.7640361683226615
  @DF-UKS Final Energy:  -348.76407652440150
    Total Energy =                       -348.7640765244015029
  @DF-UKS Final Energy:  -348.76573091319983
    Total Energy =                       -348.7657309131997749
  @DF-UKS Final Energy:  -348.76574932219529
    Total Energy =                       -348.7657493221952905
  @DF-UKS Final Energy:  -348.76672972977917
    Total Energy =                       -348.7667297297791720
  @DF-UKS Final Energy:  -348.76673725058134
    Total Energy =                       -348.7667372505813432
  @DF-UKS Final Energy:  -348.76674469759047
    Total Energy =                       -348.7667446975904681
  @DF-UKS Final Energy:  -348.76729122047749
    Total Energy =                       -348.7672912204774889
  @DF-UKS Final Energy:  -348.76729404393654
    Total Energy =                       -348.7672940439366016
  @DF-UKS Final Energy:  -348.76729684696011
    Total Energy =                       -348.7672968469601074
  @DF-UKS Final Energy:  -348.76729963035444
    Total Energy =                       -348.7672996303544437
  @DF-UKS Final Energy:  -348.76730239430685
    Total Energy =                       -348.7673023943067960
  @DF-UKS Final Energy:  -348.76760670080233
    Total Energy =                       -348.7676067008023324
  @DF-UKS Final Energy:  -348.76760767080611
    Total Energy =                       -348.7676076708061146
  @DF-UKS Final Energy:  -348.76760863532741
    Total Energy =                       -348.7676086353274059
  @DF-UKS Final Energy:  -348.76760959549858
    Total Energy =                       -348.7676095954986408
  @DF-UKS Final Energy:  -348.76761055131442
    Total Energy =                       -348.7676105513144194
  @DF-UKS Final Energy:  -348.76761150284443
    Total Energy =                       -348.7676115028444315
  @DF-UKS Final Energy:  -348.76761245009084
    Total Energy =                       -348.7676124500908372
  @DF-UKS Final Energy:  -348.76761339310315
    Total Energy =                       -348.7676133931031472
  Basis Set: (CC-PVDZ AUX)
    Blend: CC-PVDZ-JKFIT + DEF2-UNIVERSAL-JKFIT
  Basis Set: CC-PVDZ
    Blend: CC-PVDZ
  Basis Set: (CC-PVDZ AUX)
    Blend: CC-PVDZ-JKFIT + DEF2-UNIVERSAL-JKFIT
  @DF-UKS Final Energy:  -348.76777507085791
    Total Energy =                       -348.7677750708579083
  Basis Set: CC-PVDZ
    Blend: CC-PVDZ
  Basis Set: (CC-PVDZ AUX)
    Blend: CC-PVDZ-JKFIT + DEF2-UNIVERSAL-JKFIT
  Charge       = 0
  Multiplicity = 5
  Basis Set: CC-PVDZ
    Blend: CC-PVDZ
  Basis Set: (CC-PVDZ AUX)
    Blend: CC-PVDZ-JKFIT + DEF2-UNIVERSAL-JKFIT

    Orbital Energies [Eh]
    ---------------------

    Alpha Occupied:

       1A1   -77.118418     2A1    -6.586495     3A1    -4.749922
       1B2    -4.749902     1B1    -4.749902     4A1    -2.032131
       5A1    -0.596997     6A1    -0.257883     2B1    -0.257537
       2B2    -0.257537     7A1    -0.133886

    Alpha Virtual:

       3B2    -0.031776     3B1    -0.031776     8A1    -0.029985
       4B1     0.071539     4B2     0.071539     9A1     0.073337
      10A1     0.085942    11A1     0.214873    12A1     0.218204
       1A2     0.218204     5B2     0.218345     5B1     0.218345
      13A1     0.351986     6B1     0.402108     6B2     0.402108
      14A1     0.425984    15A1     0.431503     2A2     0.431530
       7B2     0.431833     7B1     0.431833    16A1     0.439477

    Beta Occupied:

       1A1   -77.106188     2A1    -6.573559     3A1    -4.730821
       1B2    -4.730774     1B1    -4.730774     4A1    -2.024847
       5A1    -0.480304

    Beta Virtual:

       6A1    -0.113153     2B1    -0.110716     2B2    -0.110716
       7A1    -0.052806     3B1     0.003884     3B2     0.003884
       8A1     0.004837     4B1     0.090579     4B2     0.090579
       9A1     0.091620    10A1     0.108637    11A1     0.261697
       1A2     0.264765    12A1     0.264767     5B1     0.265525
       5B2     0.265525    13A1     0.396095     6B2     0.451682
       6B1     0.451682    14A1     0.479633    15A1     0.528527
       2A2     0.528550     7B2     0.528647     7B1     0.528647
      16A1     0.530145

    Final Occupation by Irrep:
             A1    A2    B1    B2
    DOCC [     5,    0,    1,    1 ]
    SOCC [     2,    0,    1,    1 ]
    NA   [     7,    0,    2,    2 ]
    NB   [     5,    0,    1,    1 ]

  @DF-UKS Final Energy:  -348.76777537722307

   => Energetics <=

    Nuclear Repulsion Energy =              4.3969997406958052
    One-Electron Energy =                -490.0941843840430465
    Two-Electron Energy =                 157.0882333888100959
    DFT Exchange-Correlation Energy =     -20.1588241226859886
    Empirical Dispersion Energy =           0.0000000000000000
    VV10 Nonlocal Energy =                  0.0000000000000000
    Total Energy =                       -348.7677753772231313

  UHF NO Occupations:
  HONO-2 :    6 A1 1.0000000
  HONO-1 :    2 B2 1.0000000
  HONO-0 :    7 A1 1.0000000
  LUNO+0 :    8 A1 0.0001186
  LUNO+1 :    9 A1 0.0000002
  LUNO+2 :   10 A1 0.0000000
  LUNO+3 :    3 B1 0.0000000

Computation Completed

Properties will be evaluated at   0.000000,   0.000000,   0.000000 [a0]

Properties computed using the SCF density matrix

 Multipole Moments:

 ------------------------------------------------------------------------------------
     Multipole            Electronic (a.u.)      Nuclear  (a.u.)        Total (a.u.)
 ------------------------------------------------------------------------------------

 L = 1.  Multiply by 2.5417464519 to convert [e a0] to [Debye]
 Dipole X            :          0.0000000            0.0000000            0.0000000
 Dipole Y            :          0.0000000            0.0000000            0.0000000
 Dipole Z            :          3.2357773           -3.3186133           -0.0828360
 Magnitude           :                                                    0.0828360

 ------------------------------------------------------------------------------------

*** tstop() called on Joses-MacBook-Pro-2.local at Wed Jul 16 18:36:09 2025
Module time:
	user time   =       2.39 seconds =       0.04 minutes
	system time =       2.31 seconds =       0.04 minutes
	total time  =          0 seconds =       0.00 minutes
Total time:
	user time   =     133.20 seconds =       2.22 minutes
	system time =     164.33 seconds =       2.74 minutes
	total time  =         29 seconds =       0.48 minutes

*** tstart() called on Joses-MacBook-Pro-2.local
*** at Wed Jul 16 18:36:09 2025

         ------------------------------------------------------------
                                   SCF GRAD
                          Rob Parrish, Justin Turney,
                       Andy Simmonett, and Alex Sokolov
         ------------------------------------------------------------

  ==> Geometry <==

    Molecular point group: c2v
    Full point group: C_inf_v

    Geometry (in Angstrom), charge = 0, multiplicity = 5:

       Center              X                  Y                   Z               Mass
    ------------   -----------------  -----------------  -----------------  -----------------
         LI           0.000000000000     0.000000000000     4.415547402272     7.016003436600
         P            0.000000000000     0.000000000000    -1.000185116370    30.973761998420

  Nuclear repulsion =    4.396999740695805

  ==> Basis Set <==

  Basis Set: CC-PVDZ
    Blend: CC-PVDZ
    Number of shells: 14
    Number of basis functions: 32
    Number of Cartesian functions: 34
    Spherical Harmonics?: true
    Max angular momentum: 2

  ==> DFJKGrad: Density-Fitted SCF Gradients <==

    Gradient:                    1
    J tasked:                  Yes
    K tasked:                  Yes
    wK tasked:                  No
    OpenMP threads:              1
    Integrals threads:           1
    Memory [MiB]:              375
    Schwarz Cutoff:          1E-12
    Fitting Condition:       1E-10

   => Auxiliary Basis Set <=

  Basis Set: (CC-PVDZ AUX)
    Blend: CC-PVDZ-JKFIT + DEF2-UNIVERSAL-JKFIT
    Number of shells: 53
    Number of basis functions: 163
    Number of Cartesian functions: 190
    Spherical Harmonics?: true
    Max angular momentum: 3

  ==> DFT Potential <==

   => LibXC <=

    Version 6.2.2
    S. Lehtola, C. Steigemann, M. J.T. Oliveira, and M. A.L. Marques.,  SoftwareX 7, 1â€“5 (2018) (10.1016/j.softx.2017.11.002)

   => Composite Functional: B3LYP <=

    B3LYP Hyb-GGA Exchange-Correlation Functional

    P. J. Stephens, F. J. Devlin, C. F. Chabalowski, and M. J. Frisch.,  J. Phys. Chem. 98, 11623 (1994) (10.1021/j100096a001)

    Deriv               =              1
    GGA                 =           TRUE
    Meta                =          FALSE

    Exchange Hybrid     =           TRUE
    MP2 Hybrid          =          FALSE

   => Exchange Functionals <=

    0.0800   Slater exchange
    0.7200         Becke 88

   => Exact (HF) Exchange <=

    0.2000               HF

   => Correlation Functionals <=

    0.1900   Vosko, Wilk & Nusair (VWN5_RPA)
    0.8100   Lee, Yang & Parr

   => LibXC Density Thresholds  <==

    XC_HYB_GGA_XC_B3LYP:  1.00E-15

   => Molecular Quadrature <=

    Radial Scheme          =       TREUTLER
    Pruning Scheme         =           NONE
    Nuclear Scheme         =       TREUTLER

    Blocking Scheme        =         OCTREE
    BS radius alpha        =              1
    Pruning alpha          =              1
    Radial Points          =             75
    Spherical Points       =            302
    Total Points           =          44422
    Total Blocks           =            472
    Max Points             =            255
    Max Functions          =             32
    Weights Tolerance      =       1.00E-15

  -Total Gradient:
     Atom            X                  Y                   Z
    ------   -----------------  -----------------  -----------------
       1       -0.000000000000    -0.000000000000    -0.000176843545
       2        0.000000000000     0.000000000000     0.000181764408

*** tstop() called on Joses-MacBook-Pro-2.local at Wed Jul 16 18:36:09 2025
Module time:
	user time   =       0.70 seconds =       0.01 minutes
	system time =       1.49 seconds =       0.02 minutes
	total time  =          0 seconds =       0.00 minutes
Total time:
	user time   =     133.90 seconds =       2.23 minutes
	system time =     165.82 seconds =       2.76 minutes
	total time  =         29 seconds =       0.48 minutes

    			-----------------------------------------

    			 OPTKING 3.0: for geometry optimizations

    			     By R.A. King, Bethel University

    			        with contributions from

    			    A.V. Copan, J. Cayton, A. Heide

    			-----------------------------------------

	                            ===> Fragment 1 <==

	 Z (Atomic Numbers)          Masses                          Geom
	       3.000000             7.016003          0.00000000  0.00000000  8.34417528
	      15.000000            30.973762          0.00000000  0.00000000 -1.89007594

	 - Coordinate -           - BOHR/RAD -       - ANG/DEG -
	 R(1,2)           =        10.234251           5.415733

	        --- Internal Coordinate Step in ANG or DEG, aJ/ANG or AJ/DEG ---
	-------------------------------------------------------------------------------
	           Coordinate      Previous         Force          Change          New
	           ----------      --------        ------          ------        ------
	               R(1,2)       5.41573        0.00148        0.00091       5.41664
	-------------------------------------------------------------------------------

	                                 ==> Convergence Check <==

	Measures of convergence in internal coordinates in au.

	Criteria marked as inactive (o), active & met (*), and active & unmet ( ).

	----------------------------------------------------------------------------------------------
	   Step    Total Energy     Delta E     Max Force     RMS Force      Max Disp      RMS Disp
	----------------------------------------------------------------------------------------------
	  Convergence Criteria     1.00e-06 *    3.00e-04 *             o    1.20e-03 *             o
	----------------------------------------------------------------------------------------------
	    34    -348.76777538   -3.06e-07 *    1.79e-04 *    1.79e-04 o    1.72e-03      1.72e-03 o  ~
	----------------------------------------------------------------------------------------------

Next Geometry in Ang
	Fragment 1 (Ang)

	   Li   0.0000000000   0.0000000000   4.4160011759
	    P   0.0000000000   0.0000000000  -1.0006388900

    Final optimized geometry and variables:
    Molecular point group: c2v
    Full point group: C_inf_v

    Geometry (in Angstrom), charge = 0, multiplicity = 5:

    LI           0.000000000000     0.000000000000     4.415547402272
    P            0.000000000000     0.000000000000    -1.000185116370

    Psi4 stopped on: Wednesday, 16 July 2025 06:36PM
    Psi4 wall time for execution: 0:00:29.64

*** Psi4 exiting successfully. Buy a developer a beer!
