                               Psi4 1.9.1 release

  ==> Input File <==

--------------------------------------------------------------------------
molecule {
0 5
H   0.00000        0.60000        0.00000
Al   0.00000       -0.60000        0.00000
}

set {
basis              cc-pvdz
reference          uks
maxiter            500
geom_maxiter       500
DAMPING_PERCENTAGE 1
guess              SAP
}

optimize('b3lyp')
--------------------------------------------------------------------------

    Molecular point group: c2v
  Charge       = 0
  Multiplicity = 5
  Basis Set: CC-PVDZ
    Blend: CC-PVDZ
  Basis Set: (CC-PVDZ AUX)
    Blend: CC-PVDZ-JKFIT
  @DF-UKS Final Energy:  -242.60056442727176
    Total Energy =                       -242.6005644272717632
 Dipole X            :          0.0000000            0.0000000            0.0000000
 Dipole Y            :          0.0000000            0.0000000            0.0000000
 Dipole Z            :         -0.4817605            1.1245291            0.6427686
 Magnitude           :                                                    0.6427686
    Molecular point group: c2v
  Basis Set: CC-PVDZ
    Blend: CC-PVDZ
  Basis Set: (CC-PVDZ AUX)
    Blend: CC-PVDZ-JKFIT
  Basis Set: CC-PVDZ
    Blend: CC-PVDZ
  Basis Set: (CC-PVDZ AUX)
    Blend: CC-PVDZ-JKFIT
  @DF-UKS Final Energy:  -242.68950131617768
    Total Energy =                       -242.6895013161776831
  Basis Set: CC-PVDZ
    Blend: CC-PVDZ
  Basis Set: (CC-PVDZ AUX)
    Blend: CC-PVDZ-JKFIT
  Basis Set: CC-PVDZ
    Blend: CC-PVDZ
  @DF-UKS Final Energy:  -242.71351298604222
    Total Energy =                       -242.7135129860422182
  @DF-UKS Final Energy:  -242.72936625980256
    Total Energy =                       -242.7293662598025890
  @DF-UKS Final Energy:  -242.73696099226322
    Total Energy =                       -242.7369609922632208
  @DF-UKS Final Energy:  -242.74087938889645
    Total Energy =                       -242.7408793888964453
  @DF-UKS Final Energy:  -242.74283705950290
    Total Energy =                       -242.7428370595029037
  @DF-UKS Final Energy:  -242.74379367641382
    Total Energy =                       -242.7437936764138442
  @DF-UKS Final Energy:  -242.74423684433876
    Total Energy =                       -242.7442368443387295
  @DF-UKS Final Energy:  -242.74442655521426
    Total Energy =                       -242.7444265552142610
  @DF-UKS Final Energy:  -242.74449796914823
    Total Energy =                       -242.7444979691482274
  @DF-UKS Final Energy:  -242.74451570676680
    Total Energy =                       -242.7445157067668049
  @DF-UKS Final Energy:  -242.74452242581586
    Total Energy =                       -242.7445224258158589
  Basis Set: (CC-PVDZ AUX)
    Blend: CC-PVDZ-JKFIT
  Basis Set: CC-PVDZ
    Blend: CC-PVDZ
  Basis Set: (CC-PVDZ AUX)
    Blend: CC-PVDZ-JKFIT
  @DF-UKS Final Energy:  -242.74452378197128
    Total Energy =                       -242.7445237819712531
  Basis Set: CC-PVDZ
    Blend: CC-PVDZ
  Basis Set: (CC-PVDZ AUX)
    Blend: CC-PVDZ-JKFIT
  Charge       = 0
  Multiplicity = 5
  Basis Set: CC-PVDZ
    Blend: CC-PVDZ
  Basis Set: (CC-PVDZ AUX)
    Blend: CC-PVDZ-JKFIT

    Orbital Energies [Eh]
    ---------------------

    Alpha Occupied:

       1A1   -56.119762     2A1    -4.199784     3A1    -2.755271
       1B2    -2.751320     1B1    -2.751320     4A1    -0.383848
       5A1    -0.339576     2B1    -0.161093     2B2    -0.161093

    Alpha Virtual:

       6A1    -0.092605     7A1     0.149611     3B1     0.189360
       3B2     0.189360     8A1     0.203235     9A1     0.222244
       1A2     0.222244     4B2     0.225352     4B1     0.225352
      10A1     0.255582    11A1     0.457756     5B1     1.182691
       5B2     1.182691    12A1     1.246119

    Beta Occupied:

       1A1   -56.110633     2A1    -4.186499     3A1    -2.747386
       1B2    -2.736197     1B1    -2.736197

    Beta Virtual:

       4A1    -0.211889     5A1    -0.081650     2B2    -0.014498
       2B1    -0.014498     6A1     0.008310     7A1     0.204687
       8A1     0.243456     3B1     0.251567     3B2     0.251567
       4B2     0.313063     4B1     0.313063     9A1     0.332424
      10A1     0.339617     1A2     0.339622    11A1     0.675474
       5B2     1.437401     5B1     1.437401    12A1     1.482898

    Final Occupation by Irrep:
             A1    A2    B1    B2
    DOCC [     3,    0,    1,    1 ]
    SOCC [     2,    0,    1,    1 ]
    NA   [     5,    0,    2,    2 ]
    NB   [     3,    0,    1,    1 ]

  @DF-UKS Final Energy:  -242.74452410272863

   => Energetics <=

    Nuclear Repulsion Energy =              2.3016559586315739
    One-Electron Energy =                -341.0934651467156300
    Two-Electron Energy =                 111.2702483220966911
    DFT Exchange-Correlation Energy =     -15.2229632367412222
    Empirical Dispersion Energy =           0.0000000000000000
    VV10 Nonlocal Energy =                  0.0000000000000000
    Total Energy =                       -242.7445241027286329

  UHF NO Occupations:
  HONO-2 :    5 A1 1.0000000
  HONO-1 :    2 B1 1.0000000
  HONO-0 :    2 B2 1.0000000
  LUNO+0 :    6 A1 0.0000008
  LUNO+1 :    3 B1 0.0000002
  LUNO+2 :    3 B2 0.0000002
  LUNO+3 :    7 A1 0.0000001

Computation Completed

Properties will be evaluated at   0.000000,   0.000000,   0.000000 [a0]

Properties computed using the SCF density matrix

 Multipole Moments:

 ------------------------------------------------------------------------------------
     Multipole            Electronic (a.u.)      Nuclear  (a.u.)        Total (a.u.)
 ------------------------------------------------------------------------------------

 L = 1.  Multiply by 2.5417464519 to convert [e a0] to [Debye]
 Dipole X            :          0.0000000            0.0000000            0.0000000
 Dipole Y            :          0.0000000            0.0000000            0.0000000
 Dipole Z            :         -2.6304028            2.8008738            0.1704710
 Magnitude           :                                                    0.1704710

 ------------------------------------------------------------------------------------

*** tstop() called on Joses-MacBook-Pro-2.local at Wed Jul 16 18:16:04 2025
Module time:
	user time   =       1.98 seconds =       0.03 minutes
	system time =       2.59 seconds =       0.04 minutes
	total time  =          0 seconds =       0.00 minutes
Total time:
	user time   =      52.29 seconds =       0.87 minutes
	system time =      63.27 seconds =       1.05 minutes
	total time  =         11 seconds =       0.18 minutes

*** tstart() called on Joses-MacBook-Pro-2.local
*** at Wed Jul 16 18:16:04 2025

         ------------------------------------------------------------
                                   SCF GRAD
                          Rob Parrish, Justin Turney,
                       Andy Simmonett, and Alex Sokolov
         ------------------------------------------------------------

  ==> Geometry <==

    Molecular point group: c2v
    Full point group: C_inf_v

    Geometry (in Angstrom), charge = 0, multiplicity = 5:

       Center              X                  Y                   Z               Mass
    ------------   -----------------  -----------------  -----------------  -----------------
         H            0.000000000000     0.000000000000     2.881228912685     1.007825032230
         AL           0.000000000000     0.000000000000    -0.107620794810    26.981538530000

  Nuclear repulsion =    2.301655958631574

  ==> Basis Set <==

  Basis Set: CC-PVDZ
    Blend: CC-PVDZ
    Number of shells: 11
    Number of basis functions: 23
    Number of Cartesian functions: 24
    Spherical Harmonics?: true
    Max angular momentum: 2

  ==> DFJKGrad: Density-Fitted SCF Gradients <==

    Gradient:                    1
    J tasked:                  Yes
    K tasked:                  Yes
    wK tasked:                  No
    OpenMP threads:              1
    Integrals threads:           1
    Memory [MiB]:              375
    Schwarz Cutoff:          1E-12
    Fitting Condition:       1E-10

   => Auxiliary Basis Set <=

  Basis Set: (CC-PVDZ AUX)
    Blend: CC-PVDZ-JKFIT
    Number of shells: 45
    Number of basis functions: 135
    Number of Cartesian functions: 155
    Spherical Harmonics?: true
    Max angular momentum: 3

  ==> DFT Potential <==

   => LibXC <=

    Version 6.2.2
    S. Lehtola, C. Steigemann, M. J.T. Oliveira, and M. A.L. Marques.,  SoftwareX 7, 1â€“5 (2018) (10.1016/j.softx.2017.11.002)

   => Composite Functional: B3LYP <=

    B3LYP Hyb-GGA Exchange-Correlation Functional

    P. J. Stephens, F. J. Devlin, C. F. Chabalowski, and M. J. Frisch.,  J. Phys. Chem. 98, 11623 (1994) (10.1021/j100096a001)

    Deriv               =              1
    GGA                 =           TRUE
    Meta                =          FALSE

    Exchange Hybrid     =           TRUE
    MP2 Hybrid          =          FALSE

   => Exchange Functionals <=

    0.0800   Slater exchange
    0.7200         Becke 88

   => Exact (HF) Exchange <=

    0.2000               HF

   => Correlation Functionals <=

    0.1900   Vosko, Wilk & Nusair (VWN5_RPA)
    0.8100   Lee, Yang & Parr

   => LibXC Density Thresholds  <==

    XC_HYB_GGA_XC_B3LYP:  1.00E-15

   => Molecular Quadrature <=

    Radial Scheme          =       TREUTLER
    Pruning Scheme         =           NONE
    Nuclear Scheme         =       TREUTLER

    Blocking Scheme        =         OCTREE
    BS radius alpha        =              1
    Pruning alpha          =              1
    Radial Points          =             75
    Spherical Points       =            302
    Total Points           =          43539
    Total Blocks           =            395
    Max Points             =            253
    Max Functions          =             23
    Weights Tolerance      =       1.00E-15

  -Total Gradient:
     Atom            X                  Y                   Z
    ------   -----------------  -----------------  -----------------
       1        0.000000000000    -0.000000000000    -0.000009325835
       2        0.000000000000     0.000000000000     0.000009602338

*** tstop() called on Joses-MacBook-Pro-2.local at Wed Jul 16 18:16:04 2025
Module time:
	user time   =       0.57 seconds =       0.01 minutes
	system time =       1.11 seconds =       0.02 minutes
	total time  =          0 seconds =       0.00 minutes
Total time:
	user time   =      52.87 seconds =       0.88 minutes
	system time =      64.38 seconds =       1.07 minutes
	total time  =         11 seconds =       0.18 minutes

    			-----------------------------------------

    			 OPTKING 3.0: for geometry optimizations

    			     By R.A. King, Bethel University

    			        with contributions from

    			    A.V. Copan, J. Cayton, A. Heide

    			-----------------------------------------

	                            ===> Fragment 1 <==

	 Z (Atomic Numbers)          Masses                          Geom
	       1.000000             1.007825          0.00000000  0.00000000  5.44473355
	      13.000000            26.981539          0.00000000  0.00000000 -0.20337383

	 - Coordinate -           - BOHR/RAD -       - ANG/DEG -
	 R(1,2)           =         5.648107           2.988850

	        --- Internal Coordinate Step in ANG or DEG, aJ/ANG or AJ/DEG ---
	-------------------------------------------------------------------------------
	           Coordinate      Previous         Force          Change          New
	           ----------      --------        ------          ------        ------
	               R(1,2)       2.98885        0.00008        0.00625       2.99510
	-------------------------------------------------------------------------------

	                                 ==> Convergence Check <==

	Measures of convergence in internal coordinates in au.

	Criteria marked as inactive (o), active & met (*), and active & unmet ( ).

	----------------------------------------------------------------------------------------------
	   Step    Total Energy     Delta E     Max Force     RMS Force      Max Disp      RMS Disp
	----------------------------------------------------------------------------------------------
	  Convergence Criteria     1.00e-06 *    3.00e-04 *             o    1.20e-03 *             o
	----------------------------------------------------------------------------------------------
	    15    -242.74452410   -3.21e-07 *    9.46e-06 *    9.46e-06 o    1.18e-02      1.18e-02 o  ~
	----------------------------------------------------------------------------------------------

Next Geometry in Ang
	Fragment 1 (Ang)

	    H   0.0000000000   0.0000000000   2.8843542081
	   Al   0.0000000000   0.0000000000  -0.1107460903

    Final optimized geometry and variables:
    Molecular point group: c2v
    Full point group: C_inf_v

    Geometry (in Angstrom), charge = 0, multiplicity = 5:

    H            0.000000000000     0.000000000000     2.881228912685
    AL           0.000000000000     0.000000000000    -0.107620794810

    Psi4 stopped on: Wednesday, 16 July 2025 06:16PM
    Psi4 wall time for execution: 0:00:11.74

*** Psi4 exiting successfully. Buy a developer a beer!
