                               Psi4 1.9.1 release

  ==> Input File <==

--------------------------------------------------------------------------
molecule {
0 5
N   0.00000        0.60000        0.00000
Na   0.00000       -0.60000        0.00000
}

set {
basis              cc-pvdz
reference          uks
maxiter            500
geom_maxiter       500
DAMPING_PERCENTAGE 1
guess              SAP
}

optimize('b3lyp')
--------------------------------------------------------------------------

    Molecular point group: c2v
  Charge       = 0
  Multiplicity = 5
  Basis Set: CC-PVDZ
    Blend: CC-PVDZ
  Basis Set: (CC-PVDZ AUX)
    Blend: CC-PVDZ-JKFIT + DEF2-UNIVERSAL-JKFIT
  @DF-UKS Final Energy:  -216.30542449362309
    Total Energy =                       -216.3054244936230930
 Dipole X            :          0.0000000            0.0000000            0.0000000
 Dipole Y            :          0.0000000            0.0000000            0.0000000
 Dipole Z            :          0.3321295            0.4226391            0.7547686
 Magnitude           :                                                    0.7547686
    Molecular point group: c2v
  Basis Set: CC-PVDZ
    Blend: CC-PVDZ
  Basis Set: (CC-PVDZ AUX)
    Blend: CC-PVDZ-JKFIT + DEF2-UNIVERSAL-JKFIT
  Basis Set: CC-PVDZ
    Blend: CC-PVDZ
  Basis Set: (CC-PVDZ AUX)
    Blend: CC-PVDZ-JKFIT + DEF2-UNIVERSAL-JKFIT
  @DF-UKS Final Energy:  -216.53169606050773
    Total Energy =                       -216.5316960605077270
  Basis Set: CC-PVDZ
    Blend: CC-PVDZ
  Basis Set: (CC-PVDZ AUX)
    Blend: CC-PVDZ-JKFIT + DEF2-UNIVERSAL-JKFIT
  Basis Set: CC-PVDZ
    Blend: CC-PVDZ
  @DF-UKS Final Energy:  -216.68768239261286
    Total Energy =                       -216.6876823926128566
  @DF-UKS Final Energy:  -216.77814562693030
    Total Energy =                       -216.7781456269302680
  @DF-UKS Final Energy:  -216.82354907457309
    Total Energy =                       -216.8235490745731227
  @DF-UKS Final Energy:  -216.84728176200318
    Total Energy =                       -216.8472817620031776
  @DF-UKS Final Energy:  -216.86004765918062
    Total Energy =                       -216.8600476591806228
  @DF-UKS Final Energy:  -216.86731982276348
    Total Energy =                       -216.8673198227634771
  @DF-UKS Final Energy:  -216.87176767296225
    Total Energy =                       -216.8717676729622497
  @DF-UKS Final Energy:  -216.87468566715549
    Total Energy =                       -216.8746856671554610
  @DF-UKS Final Energy:  -216.87671596019067
    Total Energy =                       -216.8767159601906656
  @DF-UKS Final Energy:  -216.87813931751464
    Total Energy =                       -216.8781393175146093
  @DF-UKS Final Energy:  -216.87815433568144
    Total Energy =                       -216.8781543356814439
  @DF-UKS Final Energy:  -216.87816918537482
    Total Energy =                       -216.8781691853748157
  @DF-UKS Final Energy:  -216.87915693050920
    Total Energy =                       -216.8791569305091969
  @DF-UKS Final Energy:  -216.87916205423099
    Total Energy =                       -216.8791620542309602
  @DF-UKS Final Energy:  -216.87916714061660
    Total Energy =                       -216.8791671406166301
  @DF-UKS Final Energy:  -216.87917218640567
    Total Energy =                       -216.8791721864056683
  @DF-UKS Final Energy:  -216.87968666583276
    Total Energy =                       -216.8796866658327929
  @DF-UKS Final Energy:  -216.87968820677509
    Total Energy =                       -216.8796882067750573
  @DF-UKS Final Energy:  -216.87968974120676
    Total Energy =                       -216.8796897412067608
  @DF-UKS Final Energy:  -216.87969126768724
    Total Energy =                       -216.8796912676872353
  @DF-UKS Final Energy:  -216.87969278619306
    Total Energy =                       -216.8796927861930897
  @DF-UKS Final Energy:  -216.87969429686009
    Total Energy =                       -216.8796942968600945
  Basis Set: (CC-PVDZ AUX)
    Blend: CC-PVDZ-JKFIT + DEF2-UNIVERSAL-JKFIT
  Basis Set: CC-PVDZ
    Blend: CC-PVDZ
  Basis Set: (CC-PVDZ AUX)
    Blend: CC-PVDZ-JKFIT + DEF2-UNIVERSAL-JKFIT
  @DF-UKS Final Energy:  -216.87993199854114
    Total Energy =                       -216.8799319985411387
  Basis Set: CC-PVDZ
    Blend: CC-PVDZ
  Basis Set: (CC-PVDZ AUX)
    Blend: CC-PVDZ-JKFIT + DEF2-UNIVERSAL-JKFIT
  Charge       = 0
  Multiplicity = 5
  Basis Set: CC-PVDZ
    Blend: CC-PVDZ
  Basis Set: (CC-PVDZ AUX)
    Blend: CC-PVDZ-JKFIT + DEF2-UNIVERSAL-JKFIT

    Orbital Energies [Eh]
    ---------------------

    Alpha Occupied:

       1A1   -38.478687     2A1   -14.441563     3A1    -2.223416
       4A1    -1.154297     1B1    -1.154228     1B2    -1.154228
       5A1    -0.807762     6A1    -0.350954     2B1    -0.350182
       2B2    -0.350182     7A1    -0.126813

    Alpha Virtual:

       3B2    -0.020395     3B1    -0.020395     8A1    -0.015710
       9A1     0.054396    10A1     0.076006     4B1     0.076420
       4B2     0.076420    11A1     0.159453     1A2     0.159454
       5B1     0.160083     5B2     0.160083    12A1     0.163313
       6B2     0.658048     6B1     0.658048    13A1     0.681422
      14A1     0.836833     2A2     1.673438     7B2     1.673572
       7B1     1.673572    15A1     1.673599    16A1     1.675782

    Beta Occupied:

       1A1   -38.477218     2A1   -14.385160     3A1    -2.220467
       4A1    -1.152374     1B1    -1.152306     1B2    -1.152306
       5A1    -0.610856

    Beta Virtual:

       6A1    -0.104478     2B1    -0.096854     2B2    -0.096854
       7A1    -0.059563     3B2     0.004024     3B1     0.004024
       8A1     0.007329     9A1     0.068426    10A1     0.094567
       4B1     0.094926     4B2     0.094926     1A2     0.189398
      11A1     0.189398     5B1     0.189532     5B2     0.189532
      12A1     0.193439     6B2     0.765034     6B1     0.765034
      13A1     0.786642    14A1     0.934100     7B2     1.821044
       7B1     1.821044     2A2     1.821178    15A1     1.821339
      16A1     1.823083

    Final Occupation by Irrep:
             A1    A2    B1    B2
    DOCC [     5,    0,    1,    1 ]
    SOCC [     2,    0,    1,    1 ]
    NA   [     7,    0,    2,    2 ]
    NB   [     5,    0,    1,    1 ]

  @DF-UKS Final Energy:  -216.87993239721118

   => Energetics <=

    Nuclear Repulsion Energy =              9.5632021050342324
    One-Electron Energy =                -320.8799650369029450
    Two-Electron Energy =                 111.5575936829360444
    DFT Exchange-Correlation Energy =     -17.1207631482785061
    Empirical Dispersion Energy =           0.0000000000000000
    VV10 Nonlocal Energy =                  0.0000000000000000
    Total Energy =                       -216.8799323972111779

  UHF NO Occupations:
  HONO-2 :    7 A1 1.0000000
  HONO-1 :    2 B1 1.0000000
  HONO-0 :    2 B2 1.0000000
  LUNO+0 :    8 A1 0.0012010
  LUNO+1 :    3 B1 0.0000012
  LUNO+2 :    3 B2 0.0000012
  LUNO+3 :    9 A1 0.0000011

Computation Completed

Properties will be evaluated at   0.000000,   0.000000,   0.000000 [a0]

Properties computed using the SCF density matrix

 Multipole Moments:

 ------------------------------------------------------------------------------------
     Multipole            Electronic (a.u.)      Nuclear  (a.u.)        Total (a.u.)
 ------------------------------------------------------------------------------------

 L = 1.  Multiply by 2.5417464519 to convert [e a0] to [Debye]
 Dipole X            :          0.0000000            0.0000000            0.0000000
 Dipole Y            :          0.0000000            0.0000000            0.0000000
 Dipole Z            :         -1.3417995            1.5006414            0.1588419
 Magnitude           :                                                    0.1588419

 ------------------------------------------------------------------------------------

*** tstop() called on Joses-MacBook-Pro-2.local at Wed Jul 16 19:10:15 2025
Module time:
	user time   =       1.84 seconds =       0.03 minutes
	system time =       2.91 seconds =       0.05 minutes
	total time  =          0 seconds =       0.00 minutes
Total time:
	user time   =     144.01 seconds =       2.40 minutes
	system time =     138.08 seconds =       2.30 minutes
	total time  =         29 seconds =       0.48 minutes

*** tstart() called on Joses-MacBook-Pro-2.local
*** at Wed Jul 16 19:10:15 2025

         ------------------------------------------------------------
                                   SCF GRAD
                          Rob Parrish, Justin Turney,
                       Andy Simmonett, and Alex Sokolov
         ------------------------------------------------------------

  ==> Geometry <==

    Molecular point group: c2v
    Full point group: C_inf_v

    Geometry (in Angstrom), charge = 0, multiplicity = 5:

       Center              X                  Y                   Z               Mass
    ------------   -----------------  -----------------  -----------------  -----------------
         N            0.000000000000     0.000000000000     2.647923439659    14.003074004430
         NA           0.000000000000     0.000000000000    -1.612850804581    22.989769282000

  Nuclear repulsion =    9.563202105034232

  ==> Basis Set <==

  Basis Set: CC-PVDZ
    Blend: CC-PVDZ
    Number of shells: 14
    Number of basis functions: 32
    Number of Cartesian functions: 34
    Spherical Harmonics?: true
    Max angular momentum: 2

  ==> DFJKGrad: Density-Fitted SCF Gradients <==

    Gradient:                    1
    J tasked:                  Yes
    K tasked:                  Yes
    wK tasked:                  No
    OpenMP threads:              1
    Integrals threads:           1
    Memory [MiB]:              375
    Schwarz Cutoff:          1E-12
    Fitting Condition:       1E-10

   => Auxiliary Basis Set <=

  Basis Set: (CC-PVDZ AUX)
    Blend: CC-PVDZ-JKFIT + DEF2-UNIVERSAL-JKFIT
    Number of shells: 58
    Number of basis functions: 182
    Number of Cartesian functions: 218
    Spherical Harmonics?: true
    Max angular momentum: 4

  ==> DFT Potential <==

   => LibXC <=

    Version 6.2.2
    S. Lehtola, C. Steigemann, M. J.T. Oliveira, and M. A.L. Marques.,  SoftwareX 7, 1â€“5 (2018) (10.1016/j.softx.2017.11.002)

   => Composite Functional: B3LYP <=

    B3LYP Hyb-GGA Exchange-Correlation Functional

    P. J. Stephens, F. J. Devlin, C. F. Chabalowski, and M. J. Frisch.,  J. Phys. Chem. 98, 11623 (1994) (10.1021/j100096a001)

    Deriv               =              1
    GGA                 =           TRUE
    Meta                =          FALSE

    Exchange Hybrid     =           TRUE
    MP2 Hybrid          =          FALSE

   => Exchange Functionals <=

    0.0800   Slater exchange
    0.7200         Becke 88

   => Exact (HF) Exchange <=

    0.2000               HF

   => Correlation Functionals <=

    0.1900   Vosko, Wilk & Nusair (VWN5_RPA)
    0.8100   Lee, Yang & Parr

   => LibXC Density Thresholds  <==

    XC_HYB_GGA_XC_B3LYP:  1.00E-15

   => Molecular Quadrature <=

    Radial Scheme          =       TREUTLER
    Pruning Scheme         =           NONE
    Nuclear Scheme         =       TREUTLER

    Blocking Scheme        =         OCTREE
    BS radius alpha        =              1
    Pruning alpha          =              1
    Radial Points          =             75
    Spherical Points       =            302
    Total Points           =          43912
    Total Blocks           =            445
    Max Points             =            255
    Max Functions          =             32
    Weights Tolerance      =       1.00E-15

  -Total Gradient:
     Atom            X                  Y                   Z
    ------   -----------------  -----------------  -----------------
       1        0.000000000000     0.000000000000    -0.000273228046
       2       -0.000000000000     0.000000000000     0.000270533065

*** tstop() called on Joses-MacBook-Pro-2.local at Wed Jul 16 19:10:16 2025
Module time:
	user time   =       0.88 seconds =       0.01 minutes
	system time =       1.64 seconds =       0.03 minutes
	total time  =          1 seconds =       0.02 minutes
Total time:
	user time   =     144.89 seconds =       2.41 minutes
	system time =     139.72 seconds =       2.33 minutes
	total time  =         30 seconds =       0.50 minutes

    			-----------------------------------------

    			 OPTKING 3.0: for geometry optimizations

    			     By R.A. King, Bethel University

    			        with contributions from

    			    A.V. Copan, J. Cayton, A. Heide

    			-----------------------------------------

	                            ===> Fragment 1 <==

	 Z (Atomic Numbers)          Masses                          Geom
	       7.000000            14.003074          0.00000000  0.00000000  5.00385010
	      11.000000            22.989769          0.00000000  0.00000000 -3.04784630

	 - Coordinate -           - BOHR/RAD -       - ANG/DEG -
	 R(1,2)           =         8.051696           4.260774

	        --- Internal Coordinate Step in ANG or DEG, aJ/ANG or AJ/DEG ---
	-------------------------------------------------------------------------------
	           Coordinate      Previous         Force          Change          New
	           ----------      --------        ------          ------        ------
	               R(1,2)       4.26077        0.00224        0.00074       4.26151
	-------------------------------------------------------------------------------

	                                 ==> Convergence Check <==

	Measures of convergence in internal coordinates in au.

	Criteria marked as inactive (o), active & met (*), and active & unmet ( ).

	----------------------------------------------------------------------------------------------
	   Step    Total Energy     Delta E     Max Force     RMS Force      Max Disp      RMS Disp
	----------------------------------------------------------------------------------------------
	  Convergence Criteria     1.00e-06 *    3.00e-04 *             o    1.20e-03 *             o
	----------------------------------------------------------------------------------------------
	    26    -216.87993240   -3.99e-07 *    2.72e-04 *    2.72e-04 o    1.39e-03      1.39e-03 o  ~
	----------------------------------------------------------------------------------------------

Next Geometry in Ang
	Fragment 1 (Ang)

	    N   0.0000000000   0.0000000000   2.6482910392
	   Na   0.0000000000   0.0000000000  -1.6132184041

    Final optimized geometry and variables:
    Molecular point group: c2v
    Full point group: C_inf_v

    Geometry (in Angstrom), charge = 0, multiplicity = 5:

    N            0.000000000000     0.000000000000     2.647923439659
    NA           0.000000000000     0.000000000000    -1.612850804581

    Psi4 stopped on: Wednesday, 16 July 2025 07:10PM
    Psi4 wall time for execution: 0:00:30.26

*** Psi4 exiting successfully. Buy a developer a beer!
