                               Psi4 1.9.1 release

  ==> Input File <==

--------------------------------------------------------------------------
molecule {
0 5
S   0.00000        0.60000        0.00000
S   0.00000       -0.60000        0.00000
}

set {
basis              cc-pvdz
reference          uks
maxiter            500
geom_maxiter       500
DAMPING_PERCENTAGE 1
guess              SAP
}

optimize('b3lyp')
--------------------------------------------------------------------------

    Molecular point group: d2h
  Charge       = 0
  Multiplicity = 5
  Basis Set: CC-PVDZ
    Blend: CC-PVDZ
  Basis Set: (CC-PVDZ AUX)
    Blend: CC-PVDZ-JKFIT
  @DF-UKS Final Energy:  -794.74105924715684
    Total Energy =                       -794.7410592471568407
 Dipole X            :          0.0000000            0.0000000            0.0000000
 Dipole Y            :          0.0000000            0.0000000            0.0000000
 Dipole Z            :          0.0000000            0.0000000            0.0000000
 Magnitude           :                                                    0.0000000
    Molecular point group: d2h
  Basis Set: CC-PVDZ
    Blend: CC-PVDZ
  Basis Set: (CC-PVDZ AUX)
    Blend: CC-PVDZ-JKFIT
  Basis Set: CC-PVDZ
    Blend: CC-PVDZ
  Basis Set: (CC-PVDZ AUX)
    Blend: CC-PVDZ-JKFIT
  @DF-UKS Final Energy:  -794.78493161982374
    Total Energy =                       -794.7849316198238512
  Basis Set: CC-PVDZ
    Blend: CC-PVDZ
  Basis Set: (CC-PVDZ AUX)
    Blend: CC-PVDZ-JKFIT
  Basis Set: CC-PVDZ
    Blend: CC-PVDZ
  @DF-UKS Final Energy:  -794.86627586515635
    Total Energy =                       -794.8662758651563536
  @DF-UKS Final Energy:  -795.13046666591958
    Total Energy =                       -795.1304666659195846
  @DF-UKS Final Energy:  -795.68705759464058
    Total Energy =                       -795.6870575946404642
  @DF-UKS Final Energy:  -795.89168401195582
    Total Energy =                       -795.8916840119557037
  @DF-UKS Final Energy:  -796.03307122613899
    Total Energy =                       -796.0330712261388726
  @DF-UKS Final Energy:  -796.12319390265657
    Total Energy =                       -796.1231939026565669
  @DF-UKS Final Energy:  -796.17936894074967
    Total Energy =                       -796.1793689407496686
  @DF-UKS Final Energy:  -796.21007255165102
    Total Energy =                       -796.2100725516510238
  @DF-UKS Final Energy:  -796.22530036774072
    Total Energy =                       -796.2253003677408287
  @DF-UKS Final Energy:  -796.23187950083684
    Total Energy =                       -796.2318795008368397
  @DF-UKS Final Energy:  -796.23421531491579
    Total Energy =                       -796.2342153149157866
  @DF-UKS Final Energy:  -796.23480205032706
    Total Energy =                       -796.2348020503271755
  @DF-UKS Final Energy:  -796.23487390149876
    Total Energy =                       -796.2348739014988723
  @DF-UKS Final Energy:  -796.23488339007997
    Total Energy =                       -796.2348833900799718
  Basis Set: (CC-PVDZ AUX)
    Blend: CC-PVDZ-JKFIT
  Basis Set: CC-PVDZ
    Blend: CC-PVDZ
  Basis Set: (CC-PVDZ AUX)
    Blend: CC-PVDZ-JKFIT
  @DF-UKS Final Energy:  -796.23488477558817
    Total Energy =                       -796.2348847755881707
  Basis Set: CC-PVDZ
    Blend: CC-PVDZ
  Basis Set: (CC-PVDZ AUX)
    Blend: CC-PVDZ-JKFIT
  Charge       = 0
  Multiplicity = 5
  Basis Set: CC-PVDZ
    Blend: CC-PVDZ
  Basis Set: (CC-PVDZ AUX)
    Blend: CC-PVDZ-JKFIT

    Orbital Energies [Eh]
    ---------------------

    Alpha Occupied:

       1B2u  -88.940513     1Ag   -88.940513     2B2u   -7.998316
       2Ag    -7.998264     3Ag    -5.967230     3B2u   -5.967227
       1B1g   -5.958015     1B3g   -5.958015     1B3u   -5.958011
       1B1u   -5.958011     4Ag    -0.744333     4B2u   -0.717002
       5Ag    -0.380631     2B3u   -0.324779     2B1u   -0.324779
       2B1g   -0.302085     2B3g   -0.302085     5B2u   -0.286247

    Alpha Virtual:

       6Ag     0.388672     6B2u    0.414644     3B3u    0.419541
       3B1u    0.419541     7Ag     0.468970     3B1g    0.479582
       3B3g    0.479582     7B2u    0.487802     8Ag     0.522709
       4B3u    0.527142     4B1u    0.527142     1B2g    0.549863
       9Ag     0.549863     1Au     0.553572     8B2u    0.553573
       4B1g    0.583481     4B3g    0.583481     9B2u    0.873863

    Beta Occupied:

       1Ag   -88.928867     1B2u  -88.928867     2B2u   -7.986472
       2Ag    -7.986427     3Ag    -5.944828     3B2u   -5.944824
       1B1g   -5.942939     1B3g   -5.942939     1B3u   -5.942937
       1B1u   -5.942937     4Ag    -0.652327     4B2u   -0.620702
       2B3u   -0.250027     2B1u   -0.250027

    Beta Virtual:

       5Ag    -0.223855     2B1g   -0.190095     2B3g   -0.190095
       5B2u   -0.122765     6Ag     0.432392     3B3u    0.458251
       3B1u    0.458251     6B2u    0.463869     3B1g    0.521983
       3B3g    0.521983     7Ag     0.536938     7B2u    0.557092
       8Ag     0.592671     4B3u    0.604091     4B1u    0.604091
       1B2g    0.609602     9Ag     0.609602     1Au     0.614641
       8B2u    0.614641     4B1g    0.656094     4B3g    0.656094
       9B2u    0.929355

    Final Occupation by Irrep:
             Ag   B1g   B2g   B3g    Au   B1u   B2u   B3u
    DOCC [     4,    1,    0,    1,    0,    2,    4,    2 ]
    SOCC [     1,    1,    0,    1,    0,    0,    1,    0 ]
    NA   [     5,    2,    0,    2,    0,    2,    5,    2 ]
    NB   [     4,    1,    0,    1,    0,    2,    4,    2 ]

  @DF-UKS Final Energy:  -796.23488480290303

   => Energetics <=

    Nuclear Repulsion Energy =             46.2944518233181412
    One-Electron Energy =               -1191.4076723577293251
    Two-Electron Energy =                 390.1565906756233630
    DFT Exchange-Correlation Energy =     -41.2782549441152753
    Empirical Dispersion Energy =           0.0000000000000000
    VV10 Nonlocal Energy =                  0.0000000000000000
    Total Energy =                       -796.2348848029029114

  UHF NO Occupations:
  HONO-2 :    5 Ag 1.0000000
  HONO-1 :    2B3g 1.0000000
  HONO-0 :    2B1g 1.0000000
  LUNO+0 :    3B1u 0.0010164
  LUNO+1 :    3B3u 0.0010164
  LUNO+2 :    6 Ag 0.0003602
  LUNO+3 :    6B2u 0.0003064

Computation Completed

Properties will be evaluated at   0.000000,   0.000000,   0.000000 [a0]

Properties computed using the SCF density matrix

 Multipole Moments:

 ------------------------------------------------------------------------------------
     Multipole            Electronic (a.u.)      Nuclear  (a.u.)        Total (a.u.)
 ------------------------------------------------------------------------------------

 L = 1.  Multiply by 2.5417464519 to convert [e a0] to [Debye]
 Dipole X            :          0.0000000            0.0000000            0.0000000
 Dipole Y            :          0.0000000            0.0000000            0.0000000
 Dipole Z            :          0.0000000            0.0000000            0.0000000
 Magnitude           :                                                    0.0000000

 ------------------------------------------------------------------------------------

*** tstop() called on Joses-MacBook-Pro-2.local at Wed Jul 16 20:29:02 2025
Module time:
	user time   =       5.70 seconds =       0.10 minutes
	system time =       2.29 seconds =       0.04 minutes
	total time  =          1 seconds =       0.02 minutes
Total time:
	user time   =     178.76 seconds =       2.98 minutes
	system time =      57.58 seconds =       0.96 minutes
	total time  =         22 seconds =       0.37 minutes

*** tstart() called on Joses-MacBook-Pro-2.local
*** at Wed Jul 16 20:29:02 2025

         ------------------------------------------------------------
                                   SCF GRAD
                          Rob Parrish, Justin Turney,
                       Andy Simmonett, and Alex Sokolov
         ------------------------------------------------------------

  ==> Geometry <==

    Molecular point group: d2h
    Full point group: D_inf_h

    Geometry (in Angstrom), charge = 0, multiplicity = 5:

       Center              X                  Y                   Z               Mass
    ------------   -----------------  -----------------  -----------------  -----------------
         S           -0.000000000000     1.463127443960     0.000000000000    31.972071174400
         S            0.000000000000    -1.463127443960     0.000000000000    31.972071174400

  Nuclear repulsion =   46.294451823318141

  ==> Basis Set <==

  Basis Set: CC-PVDZ
    Blend: CC-PVDZ
    Number of shells: 16
    Number of basis functions: 36
    Number of Cartesian functions: 38
    Spherical Harmonics?: true
    Max angular momentum: 2

  ==> DFJKGrad: Density-Fitted SCF Gradients <==

    Gradient:                    1
    J tasked:                  Yes
    K tasked:                  Yes
    wK tasked:                  No
    OpenMP threads:              1
    Integrals threads:           1
    Memory [MiB]:              375
    Schwarz Cutoff:          1E-12
    Fitting Condition:       1E-10

   => Auxiliary Basis Set <=

  Basis Set: (CC-PVDZ AUX)
    Blend: CC-PVDZ-JKFIT
    Number of shells: 72
    Number of basis functions: 224
    Number of Cartesian functions: 260
    Spherical Harmonics?: true
    Max angular momentum: 3

  ==> DFT Potential <==

   => LibXC <=

    Version 6.2.2
    S. Lehtola, C. Steigemann, M. J.T. Oliveira, and M. A.L. Marques.,  SoftwareX 7, 1â€“5 (2018) (10.1016/j.softx.2017.11.002)

   => Composite Functional: B3LYP <=

    B3LYP Hyb-GGA Exchange-Correlation Functional

    P. J. Stephens, F. J. Devlin, C. F. Chabalowski, and M. J. Frisch.,  J. Phys. Chem. 98, 11623 (1994) (10.1021/j100096a001)

    Deriv               =              1
    GGA                 =           TRUE
    Meta                =          FALSE

    Exchange Hybrid     =           TRUE
    MP2 Hybrid          =          FALSE

   => Exchange Functionals <=

    0.0800   Slater exchange
    0.7200         Becke 88

   => Exact (HF) Exchange <=

    0.2000               HF

   => Correlation Functionals <=

    0.1900   Vosko, Wilk & Nusair (VWN5_RPA)
    0.8100   Lee, Yang & Parr

   => LibXC Density Thresholds  <==

    XC_HYB_GGA_XC_B3LYP:  1.00E-15

   => Molecular Quadrature <=

    Radial Scheme          =       TREUTLER
    Pruning Scheme         =           NONE
    Nuclear Scheme         =       TREUTLER

    Blocking Scheme        =         OCTREE
    BS radius alpha        =              1
    Pruning alpha          =              1
    Radial Points          =             75
    Spherical Points       =            302
    Total Points           =          40354
    Total Blocks           =            378
    Max Points             =            252
    Max Functions          =             36
    Weights Tolerance      =       1.00E-15

  -Total Gradient:
     Atom            X                  Y                   Z
    ------   -----------------  -----------------  -----------------
       1        0.000000000000    -0.000011734083     0.000000000000
       2       -0.000000000000     0.000011734083     0.000000000000

*** tstop() called on Joses-MacBook-Pro-2.local at Wed Jul 16 20:29:02 2025
Module time:
	user time   =       2.28 seconds =       0.04 minutes
	system time =       1.27 seconds =       0.02 minutes
	total time  =          0 seconds =       0.00 minutes
Total time:
	user time   =     181.04 seconds =       3.02 minutes
	system time =      58.85 seconds =       0.98 minutes
	total time  =         22 seconds =       0.37 minutes

    			-----------------------------------------

    			 OPTKING 3.0: for geometry optimizations

    			     By R.A. King, Bethel University

    			        with contributions from

    			    A.V. Copan, J. Cayton, A. Heide

    			-----------------------------------------

	                            ===> Fragment 1 <==

	 Z (Atomic Numbers)          Masses                          Geom
	      16.000000            31.972071         -0.00000000  2.76491016  0.00000000
	      16.000000            31.972071          0.00000000 -2.76491016  0.00000000

	 - Coordinate -           - BOHR/RAD -       - ANG/DEG -
	 R(1,2)           =         5.529820           2.926255

	        --- Internal Coordinate Step in ANG or DEG, aJ/ANG or AJ/DEG ---
	-------------------------------------------------------------------------------
	           Coordinate      Previous         Force          Change          New
	           ----------      --------        ------          ------        ------
	               R(1,2)       2.92625        0.00010        0.00035       2.92661
	-------------------------------------------------------------------------------

	                                 ==> Convergence Check <==

	Measures of convergence in internal coordinates in au.

	Criteria marked as inactive (o), active & met (*), and active & unmet ( ).

	----------------------------------------------------------------------------------------------
	   Step    Total Energy     Delta E     Max Force     RMS Force      Max Disp      RMS Disp
	----------------------------------------------------------------------------------------------
	  Convergence Criteria     1.00e-06 *    3.00e-04 *             o    1.20e-03 *             o
	----------------------------------------------------------------------------------------------
	    18    -796.23488480   -2.73e-08 *    1.17e-05 *    1.17e-05 o    6.68e-04 *    6.68e-04 o  ~
	----------------------------------------------------------------------------------------------

Next Geometry in Ang
	Fragment 1 (Ang)

	    S  -0.0000000000   1.4633041053   0.0000000000
	    S   0.0000000000  -1.4633041053   0.0000000000

    Final optimized geometry and variables:
    Molecular point group: d2h
    Full point group: D_inf_h

    Geometry (in Angstrom), charge = 0, multiplicity = 5:

    S           -0.000000000000     1.463127443960     0.000000000000
    S            0.000000000000    -1.463127443960     0.000000000000

    Psi4 stopped on: Wednesday, 16 July 2025 08:29PM
    Psi4 wall time for execution: 0:00:23.39

*** Psi4 exiting successfully. Buy a developer a beer!
