                               Psi4 1.9.1 release

  ==> Input File <==

--------------------------------------------------------------------------
molecule {
0 5
O   0.00000        0.60000        0.00000
Mg   0.00000       -0.60000        0.00000
}

set {
basis              cc-pvdz
reference          uks
maxiter            500
geom_maxiter       500
DAMPING_PERCENTAGE 1
guess              SAP
}

optimize('b3lyp')
--------------------------------------------------------------------------

    Molecular point group: c2v
  Charge       = 0
  Multiplicity = 5
  Basis Set: CC-PVDZ
    Blend: CC-PVDZ
  Basis Set: (CC-PVDZ AUX)
    Blend: CC-PVDZ-JKFIT + DEF2-UNIVERSAL-JKFIT
  @DF-UKS Final Energy:  -274.51297146791217
    Total Energy =                       -274.5129714679121662
 Dipole X            :          0.0000000            0.0000000            0.0000000
 Dipole Y            :          0.0000000            0.0000000            0.0000000
 Dipole Z            :          1.1016533           -0.0033262            1.0983272
 Magnitude           :                                                    1.0983272
    Molecular point group: c2v
  Basis Set: CC-PVDZ
    Blend: CC-PVDZ
  Basis Set: (CC-PVDZ AUX)
    Blend: CC-PVDZ-JKFIT + DEF2-UNIVERSAL-JKFIT
  Basis Set: CC-PVDZ
    Blend: CC-PVDZ
  Basis Set: (CC-PVDZ AUX)
    Blend: CC-PVDZ-JKFIT + DEF2-UNIVERSAL-JKFIT
  @DF-UKS Final Energy:  -274.75006459561774
    Total Energy =                       -274.7500645956177436
  Basis Set: CC-PVDZ
    Blend: CC-PVDZ
  Basis Set: (CC-PVDZ AUX)
    Blend: CC-PVDZ-JKFIT + DEF2-UNIVERSAL-JKFIT
  Basis Set: CC-PVDZ
    Blend: CC-PVDZ
  @DF-UKS Final Energy:  -274.88629297813424
    Total Energy =                       -274.8862929781342359
  @DF-UKS Final Energy:  -274.95797310415873
    Total Energy =                       -274.9579731041587252
  @DF-UKS Final Energy:  -274.99863019230031
    Total Energy =                       -274.9986301923003111
  @DF-UKS Final Energy:  -275.02235202476697
    Total Energy =                       -275.0223520247669740
  @DF-UKS Final Energy:  -275.03630817557314
    Total Energy =                       -275.0363081755731400
  @DF-UKS Final Energy:  -275.04482580212908
    Total Energy =                       -275.0448258021290826
  @DF-UKS Final Energy:  -275.05014428649957
    Total Energy =                       -275.0501442864995738
  @DF-UKS Final Energy:  -275.05337916726438
    Total Energy =                       -275.0533791672643815
  @DF-UKS Final Energy:  -275.05522515939373
    Total Energy =                       -275.0552251593937285
  @DF-UKS Final Energy:  -275.05621123471684
    Total Energy =                       -275.0562112347168409
  @DF-UKS Final Energy:  -275.05671245985320
    Total Energy =                       -275.0567124598532018
  @DF-UKS Final Energy:  -275.05696182103242
    Total Energy =                       -275.0569618210324165
  @DF-UKS Final Energy:  -275.05708522136399
    Total Energy =                       -275.0570852213639910
  @DF-UKS Final Energy:  -275.05714206236132
    Total Energy =                       -275.0571420623613221
  @DF-UKS Final Energy:  -275.05716490660819
    Total Energy =                       -275.0571649066081932
  @DF-UKS Final Energy:  -275.05716938742069
    Total Energy =                       -275.0571693874206858
  Basis Set: (CC-PVDZ AUX)
    Blend: CC-PVDZ-JKFIT + DEF2-UNIVERSAL-JKFIT
  Basis Set: CC-PVDZ
    Blend: CC-PVDZ
  Basis Set: (CC-PVDZ AUX)
    Blend: CC-PVDZ-JKFIT + DEF2-UNIVERSAL-JKFIT
  @DF-UKS Final Energy:  -275.05717055817865
    Total Energy =                       -275.0571705581786546
  Basis Set: CC-PVDZ
    Blend: CC-PVDZ
  Basis Set: (CC-PVDZ AUX)
    Blend: CC-PVDZ-JKFIT + DEF2-UNIVERSAL-JKFIT
  Charge       = 0
  Multiplicity = 5
  Basis Set: CC-PVDZ
    Blend: CC-PVDZ
  Basis Set: (CC-PVDZ AUX)
    Blend: CC-PVDZ-JKFIT + DEF2-UNIVERSAL-JKFIT

    Orbital Energies [Eh]
    ---------------------

    Alpha Occupied:

       1A1   -46.883703     2A1   -19.282225     3A1    -3.162625
       4A1    -1.906906     1B2    -1.906881     1B1    -1.903867
       5A1    -1.012500     6A1    -0.451100     2B1    -0.450250
       2B2    -0.373705     7A1    -0.244973     3B1    -0.107082

    Alpha Virtual:

       3B2    -0.057413     8A1    -0.056500     9A1     0.081563
       4B1     0.130238     4B2     0.140229    10A1     0.143702
       5B1     0.270023     1A2     0.270293    11A1     0.273534
      12A1     0.281130     5B2     0.281674     6B1     0.812202
      13A1     0.829210     6B2     0.859389    14A1     1.101505
       7B1     2.432770    15A1     2.433082     7B2     2.491050
       2A2     2.491332    16A1     2.512101

    Beta Occupied:

       1A1   -46.879463     2A1   -19.232354     3A1    -3.155506
       4A1    -1.902643     1B2    -1.902618     1B1    -1.895052
       5A1    -0.854377     2B2    -0.322204

    Beta Virtual:

       6A1    -0.173838     2B1    -0.168760     7A1    -0.137579
       3B2    -0.019288     8A1    -0.014457     3B1     0.003619
       9A1     0.108964     4B2     0.161317    10A1     0.165191
       4B1     0.179699    11A1     0.316938     5B2     0.317085
       1A2     0.337754     5B1     0.338210    12A1     0.344776
       6B2     0.889081     6B1     0.925893    13A1     0.941508
      14A1     1.182676     7B2     2.581819     2A2     2.582312
      15A1     2.589574     7B1     2.606369    16A1     2.606658

    Final Occupation by Irrep:
             A1    A2    B1    B2
    DOCC [     5,    0,    1,    2 ]
    SOCC [     2,    0,    2,    0 ]
    NA   [     7,    0,    3,    2 ]
    NB   [     5,    0,    1,    2 ]

  @DF-UKS Final Energy:  -275.05717091255389

   => Energetics <=

    Nuclear Repulsion Energy =             11.8759628863624318
    One-Electron Energy =                -405.6464634663405491
    Two-Electron Energy =                 138.8199933786355871
    DFT Exchange-Correlation Energy =     -20.1066637112113931
    Empirical Dispersion Energy =           0.0000000000000000
    VV10 Nonlocal Energy =                  0.0000000000000000
    Total Energy =                       -275.0571709125538860

  UHF NO Occupations:
  HONO-2 :    3 B1 1.0000000
  HONO-1 :    6 A1 1.0000000
  HONO-0 :    7 A1 1.0000000
  LUNO+0 :    8 A1 0.0007378
  LUNO+1 :    3 B2 0.0002510
  LUNO+2 :    9 A1 0.0000009
  LUNO+3 :    4 B2 0.0000008

Computation Completed

Properties will be evaluated at   0.000000,   0.000000,   0.000000 [a0]

Properties computed using the SCF density matrix

 Multipole Moments:

 ------------------------------------------------------------------------------------
     Multipole            Electronic (a.u.)      Nuclear  (a.u.)        Total (a.u.)
 ------------------------------------------------------------------------------------

 L = 1.  Multiply by 2.5417464519 to convert [e a0] to [Debye]
 Dipole X            :          0.0000000            0.0000000            0.0000000
 Dipole Y            :          0.0000000            0.0000000            0.0000000
 Dipole Z            :          0.0372114           -0.0118568            0.0253546
 Magnitude           :                                                    0.0253546

 ------------------------------------------------------------------------------------

*** tstop() called on Joses-MacBook-Pro-2.local at Wed Jul 16 19:20:21 2025
Module time:
	user time   =       1.29 seconds =       0.02 minutes
	system time =       3.72 seconds =       0.06 minutes
	total time  =          0 seconds =       0.00 minutes
Total time:
	user time   =      70.76 seconds =       1.18 minutes
	system time =     130.73 seconds =       2.18 minutes
	total time  =         20 seconds =       0.33 minutes

*** tstart() called on Joses-MacBook-Pro-2.local
*** at Wed Jul 16 19:20:21 2025

         ------------------------------------------------------------
                                   SCF GRAD
                          Rob Parrish, Justin Turney,
                       Andy Simmonett, and Alex Sokolov
         ------------------------------------------------------------

  ==> Geometry <==

    Molecular point group: c2v
    Full point group: C_inf_v

    Geometry (in Angstrom), charge = 0, multiplicity = 5:

       Center              X                  Y                   Z               Mass
    ------------   -----------------  -----------------  -----------------  -----------------
         O            0.000000000000     0.000000000000     2.566266156864    15.994914619570
         MG           0.000000000000     0.000000000000    -1.711366967324    23.985041697000

  Nuclear repulsion =   11.875962886362432

  ==> Basis Set <==

  Basis Set: CC-PVDZ
    Blend: CC-PVDZ
    Number of shells: 14
    Number of basis functions: 32
    Number of Cartesian functions: 34
    Spherical Harmonics?: true
    Max angular momentum: 2

  ==> DFJKGrad: Density-Fitted SCF Gradients <==

    Gradient:                    1
    J tasked:                  Yes
    K tasked:                  Yes
    wK tasked:                  No
    OpenMP threads:              1
    Integrals threads:           1
    Memory [MiB]:              375
    Schwarz Cutoff:          1E-12
    Fitting Condition:       1E-10

   => Auxiliary Basis Set <=

  Basis Set: (CC-PVDZ AUX)
    Blend: CC-PVDZ-JKFIT + DEF2-UNIVERSAL-JKFIT
    Number of shells: 58
    Number of basis functions: 182
    Number of Cartesian functions: 218
    Spherical Harmonics?: true
    Max angular momentum: 4

  ==> DFT Potential <==

   => LibXC <=

    Version 6.2.2
    S. Lehtola, C. Steigemann, M. J.T. Oliveira, and M. A.L. Marques.,  SoftwareX 7, 1â€“5 (2018) (10.1016/j.softx.2017.11.002)

   => Composite Functional: B3LYP <=

    B3LYP Hyb-GGA Exchange-Correlation Functional

    P. J. Stephens, F. J. Devlin, C. F. Chabalowski, and M. J. Frisch.,  J. Phys. Chem. 98, 11623 (1994) (10.1021/j100096a001)

    Deriv               =              1
    GGA                 =           TRUE
    Meta                =          FALSE

    Exchange Hybrid     =           TRUE
    MP2 Hybrid          =          FALSE

   => Exchange Functionals <=

    0.0800   Slater exchange
    0.7200         Becke 88

   => Exact (HF) Exchange <=

    0.2000               HF

   => Correlation Functionals <=

    0.1900   Vosko, Wilk & Nusair (VWN5_RPA)
    0.8100   Lee, Yang & Parr

   => LibXC Density Thresholds  <==

    XC_HYB_GGA_XC_B3LYP:  1.00E-15

   => Molecular Quadrature <=

    Radial Scheme          =       TREUTLER
    Pruning Scheme         =           NONE
    Nuclear Scheme         =       TREUTLER

    Blocking Scheme        =         OCTREE
    BS radius alpha        =              1
    Pruning alpha          =              1
    Radial Points          =             75
    Spherical Points       =            302
    Total Points           =          43583
    Total Blocks           =            443
    Max Points             =            256
    Max Functions          =             32
    Weights Tolerance      =       1.00E-15

  -Total Gradient:
     Atom            X                  Y                   Z
    ------   -----------------  -----------------  -----------------
       1        0.000000000000    -0.000000000000     0.000012330160
       2        0.000000000000    -0.000000000000     0.000014042808

*** tstop() called on Joses-MacBook-Pro-2.local at Wed Jul 16 19:20:21 2025
Module time:
	user time   =       0.86 seconds =       0.01 minutes
	system time =       1.96 seconds =       0.03 minutes
	total time  =          0 seconds =       0.00 minutes
Total time:
	user time   =      71.62 seconds =       1.19 minutes
	system time =     132.70 seconds =       2.21 minutes
	total time  =         20 seconds =       0.33 minutes

    			-----------------------------------------

    			 OPTKING 3.0: for geometry optimizations

    			     By R.A. King, Bethel University

    			        with contributions from

    			    A.V. Copan, J. Cayton, A. Heide

    			-----------------------------------------

	                            ===> Fragment 1 <==

	 Z (Atomic Numbers)          Masses                          Geom
	       8.000000            15.994915          0.00000000  0.00000000  4.84954020
	      12.000000            23.985042          0.00000000  0.00000000 -3.23401487

	 - Coordinate -           - BOHR/RAD -       - ANG/DEG -
	 R(1,2)           =         8.083555           4.277633

	        --- Internal Coordinate Step in ANG or DEG, aJ/ANG or AJ/DEG ---
	-------------------------------------------------------------------------------
	           Coordinate      Previous         Force          Change          New
	           ----------      --------        ------          ------        ------
	               R(1,2)       4.27763        0.00001        0.00188       4.27952
	-------------------------------------------------------------------------------

	                                 ==> Convergence Check <==

	Measures of convergence in internal coordinates in au.

	Criteria marked as inactive (o), active & met (*), and active & unmet ( ).

	----------------------------------------------------------------------------------------------
	   Step    Total Energy     Delta E     Max Force     RMS Force      Max Disp      RMS Disp
	----------------------------------------------------------------------------------------------
	  Convergence Criteria     1.00e-06 *    3.00e-04 *             o    1.20e-03 *             o
	----------------------------------------------------------------------------------------------
	    20    -275.05717091   -3.54e-07 *    8.56e-07 *    8.56e-07 o    3.56e-03      3.56e-03 o  ~
	----------------------------------------------------------------------------------------------

Next Geometry in Ang
	Fragment 1 (Ang)

	    O   0.0000000000   0.0000000000   2.5672084115
	   Mg   0.0000000000   0.0000000000  -1.7123092219

    Final optimized geometry and variables:
    Molecular point group: c2v
    Full point group: C_inf_v

    Geometry (in Angstrom), charge = 0, multiplicity = 5:

    O            0.000000000000     0.000000000000     2.566266156864
    MG           0.000000000000     0.000000000000    -1.711366967324

    Psi4 stopped on: Wednesday, 16 July 2025 07:20PM
    Psi4 wall time for execution: 0:00:21.51

*** Psi4 exiting successfully. Buy a developer a beer!
