                               Psi4 1.9.1 release

  ==> Input File <==

--------------------------------------------------------------------------
molecule {
0 6
Be   0.00000        0.60000        0.00000
P   0.00000       -0.60000        0.00000
}

set {
basis              cc-pvdz
reference          uks
maxiter            500
geom_maxiter       500
DAMPING_PERCENTAGE 1
guess              SAP
}

optimize('b3lyp')
--------------------------------------------------------------------------

    Molecular point group: c2v
  Charge       = 0
  Multiplicity = 6
  Basis Set: CC-PVDZ
    Blend: CC-PVDZ
  Basis Set: (CC-PVDZ AUX)
    Blend: CC-PVDZ-JKFIT + DEF2-UNIVERSAL-JKFIT
  @DF-UKS Final Energy:  -355.22176757754136
    Total Energy =                       -355.2217675775412999
 Dipole X            :          0.0000000            0.0000000            0.0000000
 Dipole Y            :          0.0000000            0.0000000            0.0000000
 Dipole Z            :         -0.9377304           -0.6401447           -1.5778750
 Magnitude           :                                                    1.5778750
    Molecular point group: c2v
  Basis Set: CC-PVDZ
    Blend: CC-PVDZ
  Basis Set: (CC-PVDZ AUX)
    Blend: CC-PVDZ-JKFIT + DEF2-UNIVERSAL-JKFIT
  Basis Set: CC-PVDZ
    Blend: CC-PVDZ
  Basis Set: (CC-PVDZ AUX)
    Blend: CC-PVDZ-JKFIT + DEF2-UNIVERSAL-JKFIT
  @DF-UKS Final Energy:  -355.46970585002100
    Total Energy =                       -355.4697058500210005
  Basis Set: CC-PVDZ
    Blend: CC-PVDZ
  Basis Set: (CC-PVDZ AUX)
    Blend: CC-PVDZ-JKFIT + DEF2-UNIVERSAL-JKFIT
  Basis Set: CC-PVDZ
    Blend: CC-PVDZ
  @DF-UKS Final Energy:  -355.64461647042026
    Total Energy =                       -355.6446164704202602
  @DF-UKS Final Energy:  -355.74399430437637
    Total Energy =                       -355.7439943043763719
  @DF-UKS Final Energy:  -355.79306915022113
    Total Energy =                       -355.7930691502211857
  @DF-UKS Final Energy:  -355.81925278233467
    Total Energy =                       -355.8192527823346722
  @DF-UKS Final Energy:  -355.83352809773027
    Total Energy =                       -355.8335280977302659
  @DF-UKS Final Energy:  -355.84188195671288
    Total Energy =                       -355.8418819567128821
  @DF-UKS Final Energy:  -355.84720040058841
    Total Energy =                       -355.8472004005884060
  @DF-UKS Final Energy:  -355.85080755045334
    Total Energy =                       -355.8508075504533394
  @DF-UKS Final Energy:  -355.85320798013521
    Total Energy =                       -355.8532079801352666
  @DF-UKS Final Energy:  -355.85466078305052
    Total Energy =                       -355.8546607830505195
  @DF-UKS Final Energy:  -355.85467594181529
    Total Energy =                       -355.8546759418152874
  @DF-UKS Final Energy:  -355.85556056094441
    Total Energy =                       -355.8555605609443546
  @DF-UKS Final Energy:  -355.85556496252451
    Total Energy =                       -355.8555649625245110
  @DF-UKS Final Energy:  -355.85556932583660
    Total Energy =                       -355.8555693258366546
  @DF-UKS Final Energy:  -355.85557364974488
    Total Energy =                       -355.8555736497449402
  @DF-UKS Final Energy:  -355.85600070438835
    Total Energy =                       -355.8560007043882933
  @DF-UKS Final Energy:  -355.85600191363005
    Total Energy =                       -355.8560019136301094
  @DF-UKS Final Energy:  -355.85600311737443
    Total Energy =                       -355.8560031173743710
  @DF-UKS Final Energy:  -355.85600431479952
    Total Energy =                       -355.8560043147994634
  @DF-UKS Final Energy:  -355.85600550600299
    Total Energy =                       -355.8560055060029867
  @DF-UKS Final Energy:  -355.85600669099290
    Total Energy =                       -355.8560066909928992
  @DF-UKS Final Energy:  -355.85600786984907
    Total Energy =                       -355.8560078698490656
  Basis Set: (CC-PVDZ AUX)
    Blend: CC-PVDZ-JKFIT + DEF2-UNIVERSAL-JKFIT
  Basis Set: CC-PVDZ
    Blend: CC-PVDZ
  Basis Set: (CC-PVDZ AUX)
    Blend: CC-PVDZ-JKFIT + DEF2-UNIVERSAL-JKFIT
  @DF-UKS Final Energy:  -355.85621258098240
    Total Energy =                       -355.8562125809823442
  Basis Set: CC-PVDZ
    Blend: CC-PVDZ
  Basis Set: (CC-PVDZ AUX)
    Blend: CC-PVDZ-JKFIT + DEF2-UNIVERSAL-JKFIT
  Charge       = 0
  Multiplicity = 6
  Basis Set: CC-PVDZ
    Blend: CC-PVDZ
  Basis Set: (CC-PVDZ AUX)
    Blend: CC-PVDZ-JKFIT + DEF2-UNIVERSAL-JKFIT

    Orbital Energies [Eh]
    ---------------------

    Alpha Occupied:

       1A1   -77.123381     2A1    -6.591407     3A1    -4.754872
       1B2    -4.754804     1B1    -4.754786     4A1    -4.113486
       5A1    -0.601686     6A1    -0.274512     2B2    -0.261948
       2B1    -0.261626     7A1    -0.256112     3B1    -0.136870

    Alpha Virtual:

       3B2    -0.064853     8A1    -0.062204     4B1     0.166345
       9A1     0.177963     4B2     0.185537    10A1     0.188784
      11A1     0.349532     5B1     0.396568     5B2     0.397097
      12A1     0.399288    13A1     0.427224     1A2     0.427225
       6B1     0.427580     6B2     0.427679    14A1     0.429689
       2A2     0.443286     7B1     0.447686    15A1     0.452817
       7B2     0.464769    16A1     0.539290

    Beta Occupied:

       1A1   -77.111146     2A1    -6.578461     3A1    -4.735840
       1B2    -4.735650     1B1    -4.735599     4A1    -4.094883
       5A1    -0.485118

    Beta Virtual:

       6A1    -0.129587     2B2    -0.115166     2B1    -0.114657
       7A1    -0.104245     3B2    -0.001122     8A1     0.002920
       3B1     0.027856     4B2     0.212974     9A1     0.215839
      10A1     0.228031     4B1     0.238686    11A1     0.394897
       5B2     0.447009     5B1     0.448194    12A1     0.459911
      13A1     0.521584     6B2     0.523439     1A2     0.524358
      14A1     0.524365     6B1     0.524476     7B2     0.534429
      15A1     0.555983     2A2     0.558455     7B1     0.562064
      16A1     0.608813

    Final Occupation by Irrep:
             A1    A2    B1    B2
    DOCC [     5,    0,    1,    1 ]
    SOCC [     2,    0,    2,    1 ]
    NA   [     7,    0,    3,    2 ]
    NB   [     5,    0,    1,    1 ]

  @DF-UKS Final Energy:  -355.85621289115147

   => Energetics <=

    Nuclear Repulsion Energy =              7.4251634263456703
    One-Electron Energy =                -505.2767638007924234
    Two-Electron Energy =                 162.9241575319499020
    DFT Exchange-Correlation Energy =     -20.9287700486545738
    Empirical Dispersion Energy =           0.0000000000000000
    VV10 Nonlocal Energy =                  0.0000000000000000
    Total Energy =                       -355.8562128911514719

  UHF NO Occupations:
  HONO-2 :    2 B2 1.0000000
  HONO-1 :    2 B1 1.0000000
  HONO-0 :    3 B1 1.0000000
  LUNO+0 :    8 A1 0.0001204
  LUNO+1 :    9 A1 0.0000007
  LUNO+2 :   10 A1 0.0000000
  LUNO+3 :    3 B2 0.0000000

Computation Completed

Properties will be evaluated at   0.000000,   0.000000,   0.000000 [a0]

Properties computed using the SCF density matrix

 Multipole Moments:

 ------------------------------------------------------------------------------------
     Multipole            Electronic (a.u.)      Nuclear  (a.u.)        Total (a.u.)
 ------------------------------------------------------------------------------------

 L = 1.  Multiply by 2.5417464519 to convert [e a0] to [Debye]
 Dipole X            :          0.0000000            0.0000000            0.0000000
 Dipole Y            :          0.0000000            0.0000000            0.0000000
 Dipole Z            :          2.1651725           -2.2810944           -0.1159219
 Magnitude           :                                                    0.1159219

 ------------------------------------------------------------------------------------

*** tstop() called on Joses-MacBook-Pro-2.local at Wed Jul 16 18:45:52 2025
Module time:
	user time   =       2.36 seconds =       0.04 minutes
	system time =       2.72 seconds =       0.05 minutes
	total time  =          1 seconds =       0.02 minutes
Total time:
	user time   =     107.56 seconds =       1.79 minutes
	system time =     126.29 seconds =       2.10 minutes
	total time  =         23 seconds =       0.38 minutes

*** tstart() called on Joses-MacBook-Pro-2.local
*** at Wed Jul 16 18:45:52 2025

         ------------------------------------------------------------
                                   SCF GRAD
                          Rob Parrish, Justin Turney,
                       Andy Simmonett, and Alex Sokolov
         ------------------------------------------------------------

  ==> Geometry <==

    Molecular point group: c2v
    Full point group: C_inf_v

    Geometry (in Angstrom), charge = 0, multiplicity = 6:

       Center              X                  Y                   Z               Mass
    ------------   -----------------  -----------------  -----------------  -----------------
         BE           0.000000000000     0.000000000000     3.312325120420     9.012183065000
         P            0.000000000000     0.000000000000    -0.963760241896    30.973761998420

  Nuclear repulsion =    7.425163426345670

  ==> Basis Set <==

  Basis Set: CC-PVDZ
    Blend: CC-PVDZ
    Number of shells: 14
    Number of basis functions: 32
    Number of Cartesian functions: 34
    Spherical Harmonics?: true
    Max angular momentum: 2

  ==> DFJKGrad: Density-Fitted SCF Gradients <==

    Gradient:                    1
    J tasked:                  Yes
    K tasked:                  Yes
    wK tasked:                  No
    OpenMP threads:              1
    Integrals threads:           1
    Memory [MiB]:              375
    Schwarz Cutoff:          1E-12
    Fitting Condition:       1E-10

   => Auxiliary Basis Set <=

  Basis Set: (CC-PVDZ AUX)
    Blend: CC-PVDZ-JKFIT + DEF2-UNIVERSAL-JKFIT
    Number of shells: 53
    Number of basis functions: 163
    Number of Cartesian functions: 190
    Spherical Harmonics?: true
    Max angular momentum: 3

  ==> DFT Potential <==

   => LibXC <=

    Version 6.2.2
    S. Lehtola, C. Steigemann, M. J.T. Oliveira, and M. A.L. Marques.,  SoftwareX 7, 1â€“5 (2018) (10.1016/j.softx.2017.11.002)

   => Composite Functional: B3LYP <=

    B3LYP Hyb-GGA Exchange-Correlation Functional

    P. J. Stephens, F. J. Devlin, C. F. Chabalowski, and M. J. Frisch.,  J. Phys. Chem. 98, 11623 (1994) (10.1021/j100096a001)

    Deriv               =              1
    GGA                 =           TRUE
    Meta                =          FALSE

    Exchange Hybrid     =           TRUE
    MP2 Hybrid          =          FALSE

   => Exchange Functionals <=

    0.0800   Slater exchange
    0.7200         Becke 88

   => Exact (HF) Exchange <=

    0.2000               HF

   => Correlation Functionals <=

    0.1900   Vosko, Wilk & Nusair (VWN5_RPA)
    0.8100   Lee, Yang & Parr

   => LibXC Density Thresholds  <==

    XC_HYB_GGA_XC_B3LYP:  1.00E-15

   => Molecular Quadrature <=

    Radial Scheme          =       TREUTLER
    Pruning Scheme         =           NONE
    Nuclear Scheme         =       TREUTLER

    Blocking Scheme        =         OCTREE
    BS radius alpha        =              1
    Pruning alpha          =              1
    Radial Points          =             75
    Spherical Points       =            302
    Total Points           =          42902
    Total Blocks           =            437
    Max Points             =            256
    Max Functions          =             32
    Weights Tolerance      =       1.00E-15

  -Total Gradient:
     Atom            X                  Y                   Z
    ------   -----------------  -----------------  -----------------
       1       -0.000000000000    -0.000000000000    -0.000252929034
       2        0.000000000000     0.000000000000     0.000257409182

*** tstop() called on Joses-MacBook-Pro-2.local at Wed Jul 16 18:45:52 2025
Module time:
	user time   =       0.60 seconds =       0.01 minutes
	system time =       1.97 seconds =       0.03 minutes
	total time  =          0 seconds =       0.00 minutes
Total time:
	user time   =     108.16 seconds =       1.80 minutes
	system time =     128.28 seconds =       2.14 minutes
	total time  =         23 seconds =       0.38 minutes

    			-----------------------------------------

    			 OPTKING 3.0: for geometry optimizations

    			     By R.A. King, Bethel University

    			        with contributions from

    			    A.V. Copan, J. Cayton, A. Heide

    			-----------------------------------------

	                            ===> Fragment 1 <==

	 Z (Atomic Numbers)          Masses                          Geom
	       4.000000             9.012183          0.00000000  0.00000000  6.25938732
	      15.000000            30.973762          0.00000000  0.00000000 -1.82124291

	 - Coordinate -           - BOHR/RAD -       - ANG/DEG -
	 R(1,2)           =         8.080630           4.276085

	        --- Internal Coordinate Step in ANG or DEG, aJ/ANG or AJ/DEG ---
	-------------------------------------------------------------------------------
	           Coordinate      Previous         Force          Change          New
	           ----------      --------        ------          ------        ------
	               R(1,2)       4.27609        0.00210        0.00066       4.27675
	-------------------------------------------------------------------------------

	                                 ==> Convergence Check <==

	Measures of convergence in internal coordinates in au.

	Criteria marked as inactive (o), active & met (*), and active & unmet ( ).

	----------------------------------------------------------------------------------------------
	   Step    Total Energy     Delta E     Max Force     RMS Force      Max Disp      RMS Disp
	----------------------------------------------------------------------------------------------
	  Convergence Criteria     1.00e-06 *    3.00e-04 *             o    1.20e-03 *             o
	----------------------------------------------------------------------------------------------
	    26    -355.85621289   -3.10e-07 *    2.55e-04 *    2.55e-04 o    1.26e-03      1.26e-03 o  ~
	----------------------------------------------------------------------------------------------

Next Geometry in Ang
	Fragment 1 (Ang)

	   Be   0.0000000000   0.0000000000   3.3126573523
	    P   0.0000000000   0.0000000000  -0.9640924738

    Final optimized geometry and variables:
    Molecular point group: c2v
    Full point group: C_inf_v

    Geometry (in Angstrom), charge = 0, multiplicity = 6:

    BE           0.000000000000     0.000000000000     3.312325120420
    P            0.000000000000     0.000000000000    -0.963760241896

    Psi4 stopped on: Wednesday, 16 July 2025 06:45PM
    Psi4 wall time for execution: 0:00:23.43

*** Psi4 exiting successfully. Buy a developer a beer!
