                               Psi4 1.9.1 release

  ==> Input File <==

--------------------------------------------------------------------------
molecule {
0 6
Cl   0.00000        0.60000        0.00000
Ar   0.00000       -0.60000        0.00000
}

set {
basis              cc-pvdz
reference          uks
maxiter            500
geom_maxiter       500
DAMPING_PERCENTAGE 1
guess              SAP
}

optimize('b3lyp')
--------------------------------------------------------------------------

    Molecular point group: c2v
  Charge       = 0
  Multiplicity = 6
  Basis Set: CC-PVDZ
    Blend: CC-PVDZ
  Basis Set: (CC-PVDZ AUX)
    Blend: CC-PVDZ-JKFIT
  @DF-UKS Final Energy:  -985.20011706318076
    Total Energy =                       -985.2001170631807554
 Dipole X            :          0.0000000            0.0000000            0.0000000
 Dipole Y            :          0.0000000            0.0000000            0.0000000
 Dipole Z            :         -1.7317754            1.5107824           -0.2209930
 Magnitude           :                                                    0.2209930
    Molecular point group: c2v
  Basis Set: CC-PVDZ
    Blend: CC-PVDZ
  Basis Set: (CC-PVDZ AUX)
    Blend: CC-PVDZ-JKFIT
  Basis Set: CC-PVDZ
    Blend: CC-PVDZ
  Basis Set: (CC-PVDZ AUX)
    Blend: CC-PVDZ-JKFIT
  @DF-UKS Final Energy:  -985.24120238504668
    Total Energy =                       -985.2412023850466767
  Basis Set: CC-PVDZ
    Blend: CC-PVDZ
  Basis Set: (CC-PVDZ AUX)
    Blend: CC-PVDZ-JKFIT
  Basis Set: CC-PVDZ
    Blend: CC-PVDZ
  @DF-UKS Final Energy:  -985.31608597410559
    Total Energy =                       -985.3160859741055901
  @DF-UKS Final Energy:  -985.54937425449430
    Total Energy =                       -985.5493742544942961
  @DF-UKS Final Energy:  -985.94354493710398
    Total Energy =                       -985.9435449371039795
  @DF-UKS Final Energy:  -986.06650465159942
    Total Energy =                       -986.0665046515994163
  @DF-UKS Final Energy:  -986.12368855344857
    Total Energy =                       -986.1236885534485737
  @DF-UKS Final Energy:  -986.15446549166847
    Total Energy =                       -986.1544654916684749
  @DF-UKS Final Energy:  -986.16532430113045
    Total Energy =                       -986.1653243011304539
  @DF-UKS Final Energy:  -986.17518433608166
    Total Energy =                       -986.1751843360816565
  @DF-UKS Final Energy:  -986.19237687878081
    Total Energy =                       -986.1923768787808058
  @DF-UKS Final Energy:  -986.21246039255584
    Total Energy =                       -986.2124603925557267
  @DF-UKS Final Energy:  -986.22044665185251
    Total Energy =                       -986.2204466518525123
  @DF-UKS Final Energy:  -986.23064106791981
    Total Energy =                       -986.2306410679198052
  @DF-UKS Final Energy:  -986.23064166319796
    Total Energy =                       -986.2306416631979573
  @DF-UKS Final Energy:  -986.23064206979655
    Total Energy =                       -986.2306420697965450
  Basis Set: (CC-PVDZ AUX)
    Blend: CC-PVDZ-JKFIT
  Basis Set: CC-PVDZ
    Blend: CC-PVDZ
  Basis Set: (CC-PVDZ AUX)
    Blend: CC-PVDZ-JKFIT
  @DF-UKS Final Energy:  -986.23064339817370
    Total Energy =                       -986.2306433981735836
  Basis Set: CC-PVDZ
    Blend: CC-PVDZ
  Basis Set: (CC-PVDZ AUX)
    Blend: CC-PVDZ-JKFIT
  Charge       = 0
  Multiplicity = 6
  Basis Set: CC-PVDZ
    Blend: CC-PVDZ
  Basis Set: (CC-PVDZ AUX)
    Blend: CC-PVDZ-JKFIT

    Orbital Energies [Eh]
    ---------------------

    Alpha Occupied:

       1A1  -115.140063     2A1  -101.684418     3A1   -11.181306
       4A1    -9.611532     5A1    -8.734834     1B2    -8.730446
       1B1    -8.729470     2B2    -7.374877     2B1    -7.372206
       6A1    -7.371651     7A1    -1.041136     8A1    -0.977450
       9A1    -0.555827     3B2    -0.513314     3B1    -0.508885
       4B2    -0.465630     4B1    -0.463424    10A1    -0.406870
       5B1     0.344928    11A1     0.350816

    Alpha Virtual:

       5B2     0.408760    12A1     0.491440     6B2     0.502138
       6B1     0.506778    13A1     0.517215     1A2     0.544226
      14A1     0.547469    15A1     0.595069     7B2     0.621565
       7B1     0.625484    16A1     0.729555     2A2     0.785982
      17A1     0.786141     8B1     0.798214     8B2     0.799847
      18A1     1.168489

    Beta Occupied:

       1A1  -115.135447     2A1  -101.653826     3A1   -11.176864
       4A1    -9.581351     1B2    -8.726942     5A1    -8.724879
       1B1    -8.723575     2B2    -7.338099     6A1    -7.329488
       2B1    -7.320273     7A1    -1.009911     8A1    -0.810529
       9A1    -0.480263     3B2    -0.467189     3B1    -0.459658

    Beta Virtual:

       4B2    -0.293172     4B1    -0.265802    10A1    -0.230931
       5B2     0.472287     5B1     0.492357    11A1     0.520422
      12A1     0.559027     6B2     0.561855     6B1     0.577010
      13A1     0.625965    14A1     0.639569     1A2     0.687090
      15A1     0.688990     7B2     0.697015     7B1     0.712257
      16A1     0.749944     2A2     0.795967    17A1     0.796112
       8B2     0.828312     8B1     0.837831    18A1     1.223168

    Final Occupation by Irrep:
             A1    A2    B1    B2
    DOCC [     9,    0,    3,    3 ]
    SOCC [     2,    0,    2,    1 ]
    NA   [    11,    0,    5,    4 ]
    NB   [     9,    0,    3,    3 ]

  @DF-UKS Final Energy:  -986.23064578130550

   => Energetics <=

    Nuclear Repulsion Energy =             67.5998813450593730
    One-Electron Energy =               -1494.7347894489716964
    Two-Electron Energy =                 488.5310193727328283
    DFT Exchange-Correlation Energy =     -47.6267570501261233
    Empirical Dispersion Energy =           0.0000000000000000
    VV10 Nonlocal Energy =                  0.0000000000000000
    Total Energy =                       -986.2306457813056113

  UHF NO Occupations:
  HONO-2 :    4 B2 1.0000000
  HONO-1 :    4 B1 1.0000000
  HONO-0 :    5 B1 1.0000000
  LUNO+0 :   12 A1 0.0004146
  LUNO+1 :   13 A1 0.0001772
  LUNO+2 :    5 B2 0.0000659
  LUNO+3 :   14 A1 0.0000336

Computation Completed

Properties will be evaluated at   0.000000,   0.000000,   0.000000 [a0]

Properties computed using the SCF density matrix

 Multipole Moments:

 ------------------------------------------------------------------------------------
     Multipole            Electronic (a.u.)      Nuclear  (a.u.)        Total (a.u.)
 ------------------------------------------------------------------------------------

 L = 1.  Multiply by 2.5417464519 to convert [e a0] to [Debye]
 Dipole X            :          0.0000000            0.0000000            0.0000000
 Dipole Y            :          0.0000000            0.0000000            0.0000000
 Dipole Z            :         -4.0148138            3.0157637           -0.9990501
 Magnitude           :                                                    0.9990501

 ------------------------------------------------------------------------------------

*** tstop() called on Joses-MacBook-Pro-2.local at Wed Jul 16 20:34:14 2025
Module time:
	user time   =       8.13 seconds =       0.14 minutes
	system time =       1.59 seconds =       0.03 minutes
	total time  =          1 seconds =       0.02 minutes
Total time:
	user time   =     207.74 seconds =       3.46 minutes
	system time =      60.89 seconds =       1.01 minutes
	total time  =         25 seconds =       0.42 minutes

*** tstart() called on Joses-MacBook-Pro-2.local
*** at Wed Jul 16 20:34:14 2025

         ------------------------------------------------------------
                                   SCF GRAD
                          Rob Parrish, Justin Turney,
                       Andy Simmonett, and Alex Sokolov
         ------------------------------------------------------------

  ==> Geometry <==

    Molecular point group: c2v
    Full point group: C_inf_v

    Geometry (in Angstrom), charge = 0, multiplicity = 6:

       Center              X                  Y                   Z               Mass
    ------------   -----------------  -----------------  -----------------  -----------------
         CL           0.000000000000     0.000000000000     1.277512356478    34.968852682000
         AR           0.000000000000     0.000000000000    -1.117879813494    39.962383123700

  Nuclear repulsion =   67.599881345059373

  ==> Basis Set <==

  Basis Set: CC-PVDZ
    Blend: CC-PVDZ
    Number of shells: 16
    Number of basis functions: 36
    Number of Cartesian functions: 38
    Spherical Harmonics?: true
    Max angular momentum: 2

  ==> DFJKGrad: Density-Fitted SCF Gradients <==

    Gradient:                    1
    J tasked:                  Yes
    K tasked:                  Yes
    wK tasked:                  No
    OpenMP threads:              1
    Integrals threads:           1
    Memory [MiB]:              375
    Schwarz Cutoff:          1E-12
    Fitting Condition:       1E-10

   => Auxiliary Basis Set <=

  Basis Set: (CC-PVDZ AUX)
    Blend: CC-PVDZ-JKFIT
    Number of shells: 72
    Number of basis functions: 224
    Number of Cartesian functions: 260
    Spherical Harmonics?: true
    Max angular momentum: 3

  ==> DFT Potential <==

   => LibXC <=

    Version 6.2.2
    S. Lehtola, C. Steigemann, M. J.T. Oliveira, and M. A.L. Marques.,  SoftwareX 7, 1â€“5 (2018) (10.1016/j.softx.2017.11.002)

   => Composite Functional: B3LYP <=

    B3LYP Hyb-GGA Exchange-Correlation Functional

    P. J. Stephens, F. J. Devlin, C. F. Chabalowski, and M. J. Frisch.,  J. Phys. Chem. 98, 11623 (1994) (10.1021/j100096a001)

    Deriv               =              1
    GGA                 =           TRUE
    Meta                =          FALSE

    Exchange Hybrid     =           TRUE
    MP2 Hybrid          =          FALSE

   => Exchange Functionals <=

    0.0800   Slater exchange
    0.7200         Becke 88

   => Exact (HF) Exchange <=

    0.2000               HF

   => Correlation Functionals <=

    0.1900   Vosko, Wilk & Nusair (VWN5_RPA)
    0.8100   Lee, Yang & Parr

   => LibXC Density Thresholds  <==

    XC_HYB_GGA_XC_B3LYP:  1.00E-15

   => Molecular Quadrature <=

    Radial Scheme          =       TREUTLER
    Pruning Scheme         =           NONE
    Nuclear Scheme         =       TREUTLER

    Blocking Scheme        =         OCTREE
    BS radius alpha        =              1
    Pruning alpha          =              1
    Radial Points          =             75
    Spherical Points       =            302
    Total Points           =          39730
    Total Blocks           =            358
    Max Points             =            251
    Max Functions          =             36
    Weights Tolerance      =       1.00E-15

  -Total Gradient:
     Atom            X                  Y                   Z
    ------   -----------------  -----------------  -----------------
       1        0.000000000000     0.000000000000     0.000000134655
       2        0.000000000000    -0.000000000000     0.000009736536

*** tstop() called on Joses-MacBook-Pro-2.local at Wed Jul 16 20:34:14 2025
Module time:
	user time   =       2.30 seconds =       0.04 minutes
	system time =       1.75 seconds =       0.03 minutes
	total time  =          0 seconds =       0.00 minutes
Total time:
	user time   =     210.04 seconds =       3.50 minutes
	system time =      62.65 seconds =       1.04 minutes
	total time  =         25 seconds =       0.42 minutes

    			-----------------------------------------

    			 OPTKING 3.0: for geometry optimizations

    			     By R.A. King, Bethel University

    			        with contributions from

    			    A.V. Copan, J. Cayton, A. Heide

    			-----------------------------------------

	                            ===> Fragment 1 <==

	 Z (Atomic Numbers)          Masses                          Geom
	      17.000000            34.968853          0.00000000  0.00000000  2.41414848
	      18.000000            39.962383          0.00000000  0.00000000 -2.11248669

	 - Coordinate -           - BOHR/RAD -       - ANG/DEG -
	 R(1,2)           =         4.526635           2.395392

	        --- Internal Coordinate Step in ANG or DEG, aJ/ANG or AJ/DEG ---
	-------------------------------------------------------------------------------
	           Coordinate      Previous         Force          Change          New
	           ----------      --------        ------          ------        ------
	               R(1,2)       2.39539        0.00004        0.00004       2.39543
	-------------------------------------------------------------------------------

	                                 ==> Convergence Check <==

	Measures of convergence in internal coordinates in au.

	Criteria marked as inactive (o), active & met (*), and active & unmet ( ).

	----------------------------------------------------------------------------------------------
	   Step    Total Energy     Delta E     Max Force     RMS Force      Max Disp      RMS Disp
	----------------------------------------------------------------------------------------------
	  Convergence Criteria     1.00e-06 *    3.00e-04 *             o    1.20e-03 *             o
	----------------------------------------------------------------------------------------------
	    18    -986.23064578   -2.38e-06      4.80e-06 *    4.80e-06 o    7.32e-05 *    7.32e-05 o  ~
	----------------------------------------------------------------------------------------------

Next Geometry in Ang
	Fragment 1 (Ang)

	   Cl   0.0000000000   0.0000000000   1.2775317240
	   Ar   0.0000000000   0.0000000000  -1.1178991810

    Final optimized geometry and variables:
    Molecular point group: c2v
    Full point group: C_inf_v

    Geometry (in Angstrom), charge = 0, multiplicity = 6:

    CL           0.000000000000     0.000000000000     1.277512356478
    AR           0.000000000000     0.000000000000    -1.117879813494

    Psi4 stopped on: Wednesday, 16 July 2025 08:34PM
    Psi4 wall time for execution: 0:00:26.33

*** Psi4 exiting successfully. Buy a developer a beer!
