                               Psi4 1.9.1 release

  ==> Input File <==

--------------------------------------------------------------------------
molecule {
0 6
O   0.00000        0.60000        0.00000
F   0.00000       -0.60000        0.00000
}

set {
basis              cc-pvdz
reference          uks
maxiter            500
geom_maxiter       500
DAMPING_PERCENTAGE 1
guess              SAP
}

optimize('b3lyp')
--------------------------------------------------------------------------

    Molecular point group: c2v
  Charge       = 0
  Multiplicity = 6
  Basis Set: CC-PVDZ
    Blend: CC-PVDZ
  Basis Set: (CC-PVDZ AUX)
    Blend: CC-PVDZ-JKFIT
  @DF-UKS Final Energy:  -173.43412324069331
    Total Energy =                       -173.4341232406933386
 Dipole X            :          0.0000000            0.0000000            0.0000000
 Dipole Y            :          0.0000000            0.0000000            0.0000000
 Dipole Z            :         -1.3749025            0.5205619           -0.8543405
 Magnitude           :                                                    0.8543405
    Molecular point group: c2v
  Basis Set: CC-PVDZ
    Blend: CC-PVDZ
  Basis Set: (CC-PVDZ AUX)
    Blend: CC-PVDZ-JKFIT
  Basis Set: CC-PVDZ
    Blend: CC-PVDZ
  Basis Set: (CC-PVDZ AUX)
    Blend: CC-PVDZ-JKFIT
  @DF-UKS Final Energy:  -173.63358772774004
    Total Energy =                       -173.6335877277400357
  Basis Set: CC-PVDZ
    Blend: CC-PVDZ
  Basis Set: (CC-PVDZ AUX)
    Blend: CC-PVDZ-JKFIT
  Basis Set: CC-PVDZ
    Blend: CC-PVDZ
  @DF-UKS Final Energy:  -173.65815480425326
    Total Energy =                       -173.6581548042532575
  @DF-UKS Final Energy:  -173.68136566536873
    Total Energy =                       -173.6813656653687303
  @DF-UKS Final Energy:  -173.69548867910314
    Total Energy =                       -173.6954886791031356
  @DF-UKS Final Energy:  -173.75339682462101
    Total Energy =                       -173.7533968246210065
  @DF-UKS Final Energy:  -173.79686712791897
    Total Energy =                       -173.7968671279189721
  @DF-UKS Final Energy:  -173.82649878616445
    Total Energy =                       -173.8264987861644499
  @DF-UKS Final Energy:  -173.82699909929534
    Total Energy =                       -173.8269990992953353
  Basis Set: (CC-PVDZ AUX)
    Blend: CC-PVDZ-JKFIT
  Basis Set: CC-PVDZ
    Blend: CC-PVDZ
  Basis Set: (CC-PVDZ AUX)
    Blend: CC-PVDZ-JKFIT
  @DF-UKS Final Energy:  -173.82732141956714
    Total Energy =                       -173.8273214195671414
  Basis Set: CC-PVDZ
    Blend: CC-PVDZ
  Basis Set: (CC-PVDZ AUX)
    Blend: CC-PVDZ-JKFIT
  Charge       = 0
  Multiplicity = 6
  Basis Set: CC-PVDZ
    Blend: CC-PVDZ
  Basis Set: (CC-PVDZ AUX)
    Blend: CC-PVDZ-JKFIT

    Orbital Energies [Eh]
    ---------------------

    Alpha Occupied:

       1A1   -24.714306     2A1   -19.404227     3A1    -1.168713
       4A1    -1.158314     5A1    -0.588261     1B1    -0.577810
       1B2    -0.577810     6A1    -0.486318     2B2    -0.399022
       2B1    -0.399022     7A1     0.595968

    Alpha Virtual:

       3B1     0.722986     3B2     0.722986     8A1     0.903686
       4B2     1.136996     4B1     1.136996     9A1     1.183553
      10A1     1.510226    11A1     2.315260     1A2     2.315269
       5B2     2.334540     5B1     2.334540    12A1     2.345965
      13A1     3.497041     6B1     3.515324     6B2     3.515324
      14A1     3.580902     2A2     3.580935

    Beta Occupied:

       1A1   -24.679463     2A1   -19.306288     3A1    -1.064759
       4A1    -0.911952     1B2    -0.365129     1B1    -0.365129

    Beta Virtual:

       2B1    -0.255334     2B2    -0.255334     5A1    -0.227664
       6A1    -0.172981     3B1     0.857489     3B2     0.857489
       7A1     0.868471     8A1     1.058573     4B2     1.158022
       4B1     1.158022     9A1     1.306451    10A1     1.575155
      11A1     2.497210     1A2     2.497218     5B2     2.522949
       5B1     2.522949    12A1     2.535516    13A1     3.597591
       2A2     3.597624     6B2     3.613316     6B1     3.613316
      14A1     3.636520

    Final Occupation by Irrep:
             A1    A2    B1    B2
    DOCC [     4,    0,    1,    1 ]
    SOCC [     3,    0,    1,    1 ]
    NA   [     7,    0,    2,    2 ]
    NB   [     4,    0,    1,    1 ]

  @DF-UKS Final Energy:  -173.82732545276181

   => Energetics <=

    Nuclear Repulsion Energy =             14.4836126686116309
    One-Electron Energy =                -270.1048067700023694
    Two-Electron Energy =                  97.0504476643392735
    DFT Exchange-Correlation Energy =     -15.2565790157103347
    Empirical Dispersion Energy =           0.0000000000000000
    VV10 Nonlocal Energy =                  0.0000000000000000
    Total Energy =                       -173.8273254527618121

  UHF NO Occupations:
  HONO-2 :    2 B1 1.0000000
  HONO-1 :    6 A1 1.0000000
  HONO-0 :    7 A1 1.0000000
  LUNO+0 :    8 A1 0.0010223
  LUNO+1 :    9 A1 0.0003357
  LUNO+2 :    3 B1 0.0000884
  LUNO+3 :    3 B2 0.0000884

Computation Completed

Properties will be evaluated at   0.000000,   0.000000,   0.000000 [a0]

Properties computed using the SCF density matrix

 Multipole Moments:

 ------------------------------------------------------------------------------------
     Multipole            Electronic (a.u.)      Nuclear  (a.u.)        Total (a.u.)
 ------------------------------------------------------------------------------------

 L = 1.  Multiply by 2.5417464519 to convert [e a0] to [Debye]
 Dipole X            :          0.0000000            0.0000000            0.0000000
 Dipole Y            :          0.0000000            0.0000000            0.0000000
 Dipole Z            :         -0.5742767            1.1411636            0.5668869
 Magnitude           :                                                    0.5668869

 ------------------------------------------------------------------------------------

*** tstop() called on Joses-MacBook-Pro-2.local at Wed Jul 16 19:17:41 2025
Module time:
	user time   =       3.22 seconds =       0.05 minutes
	system time =       3.00 seconds =       0.05 minutes
	total time  =          1 seconds =       0.02 minutes
Total time:
	user time   =      64.42 seconds =       1.07 minutes
	system time =      49.05 seconds =       0.82 minutes
	total time  =         12 seconds =       0.20 minutes

*** tstart() called on Joses-MacBook-Pro-2.local
*** at Wed Jul 16 19:17:41 2025

         ------------------------------------------------------------
                                   SCF GRAD
                          Rob Parrish, Justin Turney,
                       Andy Simmonett, and Alex Sokolov
         ------------------------------------------------------------

  ==> Geometry <==

    Molecular point group: c2v
    Full point group: C_inf_v

    Geometry (in Angstrom), charge = 0, multiplicity = 6:

       Center              X                  Y                   Z               Mass
    ------------   -----------------  -----------------  -----------------  -----------------
         O            0.000000000000     0.000000000000     1.428198938506    15.994914619570
         F            0.000000000000     0.000000000000    -1.202412638867    18.998403162730

  Nuclear repulsion =   14.483612668611631

  ==> Basis Set <==

  Basis Set: CC-PVDZ
    Blend: CC-PVDZ
    Number of shells: 12
    Number of basis functions: 28
    Number of Cartesian functions: 30
    Spherical Harmonics?: true
    Max angular momentum: 2

  ==> DFJKGrad: Density-Fitted SCF Gradients <==

    Gradient:                    1
    J tasked:                  Yes
    K tasked:                  Yes
    wK tasked:                  No
    OpenMP threads:              1
    Integrals threads:           1
    Memory [MiB]:              375
    Schwarz Cutoff:          1E-12
    Fitting Condition:       1E-10

   => Auxiliary Basis Set <=

  Basis Set: (CC-PVDZ AUX)
    Blend: CC-PVDZ-JKFIT
    Number of shells: 48
    Number of basis functions: 140
    Number of Cartesian functions: 162
    Spherical Harmonics?: true
    Max angular momentum: 3

  ==> DFT Potential <==

   => LibXC <=

    Version 6.2.2
    S. Lehtola, C. Steigemann, M. J.T. Oliveira, and M. A.L. Marques.,  SoftwareX 7, 1â€“5 (2018) (10.1016/j.softx.2017.11.002)

   => Composite Functional: B3LYP <=

    B3LYP Hyb-GGA Exchange-Correlation Functional

    P. J. Stephens, F. J. Devlin, C. F. Chabalowski, and M. J. Frisch.,  J. Phys. Chem. 98, 11623 (1994) (10.1021/j100096a001)

    Deriv               =              1
    GGA                 =           TRUE
    Meta                =          FALSE

    Exchange Hybrid     =           TRUE
    MP2 Hybrid          =          FALSE

   => Exchange Functionals <=

    0.0800   Slater exchange
    0.7200         Becke 88

   => Exact (HF) Exchange <=

    0.2000               HF

   => Correlation Functionals <=

    0.1900   Vosko, Wilk & Nusair (VWN5_RPA)
    0.8100   Lee, Yang & Parr

   => LibXC Density Thresholds  <==

    XC_HYB_GGA_XC_B3LYP:  1.00E-15

   => Molecular Quadrature <=

    Radial Scheme          =       TREUTLER
    Pruning Scheme         =           NONE
    Nuclear Scheme         =       TREUTLER

    Blocking Scheme        =         OCTREE
    BS radius alpha        =              1
    Pruning alpha          =              1
    Radial Points          =             75
    Spherical Points       =            302
    Total Points           =          42157
    Total Blocks           =            378
    Max Points             =            254
    Max Functions          =             28
    Weights Tolerance      =       1.00E-15

  -Total Gradient:
     Atom            X                  Y                   Z
    ------   -----------------  -----------------  -----------------
       1       -0.000000000000     0.000000000000    -0.000101500199
       2        0.000000000000     0.000000000000     0.000100037381

*** tstop() called on Joses-MacBook-Pro-2.local at Wed Jul 16 19:17:41 2025
Module time:
	user time   =       0.40 seconds =       0.01 minutes
	system time =       1.21 seconds =       0.02 minutes
	total time  =          0 seconds =       0.00 minutes
Total time:
	user time   =      64.82 seconds =       1.08 minutes
	system time =      50.26 seconds =       0.84 minutes
	total time  =         12 seconds =       0.20 minutes

    			-----------------------------------------

    			 OPTKING 3.0: for geometry optimizations

    			     By R.A. King, Bethel University

    			        with contributions from

    			    A.V. Copan, J. Cayton, A. Heide

    			-----------------------------------------

	                            ===> Fragment 1 <==

	 Z (Atomic Numbers)          Masses                          Geom
	       8.000000            15.994915          0.00000000  0.00000000  2.69890485
	       9.000000            18.998403          0.00000000  0.00000000 -2.27223058

	 - Coordinate -           - BOHR/RAD -       - ANG/DEG -
	 R(1,2)           =         4.971135           2.630612

	        --- Internal Coordinate Step in ANG or DEG, aJ/ANG or AJ/DEG ---
	-------------------------------------------------------------------------------
	           Coordinate      Previous         Force          Change          New
	           ----------      --------        ------          ------        ------
	               R(1,2)       2.63061        0.00083        0.00053       2.63114
	-------------------------------------------------------------------------------

	                                 ==> Convergence Check <==

	Measures of convergence in internal coordinates in au.

	Criteria marked as inactive (o), active & met (*), and active & unmet ( ).

	----------------------------------------------------------------------------------------------
	   Step    Total Energy     Delta E     Max Force     RMS Force      Max Disp      RMS Disp
	----------------------------------------------------------------------------------------------
	  Convergence Criteria     1.00e-06 *    3.00e-04 *             o    1.20e-03 *             o
	----------------------------------------------------------------------------------------------
	    11    -173.82732545   -4.03e-06      1.01e-04 *    1.01e-04 o    9.94e-04 *    9.94e-04 o  ~
	----------------------------------------------------------------------------------------------

Next Geometry in Ang
	Fragment 1 (Ang)

	    O   0.0000000000   0.0000000000   1.4284618227
	    F   0.0000000000   0.0000000000  -1.2026755231

    Final optimized geometry and variables:
    Molecular point group: c2v
    Full point group: C_inf_v

    Geometry (in Angstrom), charge = 0, multiplicity = 6:

    O            0.000000000000     0.000000000000     1.428198938506
    F            0.000000000000     0.000000000000    -1.202412638867

    Psi4 stopped on: Wednesday, 16 July 2025 07:17PM
    Psi4 wall time for execution: 0:00:12.20

*** Psi4 exiting successfully. Buy a developer a beer!
