                               Psi4 1.9.1 release

  ==> Input File <==

--------------------------------------------------------------------------
molecule {
0 6
Na   0.00000        0.60000        0.00000
Si   0.00000       -0.60000        0.00000
}

set {
basis              cc-pvdz
reference          uks
maxiter            500
geom_maxiter       500
DAMPING_PERCENTAGE 1
guess              SAP
}

optimize('b3lyp')
--------------------------------------------------------------------------

    Molecular point group: c2v
  Charge       = 0
  Multiplicity = 6
  Basis Set: CC-PVDZ
    Blend: CC-PVDZ
  Basis Set: (CC-PVDZ AUX)
    Blend: CC-PVDZ-JKFIT + DEF2-UNIVERSAL-JKFIT
  @DF-UKS Final Energy:  -450.61282478911448
    Total Energy =                       -450.6128247891144838
 Dipole X            :          0.0000000            0.0000000            0.0000000
 Dipole Y            :          0.0000000            0.0000000            0.0000000
 Dipole Z            :         -0.5489206           -0.6278248           -1.1767454
 Magnitude           :                                                    1.1767454
    Molecular point group: c2v
  Basis Set: CC-PVDZ
    Blend: CC-PVDZ
  Basis Set: (CC-PVDZ AUX)
    Blend: CC-PVDZ-JKFIT + DEF2-UNIVERSAL-JKFIT
  Basis Set: CC-PVDZ
    Blend: CC-PVDZ
  Basis Set: (CC-PVDZ AUX)
    Blend: CC-PVDZ-JKFIT + DEF2-UNIVERSAL-JKFIT
  @DF-UKS Final Energy:  -450.62180837273246
    Total Energy =                       -450.6218083727324597
  Basis Set: CC-PVDZ
    Blend: CC-PVDZ
  Basis Set: (CC-PVDZ AUX)
    Blend: CC-PVDZ-JKFIT + DEF2-UNIVERSAL-JKFIT
  Basis Set: CC-PVDZ
    Blend: CC-PVDZ
  @DF-UKS Final Energy:  -450.63920012691869
    Total Energy =                       -450.6392001269186949
  @DF-UKS Final Energy:  -450.70281705313607
    Total Energy =                       -450.7028170531360729
  @DF-UKS Final Energy:  -451.00215545576680
    Total Energy =                       -451.0021554557667969
  @DF-UKS Final Energy:  -451.19037765911850
    Total Energy =                       -451.1903776591184965
  @DF-UKS Final Energy:  -451.32928885646334
    Total Energy =                       -451.3292888564633358
  @DF-UKS Final Energy:  -451.40688923256079
    Total Energy =                       -451.4068892325607862
  @DF-UKS Final Energy:  -451.44914058661817
    Total Energy =                       -451.4491405866181708
  @DF-UKS Final Energy:  -451.47289271274809
    Total Energy =                       -451.4728927127480347
  @DF-UKS Final Energy:  -451.48743388567055
    Total Energy =                       -451.4874338856705549
  @DF-UKS Final Energy:  -451.49662602425911
    Total Energy =                       -451.4966260242591147
  @DF-UKS Final Energy:  -451.50254050059192
    Total Energy =                       -451.5025405005919197
  @DF-UKS Final Energy:  -451.50275404742575
    Total Energy =                       -451.5027540474257535
  @DF-UKS Final Energy:  -451.50700048802304
    Total Energy =                       -451.5070004880230385
  @DF-UKS Final Energy:  -451.50708080065522
    Total Energy =                       -451.5070808006552170
  @DF-UKS Final Energy:  -451.50960240872888
    Total Energy =                       -451.5096024087288811
  @DF-UKS Final Energy:  -451.50963352355075
    Total Energy =                       -451.5096335235507468
  @DF-UKS Final Energy:  -451.51114708742267
    Total Energy =                       -451.5111470874226711
  @DF-UKS Final Energy:  -451.51115906626933
    Total Energy =                       -451.5111590662693857
  @DF-UKS Final Energy:  -451.51258294799629
    Total Energy =                       -451.5125829479963500
  @DF-UKS Final Energy:  -451.51258472529565
    Total Energy =                       -451.5125847252956532
  @DF-UKS Final Energy:  -451.51258649505900
    Total Energy =                       -451.5125864950589971
  @DF-UKS Final Energy:  -451.51258825746487
    Total Energy =                       -451.5125882574648699
  @DF-UKS Final Energy:  -451.51259001248167
    Total Energy =                       -451.5125900124816667
  @DF-UKS Final Energy:  -451.51259176020596
    Total Energy =                       -451.5125917602059644
  @DF-UKS Final Energy:  -451.51290646895808
    Total Energy =                       -451.5129064689580787
  @DF-UKS Final Energy:  -451.51290716241846
    Total Energy =                       -451.5129071624184576
  @DF-UKS Final Energy:  -451.51290785381320
    Total Energy =                       -451.5129078538132035
  @DF-UKS Final Energy:  -451.51290854341380
    Total Energy =                       -451.5129085434138005
  @DF-UKS Final Energy:  -451.51290923124748
    Total Energy =                       -451.5129092312474768
  @DF-UKS Final Energy:  -451.51290991726302
    Total Energy =                       -451.5129099172630731
  @DF-UKS Final Energy:  -451.51291060157621
    Total Energy =                       -451.5129106015762090
  @DF-UKS Final Energy:  -451.51291128405575
    Total Energy =                       -451.5129112840557468
  @DF-UKS Final Energy:  -451.51291196487244
    Total Energy =                       -451.5129119648724441
  @DF-UKS Final Energy:  -451.51291264390403
    Total Energy =                       -451.5129126439040306
  @DF-UKS Final Energy:  -451.51291332118308
    Total Energy =                       -451.5129133211830776
  @DF-UKS Final Energy:  -451.51291399674960
    Total Energy =                       -451.5129139967496030
  Basis Set: (CC-PVDZ AUX)
    Blend: CC-PVDZ-JKFIT + DEF2-UNIVERSAL-JKFIT
  Basis Set: CC-PVDZ
    Blend: CC-PVDZ
  Basis Set: (CC-PVDZ AUX)
    Blend: CC-PVDZ-JKFIT + DEF2-UNIVERSAL-JKFIT
  @DF-UKS Final Energy:  -451.51310411888198
    Total Energy =                       -451.5131041188819836
  Basis Set: CC-PVDZ
    Blend: CC-PVDZ
  Basis Set: (CC-PVDZ AUX)
    Blend: CC-PVDZ-JKFIT + DEF2-UNIVERSAL-JKFIT
  Charge       = 0
  Multiplicity = 6
  Basis Set: CC-PVDZ
    Blend: CC-PVDZ
  Basis Set: (CC-PVDZ AUX)
    Blend: CC-PVDZ-JKFIT + DEF2-UNIVERSAL-JKFIT

    Orbital Energies [Eh]
    ---------------------

    Alpha Occupied:

       1A1   -66.210315     2A1   -38.479487     3A1    -5.354348
       4A1    -3.714254     1B1    -3.714240     1B2    -3.714240
       5A1    -2.224173     6A1    -1.155021     2B2    -1.155003
       2B1    -1.155003     7A1    -0.507657     8A1    -0.225601
       3B1    -0.225325     3B2    -0.225325     9A1    -0.127945

    Alpha Virtual:

       4B1    -0.020655     4B2    -0.020655    10A1    -0.019069
      11A1     0.053862     5B1     0.076220     5B2     0.076220
      12A1     0.076824    13A1     0.154241    14A1     0.159273
       1A2     0.159273     6B2     0.159281     6B1     0.159281
      15A1     0.239103     7B2     0.280136     7B1     0.280136
      16A1     0.299454    17A1     0.303100     2A2     0.303143
       8B1     0.303564     8B2     0.303564    18A1     0.316274

    Beta Occupied:

       1A1   -66.194229     2A1   -38.478022     3A1    -5.333321
       4A1    -3.691695     1B1    -3.691674     1B2    -3.691674
       5A1    -2.221231     6A1    -1.153104     2B2    -1.153085
       2B1    -1.153085

    Beta Virtual:

       7A1    -0.278768     8A1    -0.065803     9A1    -0.039205
       3B1    -0.038590     3B2    -0.038590     4B2     0.003919
       4B1     0.003919    10A1     0.009292    11A1     0.071979
       5B2     0.094691     5B1     0.094691    12A1     0.096885
      13A1     0.184799     6B1     0.187813     6B2     0.187813
      14A1     0.188076     1A2     0.188080    15A1     0.314173
       7B2     0.356362     7B1     0.356362    16A1     0.383973
      17A1     0.446654     2A2     0.446695     8B1     0.447038
       8B2     0.447038    18A1     0.448548

    Final Occupation by Irrep:
             A1    A2    B1    B2
    DOCC [     6,    0,    2,    2 ]
    SOCC [     3,    0,    1,    1 ]
    NA   [     9,    0,    3,    3 ]
    NB   [     6,    0,    2,    2 ]

  @DF-UKS Final Energy:  -451.51310438374827

   => Energetics <=

    Nuclear Repulsion Energy =             13.8423746339506621
    One-Electron Energy =                -655.4839019517301040
    Two-Electron Energy =                 218.5586823873271953
    DFT Exchange-Correlation Energy =     -28.4302594532959816
    Empirical Dispersion Energy =           0.0000000000000000
    VV10 Nonlocal Energy =                  0.0000000000000000
    Total Energy =                       -451.5131043837483276

  UHF NO Occupations:
  HONO-2 :    3 B2 1.0000000
  HONO-1 :    8 A1 1.0000000
  HONO-0 :    9 A1 1.0000000
  LUNO+0 :    4 B2 0.0000011
  LUNO+1 :    4 B1 0.0000011
  LUNO+2 :   10 A1 0.0000011
  LUNO+3 :   11 A1 0.0000002

Computation Completed

Properties will be evaluated at   0.000000,   0.000000,   0.000000 [a0]

Properties computed using the SCF density matrix

 Multipole Moments:

 ------------------------------------------------------------------------------------
     Multipole            Electronic (a.u.)      Nuclear  (a.u.)        Total (a.u.)
 ------------------------------------------------------------------------------------

 L = 1.  Multiply by 2.5417464519 to convert [e a0] to [Debye]
 Dipole X            :          0.0000000            0.0000000            0.0000000
 Dipole Y            :          0.0000000            0.0000000            0.0000000
 Dipole Z            :          3.0185951           -3.0801258           -0.0615306
 Magnitude           :                                                    0.0615306

 ------------------------------------------------------------------------------------

*** tstop() called on Joses-MacBook-Pro-2.local at Wed Jul 16 19:44:12 2025
Module time:
	user time   =       2.34 seconds =       0.04 minutes
	system time =       1.93 seconds =       0.03 minutes
	total time  =          0 seconds =       0.00 minutes
Total time:
	user time   =     399.01 seconds =       6.65 minutes
	system time =     159.76 seconds =       2.66 minutes
	total time  =         52 seconds =       0.87 minutes

*** tstart() called on Joses-MacBook-Pro-2.local
*** at Wed Jul 16 19:44:12 2025

         ------------------------------------------------------------
                                   SCF GRAD
                          Rob Parrish, Justin Turney,
                       Andy Simmonett, and Alex Sokolov
         ------------------------------------------------------------

  ==> Geometry <==

    Molecular point group: c2v
    Full point group: C_inf_v

    Geometry (in Angstrom), charge = 0, multiplicity = 6:

       Center              X                  Y                   Z               Mass
    ------------   -----------------  -----------------  -----------------  -----------------
         NA           0.000000000000     0.000000000000     3.231653416298    22.989769282000
         SI           0.000000000000     0.000000000000    -2.655579995468    27.976926534650

  Nuclear repulsion =   13.842374633950662

  ==> Basis Set <==

  Basis Set: CC-PVDZ
    Blend: CC-PVDZ
    Number of shells: 16
    Number of basis functions: 36
    Number of Cartesian functions: 38
    Spherical Harmonics?: true
    Max angular momentum: 2

  ==> DFJKGrad: Density-Fitted SCF Gradients <==

    Gradient:                    1
    J tasked:                  Yes
    K tasked:                  Yes
    wK tasked:                  No
    OpenMP threads:              1
    Integrals threads:           1
    Memory [MiB]:              375
    Schwarz Cutoff:          1E-12
    Fitting Condition:       1E-10

   => Auxiliary Basis Set <=

  Basis Set: (CC-PVDZ AUX)
    Blend: CC-PVDZ-JKFIT + DEF2-UNIVERSAL-JKFIT
    Number of shells: 70
    Number of basis functions: 224
    Number of Cartesian functions: 267
    Spherical Harmonics?: true
    Max angular momentum: 4

  ==> DFT Potential <==

   => LibXC <=

    Version 6.2.2
    S. Lehtola, C. Steigemann, M. J.T. Oliveira, and M. A.L. Marques.,  SoftwareX 7, 1â€“5 (2018) (10.1016/j.softx.2017.11.002)

   => Composite Functional: B3LYP <=

    B3LYP Hyb-GGA Exchange-Correlation Functional

    P. J. Stephens, F. J. Devlin, C. F. Chabalowski, and M. J. Frisch.,  J. Phys. Chem. 98, 11623 (1994) (10.1021/j100096a001)

    Deriv               =              1
    GGA                 =           TRUE
    Meta                =          FALSE

    Exchange Hybrid     =           TRUE
    MP2 Hybrid          =          FALSE

   => Exchange Functionals <=

    0.0800   Slater exchange
    0.7200         Becke 88

   => Exact (HF) Exchange <=

    0.2000               HF

   => Correlation Functionals <=

    0.1900   Vosko, Wilk & Nusair (VWN5_RPA)
    0.8100   Lee, Yang & Parr

   => LibXC Density Thresholds  <==

    XC_HYB_GGA_XC_B3LYP:  1.00E-15

   => Molecular Quadrature <=

    Radial Scheme          =       TREUTLER
    Pruning Scheme         =           NONE
    Nuclear Scheme         =       TREUTLER

    Blocking Scheme        =         OCTREE
    BS radius alpha        =              1
    Pruning alpha          =              1
    Radial Points          =             75
    Spherical Points       =            302
    Total Points           =          43926
    Total Blocks           =            469
    Max Points             =            255
    Max Functions          =             36
    Weights Tolerance      =       1.00E-15

  -Total Gradient:
     Atom            X                  Y                   Z
    ------   -----------------  -----------------  -----------------
       1        0.000000000000     0.000000000000    -0.000204591959
       2       -0.000000000000    -0.000000000000     0.000209955255

*** tstop() called on Joses-MacBook-Pro-2.local at Wed Jul 16 19:44:13 2025
Module time:
	user time   =       1.92 seconds =       0.03 minutes
	system time =       1.85 seconds =       0.03 minutes
	total time  =          1 seconds =       0.02 minutes
Total time:
	user time   =     400.93 seconds =       6.68 minutes
	system time =     161.61 seconds =       2.69 minutes
	total time  =         53 seconds =       0.88 minutes

    			-----------------------------------------

    			 OPTKING 3.0: for geometry optimizations

    			     By R.A. King, Bethel University

    			        with contributions from

    			    A.V. Copan, J. Cayton, A. Heide

    			-----------------------------------------

	                            ===> Fragment 1 <==

	 Z (Atomic Numbers)          Masses                          Geom
	      11.000000            22.989769          0.00000000  0.00000000  6.10693989
	      14.000000            27.976927          0.00000000  0.00000000 -5.01831890

	 - Coordinate -           - BOHR/RAD -       - ANG/DEG -
	 R(1,2)           =        11.125259           5.887233

	        --- Internal Coordinate Step in ANG or DEG, aJ/ANG or AJ/DEG ---
	-------------------------------------------------------------------------------
	           Coordinate      Previous         Force          Change          New
	           ----------      --------        ------          ------        ------
	               R(1,2)       5.88723        0.00171        0.00069       5.88793
	-------------------------------------------------------------------------------

	                                 ==> Convergence Check <==

	Measures of convergence in internal coordinates in au.

	Criteria marked as inactive (o), active & met (*), and active & unmet ( ).

	----------------------------------------------------------------------------------------------
	   Step    Total Energy     Delta E     Max Force     RMS Force      Max Disp      RMS Disp
	----------------------------------------------------------------------------------------------
	  Convergence Criteria     1.00e-06 *    3.00e-04 *             o    1.20e-03 *             o
	----------------------------------------------------------------------------------------------
	    46    -451.51310438   -2.65e-07 *    2.07e-04 *    2.07e-04 o    1.31e-03      1.31e-03 o  ~
	----------------------------------------------------------------------------------------------

Next Geometry in Ang
	Fragment 1 (Ang)

	   Na   0.0000000000   0.0000000000   3.2319995657
	   Si   0.0000000000   0.0000000000  -2.6559261449

    Final optimized geometry and variables:
    Molecular point group: c2v
    Full point group: C_inf_v

    Geometry (in Angstrom), charge = 0, multiplicity = 6:

    NA           0.000000000000     0.000000000000     3.231653416298
    SI           0.000000000000     0.000000000000    -2.655579995468

    Psi4 stopped on: Wednesday, 16 July 2025 07:44PM
    Psi4 wall time for execution: 0:00:53.29

*** Psi4 exiting successfully. Buy a developer a beer!
