                               Psi4 1.9.1 release

  ==> Input File <==

--------------------------------------------------------------------------
molecule {
0 6
Be   0.00000        0.60000        0.00000
Al   0.00000       -0.60000        0.00000
}

set {
basis              cc-pvdz
reference          uks
maxiter            500
geom_maxiter       500
DAMPING_PERCENTAGE 1
guess              SAP
}

optimize('b3lyp')
--------------------------------------------------------------------------

    Molecular point group: c2v
  Charge       = 0
  Multiplicity = 6
  Basis Set: CC-PVDZ
    Blend: CC-PVDZ
  Basis Set: (CC-PVDZ AUX)
    Blend: CC-PVDZ-JKFIT + DEF2-UNIVERSAL-JKFIT
  @DF-UKS Final Energy:  -256.36232136535926
    Total Energy =                       -256.3623213653592643
 Dipole X            :          0.0000000            0.0000000            0.0000000
 Dipole Y            :          0.0000000            0.0000000            0.0000000
 Dipole Z            :         -0.2817486           -0.5816474           -0.8633960
 Magnitude           :                                                    0.8633960
    Molecular point group: c2v
  Basis Set: CC-PVDZ
    Blend: CC-PVDZ
  Basis Set: (CC-PVDZ AUX)
    Blend: CC-PVDZ-JKFIT + DEF2-UNIVERSAL-JKFIT
  Basis Set: CC-PVDZ
    Blend: CC-PVDZ
  Basis Set: (CC-PVDZ AUX)
    Blend: CC-PVDZ-JKFIT + DEF2-UNIVERSAL-JKFIT
  @DF-UKS Final Energy:  -256.51710857049329
    Total Energy =                       -256.5171085704932921
  Basis Set: CC-PVDZ
    Blend: CC-PVDZ
  Basis Set: (CC-PVDZ AUX)
    Blend: CC-PVDZ-JKFIT + DEF2-UNIVERSAL-JKFIT
  Basis Set: CC-PVDZ
    Blend: CC-PVDZ
  @DF-UKS Final Energy:  -256.67108393174738
    Total Energy =                       -256.6710839317473756
  @DF-UKS Final Energy:  -256.79185074498770
    Total Energy =                       -256.7918507449876984
  @DF-UKS Final Energy:  -256.85145864936368
    Total Energy =                       -256.8514586493636784
  @DF-UKS Final Energy:  -256.87790170994231
    Total Energy =                       -256.8779017099423072
  @DF-UKS Final Energy:  -256.88819281189228
    Total Energy =                       -256.8881928118922815
  @DF-UKS Final Energy:  -256.89123013444782
    Total Energy =                       -256.8912301344478237
  @DF-UKS Final Energy:  -256.89170571845386
    Total Energy =                       -256.8917057184538635
  @DF-UKS Final Energy:  -256.89179717733464
    Total Energy =                       -256.8917971773346380
  Basis Set: (CC-PVDZ AUX)
    Blend: CC-PVDZ-JKFIT + DEF2-UNIVERSAL-JKFIT
  Basis Set: CC-PVDZ
    Blend: CC-PVDZ
  Basis Set: (CC-PVDZ AUX)
    Blend: CC-PVDZ-JKFIT + DEF2-UNIVERSAL-JKFIT
  @DF-UKS Final Energy:  -256.89180343193868
    Total Energy =                       -256.8918034319386834
  Basis Set: CC-PVDZ
    Blend: CC-PVDZ
  Basis Set: (CC-PVDZ AUX)
    Blend: CC-PVDZ-JKFIT + DEF2-UNIVERSAL-JKFIT
  Charge       = 0
  Multiplicity = 6
  Basis Set: CC-PVDZ
    Blend: CC-PVDZ
  Basis Set: (CC-PVDZ AUX)
    Blend: CC-PVDZ-JKFIT + DEF2-UNIVERSAL-JKFIT

    Orbital Energies [Eh]
    ---------------------

    Alpha Occupied:

       1A1   -56.119045     2A1    -4.201158     3A1    -4.109177
       4A1    -2.754596     1B2    -2.753998     1B1    -2.753998
       5A1    -0.431282     6A1    -0.274374     2B1    -0.189917
       2B2    -0.189917     7A1    -0.180920

    Alpha Virtual:

       3B2    -0.054094     3B1    -0.054094     8A1     0.035763
       9A1     0.108132     4B2     0.159138     4B1     0.159138
      10A1     0.163064    11A1     0.199991     5B2     0.206843
       5B1     0.206843    12A1     0.208699     1A2     0.208699
       6B1     0.240561     6B2     0.240561    13A1     0.313022
      14A1     0.461161     2A2     0.461161    15A1     0.469321
       7B2     0.583554     7B1     0.583554    16A1     0.731653

    Beta Occupied:

       1A1   -56.109564     2A1    -4.187541     3A1    -4.090256
       1B2    -2.740808     1B1    -2.740808     4A1    -2.740707

    Beta Virtual:

       5A1    -0.241790     6A1    -0.110742     2B1    -0.050189
       2B2    -0.050189     7A1    -0.019618     3B1     0.033814
       3B2     0.033814     8A1     0.101691     9A1     0.178958
       4B2     0.209471     4B1     0.209471    10A1     0.221309
       5B2     0.255112     5B1     0.255112    11A1     0.276141
       1A2     0.309320    12A1     0.309332     6B1     0.341657
       6B2     0.341657    13A1     0.362478    14A1     0.551610
       2A2     0.551660    15A1     0.554149     7B2     0.687291
       7B1     0.687291    16A1     0.818860

    Final Occupation by Irrep:
             A1    A2    B1    B2
    DOCC [     4,    0,    1,    1 ]
    SOCC [     3,    0,    1,    1 ]
    NA   [     7,    0,    2,    2 ]
    NB   [     4,    0,    1,    1 ]

  @DF-UKS Final Energy:  -256.89180387610787

   => Energetics <=

    Nuclear Repulsion Energy =             11.6326655397079630
    One-Electron Energy =                -378.1543184150802972
    Two-Electron Energy =                 126.8939424875126605
    DFT Exchange-Correlation Energy =     -17.2640934882482071
    Empirical Dispersion Energy =           0.0000000000000000
    VV10 Nonlocal Energy =                  0.0000000000000000
    Total Energy =                       -256.8918038761078719

  UHF NO Occupations:
  HONO-2 :    6 A1 1.0000000
  HONO-1 :    7 A1 1.0000000
  HONO-0 :    2 B2 1.0000000
  LUNO+0 :    3 B2 0.0000004
  LUNO+1 :    3 B1 0.0000004
  LUNO+2 :    8 A1 0.0000004
  LUNO+3 :    9 A1 0.0000001

Computation Completed

Properties will be evaluated at   0.000000,   0.000000,   0.000000 [a0]

Properties computed using the SCF density matrix

 Multipole Moments:

 ------------------------------------------------------------------------------------
     Multipole            Electronic (a.u.)      Nuclear  (a.u.)        Total (a.u.)
 ------------------------------------------------------------------------------------

 L = 1.  Multiply by 2.5417464519 to convert [e a0] to [Debye]
 Dipole X            :          0.0000000            0.0000000            0.0000000
 Dipole Y            :          0.0000000            0.0000000            0.0000000
 Dipole Z            :          0.6600659           -1.1465784           -0.4865126
 Magnitude           :                                                    0.4865126

 ------------------------------------------------------------------------------------

*** tstop() called on Joses-MacBook-Pro-2.local at Wed Jul 16 18:44:19 2025
Module time:
	user time   =       2.54 seconds =       0.04 minutes
	system time =       3.19 seconds =       0.05 minutes
	total time  =          1 seconds =       0.02 minutes
Total time:
	user time   =      55.08 seconds =       0.92 minutes
	system time =      59.87 seconds =       1.00 minutes
	total time  =         11 seconds =       0.18 minutes

*** tstart() called on Joses-MacBook-Pro-2.local
*** at Wed Jul 16 18:44:19 2025

         ------------------------------------------------------------
                                   SCF GRAD
                          Rob Parrish, Justin Turney,
                       Andy Simmonett, and Alex Sokolov
         ------------------------------------------------------------

  ==> Geometry <==

    Molecular point group: c2v
    Full point group: C_inf_v

    Geometry (in Angstrom), charge = 0, multiplicity = 6:

       Center              X                  Y                   Z               Mass
    ------------   -----------------  -----------------  -----------------  -----------------
         BE           0.000000000000     0.000000000000     1.773230497062     9.012183065000
         AL           0.000000000000     0.000000000000    -0.592281935227    26.981538530000

  Nuclear repulsion =   11.632665539707963

  ==> Basis Set <==

  Basis Set: CC-PVDZ
    Blend: CC-PVDZ
    Number of shells: 14
    Number of basis functions: 32
    Number of Cartesian functions: 34
    Spherical Harmonics?: true
    Max angular momentum: 2

  ==> DFJKGrad: Density-Fitted SCF Gradients <==

    Gradient:                    1
    J tasked:                  Yes
    K tasked:                  Yes
    wK tasked:                  No
    OpenMP threads:              1
    Integrals threads:           1
    Memory [MiB]:              375
    Schwarz Cutoff:          1E-12
    Fitting Condition:       1E-10

   => Auxiliary Basis Set <=

  Basis Set: (CC-PVDZ AUX)
    Blend: CC-PVDZ-JKFIT + DEF2-UNIVERSAL-JKFIT
    Number of shells: 53
    Number of basis functions: 163
    Number of Cartesian functions: 190
    Spherical Harmonics?: true
    Max angular momentum: 3

  ==> DFT Potential <==

   => LibXC <=

    Version 6.2.2
    S. Lehtola, C. Steigemann, M. J.T. Oliveira, and M. A.L. Marques.,  SoftwareX 7, 1â€“5 (2018) (10.1016/j.softx.2017.11.002)

   => Composite Functional: B3LYP <=

    B3LYP Hyb-GGA Exchange-Correlation Functional

    P. J. Stephens, F. J. Devlin, C. F. Chabalowski, and M. J. Frisch.,  J. Phys. Chem. 98, 11623 (1994) (10.1021/j100096a001)

    Deriv               =              1
    GGA                 =           TRUE
    Meta                =          FALSE

    Exchange Hybrid     =           TRUE
    MP2 Hybrid          =          FALSE

   => Exchange Functionals <=

    0.0800   Slater exchange
    0.7200         Becke 88

   => Exact (HF) Exchange <=

    0.2000               HF

   => Correlation Functionals <=

    0.1900   Vosko, Wilk & Nusair (VWN5_RPA)
    0.8100   Lee, Yang & Parr

   => LibXC Density Thresholds  <==

    XC_HYB_GGA_XC_B3LYP:  1.00E-15

   => Molecular Quadrature <=

    Radial Scheme          =       TREUTLER
    Pruning Scheme         =           NONE
    Nuclear Scheme         =       TREUTLER

    Blocking Scheme        =         OCTREE
    BS radius alpha        =              1
    Pruning alpha          =              1
    Radial Points          =             75
    Spherical Points       =            302
    Total Points           =          42463
    Total Blocks           =            402
    Max Points             =            254
    Max Functions          =             32
    Weights Tolerance      =       1.00E-15

  -Total Gradient:
     Atom            X                  Y                   Z
    ------   -----------------  -----------------  -----------------
       1       -0.000000000000     0.000000000000    -0.000057554318
       2        0.000000000000    -0.000000000000     0.000057567615

*** tstop() called on Joses-MacBook-Pro-2.local at Wed Jul 16 18:44:19 2025
Module time:
	user time   =       0.92 seconds =       0.02 minutes
	system time =       1.91 seconds =       0.03 minutes
	total time  =          0 seconds =       0.00 minutes
Total time:
	user time   =      56.01 seconds =       0.93 minutes
	system time =      61.78 seconds =       1.03 minutes
	total time  =         11 seconds =       0.18 minutes

    			-----------------------------------------

    			 OPTKING 3.0: for geometry optimizations

    			     By R.A. King, Bethel University

    			        with contributions from

    			    A.V. Copan, J. Cayton, A. Heide

    			-----------------------------------------

	                            ===> Fragment 1 <==

	 Z (Atomic Numbers)          Masses                          Geom
	       4.000000             9.012183          0.00000000  0.00000000  3.35092000
	      13.000000            26.981539          0.00000000  0.00000000 -1.11925065

	 - Coordinate -           - BOHR/RAD -       - ANG/DEG -
	 R(1,2)           =         4.470171           2.365512

	        --- Internal Coordinate Step in ANG or DEG, aJ/ANG or AJ/DEG ---
	-------------------------------------------------------------------------------
	           Coordinate      Previous         Force          Change          New
	           ----------      --------        ------          ------        ------
	               R(1,2)       2.36551        0.00047        0.00056       2.36607
	-------------------------------------------------------------------------------

	                                 ==> Convergence Check <==

	Measures of convergence in internal coordinates in au.

	Criteria marked as inactive (o), active & met (*), and active & unmet ( ).

	----------------------------------------------------------------------------------------------
	   Step    Total Energy     Delta E     Max Force     RMS Force      Max Disp      RMS Disp
	----------------------------------------------------------------------------------------------
	  Convergence Criteria     1.00e-06 *    3.00e-04 *             o    1.20e-03 *             o
	----------------------------------------------------------------------------------------------
	    12    -256.89180388   -4.44e-07 *    5.76e-05 *    5.76e-05 o    1.05e-03 *    1.05e-03 o  ~
	----------------------------------------------------------------------------------------------

Next Geometry in Ang
	Fragment 1 (Ang)

	   Be   0.0000000000   0.0000000000   1.7735094948
	   Al   0.0000000000   0.0000000000  -0.5925609330

    Final optimized geometry and variables:
    Molecular point group: c2v
    Full point group: C_inf_v

    Geometry (in Angstrom), charge = 0, multiplicity = 6:

    BE           0.000000000000     0.000000000000     1.773230497062
    AL           0.000000000000     0.000000000000    -0.592281935227

    Psi4 stopped on: Wednesday, 16 July 2025 06:44PM
    Psi4 wall time for execution: 0:00:11.92

*** Psi4 exiting successfully. Buy a developer a beer!
