                               Psi4 1.9.1 release

  ==> Input File <==

--------------------------------------------------------------------------
molecule {
0 6
Mg   0.00000        0.60000        0.00000
P   0.00000       -0.60000        0.00000
}

set {
basis              cc-pvdz
reference          uks
maxiter            500
geom_maxiter       500
DAMPING_PERCENTAGE 1
guess              SAP
}

optimize('b3lyp')
--------------------------------------------------------------------------

    Molecular point group: c2v
  Charge       = 0
  Multiplicity = 6
  Basis Set: CC-PVDZ
    Blend: CC-PVDZ
  Basis Set: (CC-PVDZ AUX)
    Blend: CC-PVDZ-JKFIT + DEF2-UNIVERSAL-JKFIT
  @DF-UKS Final Energy:  -540.01290050346529
    Total Energy =                       -540.0129005034652891
 Dipole X            :          0.0000000            0.0000000            0.0000000
 Dipole Y            :          0.0000000            0.0000000            0.0000000
 Dipole Z            :         -2.3988218            0.4914021           -1.9074196
 Magnitude           :                                                    1.9074196
    Molecular point group: c2v
  Basis Set: CC-PVDZ
    Blend: CC-PVDZ
  Basis Set: (CC-PVDZ AUX)
    Blend: CC-PVDZ-JKFIT + DEF2-UNIVERSAL-JKFIT
  Basis Set: CC-PVDZ
    Blend: CC-PVDZ
  Basis Set: (CC-PVDZ AUX)
    Blend: CC-PVDZ-JKFIT + DEF2-UNIVERSAL-JKFIT
  @DF-UKS Final Energy:  -540.02985330312561
    Total Energy =                       -540.0298533031256056
  Basis Set: CC-PVDZ
    Blend: CC-PVDZ
  Basis Set: (CC-PVDZ AUX)
    Blend: CC-PVDZ-JKFIT + DEF2-UNIVERSAL-JKFIT
  Basis Set: CC-PVDZ
    Blend: CC-PVDZ
  @DF-UKS Final Energy:  -540.06259990122101
    Total Energy =                       -540.0625999012210059
  @DF-UKS Final Energy:  -540.18148775699422
    Total Energy =                       -540.1814877569942155
  @DF-UKS Final Energy:  -540.69219425923677
    Total Energy =                       -540.6921942592367714
  @DF-UKS Final Energy:  -540.95497303351942
    Total Energy =                       -540.9549730335194226
  @DF-UKS Final Energy:  -541.09785695055507
    Total Energy =                       -541.0978569505550695
  @DF-UKS Final Energy:  -541.17068848402891
    Total Energy =                       -541.1706884840289149
  @DF-UKS Final Energy:  -541.21102150511342
    Total Energy =                       -541.2110215051134219
  @DF-UKS Final Energy:  -541.23354742274546
    Total Energy =                       -541.2335474227454597
  @DF-UKS Final Energy:  -541.24653262097127
    Total Energy =                       -541.2465326209712657
  @DF-UKS Final Energy:  -541.25419502702277
    Total Energy =                       -541.2541950270227744
  @DF-UKS Final Energy:  -541.25874351603079
    Total Energy =                       -541.2587435160307905
  @DF-UKS Final Energy:  -541.26140978360888
    Total Energy =                       -541.2614097836088831
  @DF-UKS Final Energy:  -541.26294490594569
    Total Energy =                       -541.2629449059456874
  @DF-UKS Final Energy:  -541.26381681259386
    Total Energy =                       -541.2638168125938591
  @DF-UKS Final Energy:  -541.26430908195596
    Total Energy =                       -541.2643090819559575
  @DF-UKS Final Energy:  -541.26458432768902
    Total Energy =                       -541.2645843276890218
  @DF-UKS Final Energy:  -541.26473542460326
    Total Energy =                       -541.2647354246032592
  @DF-UKS Final Energy:  -541.26481848347169
    Total Energy =                       -541.2648184834716858
  @DF-UKS Final Energy:  -541.26486422514415
    Total Energy =                       -541.2648642251441515
  @DF-UKS Final Energy:  -541.26488819841256
    Total Energy =                       -541.2648881984125637
  @DF-UKS Final Energy:  -541.26489890951075
    Total Energy =                       -541.2648989095107481
  Basis Set: (CC-PVDZ AUX)
    Blend: CC-PVDZ-JKFIT + DEF2-UNIVERSAL-JKFIT
  Basis Set: CC-PVDZ
    Blend: CC-PVDZ
  Basis Set: (CC-PVDZ AUX)
    Blend: CC-PVDZ-JKFIT + DEF2-UNIVERSAL-JKFIT
  @DF-UKS Final Energy:  -541.26490231594983
    Total Energy =                       -541.2649023159498256
  Basis Set: CC-PVDZ
    Blend: CC-PVDZ
  Basis Set: (CC-PVDZ AUX)
    Blend: CC-PVDZ-JKFIT + DEF2-UNIVERSAL-JKFIT
  Charge       = 0
  Multiplicity = 6
  Basis Set: CC-PVDZ
    Blend: CC-PVDZ
  Basis Set: (CC-PVDZ AUX)
    Blend: CC-PVDZ-JKFIT + DEF2-UNIVERSAL-JKFIT

    Orbital Energies [Eh]
    ---------------------

    Alpha Occupied:

       1A1   -77.120326     2A1   -46.883192     3A1    -6.588442
       4A1    -4.751877     1B2    -4.751851     1B1    -4.751845
       5A1    -3.162096     2B2    -1.906363     6A1    -1.906362
       2B1    -1.903345     7A1    -0.599003     8A1    -0.260195
       3B2    -0.259516     3B1    -0.259355     9A1    -0.244269
       4B1    -0.106534

    Alpha Virtual:

       4B2    -0.057121    10A1    -0.056563    11A1     0.080534
       5B1     0.130682    12A1     0.139276     5B2     0.140394
       1A2     0.270784     6B1     0.270810    13A1     0.274225
      14A1     0.282050     6B2     0.282288    15A1     0.337375
       7B2     0.398460     7B1     0.398739    16A1     0.414142
       8B2     0.429462     8B1     0.429559    17A1     0.429621
       2A2     0.429627    18A1     0.432556

    Beta Occupied:

       1A1   -77.108103     2A1   -46.878956     3A1    -6.575516
       4A1    -4.732803     1B2    -4.732726     1B1    -4.732711
       5A1    -3.154982     2B2    -1.902104     6A1    -1.902103
       2B1    -1.894537     7A1    -0.482295

    Beta Virtual:

       8A1    -0.138229     9A1    -0.113907     3B2    -0.112524
       3B1    -0.112319     4B2    -0.014903    10A1    -0.014612
       4B1     0.004587    11A1     0.110618    12A1     0.161839
       5B2     0.164023     5B1     0.180368    13A1     0.317578
       6B2     0.317633     1A2     0.338395     6B1     0.338501
      14A1     0.345122    15A1     0.381283     7B2     0.448155
       7B1     0.448438    16A1     0.464162     8B2     0.526321
       8B1     0.526440    17A1     0.526667     2A2     0.526670
      18A1     0.527817

    Final Occupation by Irrep:
             A1    A2    B1    B2
    DOCC [     7,    0,    2,    2 ]
    SOCC [     2,    0,    2,    1 ]
    NA   [     9,    0,    4,    3 ]
    NB   [     7,    0,    2,    2 ]

  @DF-UKS Final Energy:  -541.26490259822663

   => Energetics <=

    Nuclear Repulsion Energy =             16.5155582980672513
    One-Electron Energy =                -783.2499769038620343
    Two-Electron Energy =                 257.4017389192474639
    DFT Exchange-Correlation Energy =     -31.9322229116793110
    Empirical Dispersion Energy =           0.0000000000000000
    VV10 Nonlocal Energy =                  0.0000000000000000
    Total Energy =                       -541.2649025982266267

  UHF NO Occupations:
  HONO-2 :    4 B1 1.0000000
  HONO-1 :    3 B2 1.0000000
  HONO-0 :    9 A1 1.0000000
  LUNO+0 :   10 A1 0.0000976
  LUNO+1 :    4 B2 0.0000008
  LUNO+2 :   11 A1 0.0000008
  LUNO+3 :    5 B1 0.0000004

Computation Completed

Properties will be evaluated at   0.000000,   0.000000,   0.000000 [a0]

Properties computed using the SCF density matrix

 Multipole Moments:

 ------------------------------------------------------------------------------------
     Multipole            Electronic (a.u.)      Nuclear  (a.u.)        Total (a.u.)
 ------------------------------------------------------------------------------------

 L = 1.  Multiply by 2.5417464519 to convert [e a0] to [Debye]
 Dipole X            :          0.0000000            0.0000000            0.0000000
 Dipole Y            :          0.0000000            0.0000000            0.0000000
 Dipole Z            :         -2.3986917            2.3617623           -0.0369295
 Magnitude           :                                                    0.0369295

 ------------------------------------------------------------------------------------

*** tstop() called on Joses-MacBook-Pro-2.local at Wed Jul 16 19:58:42 2025
Module time:
	user time   =       4.32 seconds =       0.07 minutes
	system time =       2.82 seconds =       0.05 minutes
	total time  =          1 seconds =       0.02 minutes
Total time:
	user time   =     311.45 seconds =       5.19 minutes
	system time =     103.19 seconds =       1.72 minutes
	total time  =         40 seconds =       0.67 minutes

*** tstart() called on Joses-MacBook-Pro-2.local
*** at Wed Jul 16 19:58:42 2025

         ------------------------------------------------------------
                                   SCF GRAD
                          Rob Parrish, Justin Turney,
                       Andy Simmonett, and Alex Sokolov
         ------------------------------------------------------------

  ==> Geometry <==

    Molecular point group: c2v
    Full point group: C_inf_v

    Geometry (in Angstrom), charge = 0, multiplicity = 6:

       Center              X                  Y                   Z               Mass
    ------------   -----------------  -----------------  -----------------  -----------------
         MG           0.000000000000     0.000000000000     3.250401911568    23.985041697000
         P            0.000000000000     0.000000000000    -2.517002144749    30.973761998420

  Nuclear repulsion =   16.515558298067251

  ==> Basis Set <==

  Basis Set: CC-PVDZ
    Blend: CC-PVDZ
    Number of shells: 16
    Number of basis functions: 36
    Number of Cartesian functions: 38
    Spherical Harmonics?: true
    Max angular momentum: 2

  ==> DFJKGrad: Density-Fitted SCF Gradients <==

    Gradient:                    1
    J tasked:                  Yes
    K tasked:                  Yes
    wK tasked:                  No
    OpenMP threads:              1
    Integrals threads:           1
    Memory [MiB]:              375
    Schwarz Cutoff:          1E-12
    Fitting Condition:       1E-10

   => Auxiliary Basis Set <=

  Basis Set: (CC-PVDZ AUX)
    Blend: CC-PVDZ-JKFIT + DEF2-UNIVERSAL-JKFIT
    Number of shells: 70
    Number of basis functions: 224
    Number of Cartesian functions: 267
    Spherical Harmonics?: true
    Max angular momentum: 4

  ==> DFT Potential <==

   => LibXC <=

    Version 6.2.2
    S. Lehtola, C. Steigemann, M. J.T. Oliveira, and M. A.L. Marques.,  SoftwareX 7, 1â€“5 (2018) (10.1016/j.softx.2017.11.002)

   => Composite Functional: B3LYP <=

    B3LYP Hyb-GGA Exchange-Correlation Functional

    P. J. Stephens, F. J. Devlin, C. F. Chabalowski, and M. J. Frisch.,  J. Phys. Chem. 98, 11623 (1994) (10.1021/j100096a001)

    Deriv               =              1
    GGA                 =           TRUE
    Meta                =          FALSE

    Exchange Hybrid     =           TRUE
    MP2 Hybrid          =          FALSE

   => Exchange Functionals <=

    0.0800   Slater exchange
    0.7200         Becke 88

   => Exact (HF) Exchange <=

    0.2000               HF

   => Correlation Functionals <=

    0.1900   Vosko, Wilk & Nusair (VWN5_RPA)
    0.8100   Lee, Yang & Parr

   => LibXC Density Thresholds  <==

    XC_HYB_GGA_XC_B3LYP:  1.00E-15

   => Molecular Quadrature <=

    Radial Scheme          =       TREUTLER
    Pruning Scheme         =           NONE
    Nuclear Scheme         =       TREUTLER

    Blocking Scheme        =         OCTREE
    BS radius alpha        =              1
    Pruning alpha          =              1
    Radial Points          =             75
    Spherical Points       =            302
    Total Points           =          43175
    Total Blocks           =            452
    Max Points             =            256
    Max Functions          =             36
    Weights Tolerance      =       1.00E-15

  -Total Gradient:
     Atom            X                  Y                   Z
    ------   -----------------  -----------------  -----------------
       1        0.000000000000    -0.000000000000    -0.000000706817
       2       -0.000000000000     0.000000000000    -0.000000177738

*** tstop() called on Joses-MacBook-Pro-2.local at Wed Jul 16 19:58:42 2025
Module time:
	user time   =       2.18 seconds =       0.04 minutes
	system time =       1.57 seconds =       0.03 minutes
	total time  =          0 seconds =       0.00 minutes
Total time:
	user time   =     313.63 seconds =       5.23 minutes
	system time =     104.77 seconds =       1.75 minutes
	total time  =         40 seconds =       0.67 minutes

    			-----------------------------------------

    			 OPTKING 3.0: for geometry optimizations

    			     By R.A. King, Bethel University

    			        with contributions from

    			    A.V. Copan, J. Cayton, A. Heide

    			-----------------------------------------

	                            ===> Fragment 1 <==

	 Z (Atomic Numbers)          Masses                          Geom
	      12.000000            23.985042          0.00000000  0.00000000  6.14236941
	      15.000000            30.973762          0.00000000  0.00000000 -4.75644471

	 - Coordinate -           - BOHR/RAD -       - ANG/DEG -
	 R(1,2)           =        10.898814           5.767404

	        --- Internal Coordinate Step in ANG or DEG, aJ/ANG or AJ/DEG ---
	-------------------------------------------------------------------------------
	           Coordinate      Previous         Force          Change          New
	           ----------      --------        ------          ------        ------
	               R(1,2)       5.76740        0.00000        0.00294       5.77035
	-------------------------------------------------------------------------------

	                                 ==> Convergence Check <==

	Measures of convergence in internal coordinates in au.

	Criteria marked as inactive (o), active & met (*), and active & unmet ( ).

	----------------------------------------------------------------------------------------------
	   Step    Total Energy     Delta E     Max Force     RMS Force      Max Disp      RMS Disp
	----------------------------------------------------------------------------------------------
	  Convergence Criteria     1.00e-06 *    3.00e-04 *             o    1.20e-03 *             o
	----------------------------------------------------------------------------------------------
	    25    -541.26490260   -2.82e-07 *    2.65e-07 *    2.65e-07 o    5.56e-03      5.56e-03 o  ~
	----------------------------------------------------------------------------------------------

Next Geometry in Ang
	Fragment 1 (Ang)

	   Mg   0.0000000000   0.0000000000   3.2518742315
	    P   0.0000000000   0.0000000000  -2.5184744647

    Final optimized geometry and variables:
    Molecular point group: c2v
    Full point group: C_inf_v

    Geometry (in Angstrom), charge = 0, multiplicity = 6:

    MG           0.000000000000     0.000000000000     3.250401911568
    P            0.000000000000     0.000000000000    -2.517002144749

    Psi4 stopped on: Wednesday, 16 July 2025 07:58PM
    Psi4 wall time for execution: 0:00:41.07

*** Psi4 exiting successfully. Buy a developer a beer!
