                               Psi4 1.9.1 release

  ==> Input File <==

--------------------------------------------------------------------------
molecule {
0 6
C   0.00000        0.60000        0.00000
F   0.00000       -0.60000        0.00000
}

set {
basis              cc-pvdz
reference          uks
maxiter            500
geom_maxiter       500
DAMPING_PERCENTAGE 1
guess              SAP
}

optimize('b3lyp')
--------------------------------------------------------------------------

    Molecular point group: c2v
  Charge       = 0
  Multiplicity = 6
  Basis Set: CC-PVDZ
    Blend: CC-PVDZ
  Basis Set: (CC-PVDZ AUX)
    Blend: CC-PVDZ-JKFIT
  @DF-UKS Final Energy:  -137.02519859432203
    Total Energy =                       -137.0251985943220348
 Dipole X            :          0.0000000            0.0000000            0.0000000
 Dipole Y            :          0.0000000            0.0000000            0.0000000
 Dipole Z            :         -1.3934761            0.4382258           -0.9552502
 Magnitude           :                                                    0.9552502
    Molecular point group: c2v
  Basis Set: CC-PVDZ
    Blend: CC-PVDZ
  Basis Set: (CC-PVDZ AUX)
    Blend: CC-PVDZ-JKFIT
  Basis Set: CC-PVDZ
    Blend: CC-PVDZ
  Basis Set: (CC-PVDZ AUX)
    Blend: CC-PVDZ-JKFIT
  @DF-UKS Final Energy:  -137.24290321564865
    Total Energy =                       -137.2429032156486528
  Basis Set: CC-PVDZ
    Blend: CC-PVDZ
  Basis Set: (CC-PVDZ AUX)
    Blend: CC-PVDZ-JKFIT
  Basis Set: CC-PVDZ
    Blend: CC-PVDZ
  @DF-UKS Final Energy:  -137.35067790194029
    Total Energy =                       -137.3506779019402870
  @DF-UKS Final Energy:  -137.38042801706976
    Total Energy =                       -137.3804280170697609
  @DF-UKS Final Energy:  -137.39590876200697
    Total Energy =                       -137.3959087620069681
  @DF-UKS Final Energy:  -137.40293611272796
    Total Energy =                       -137.4029361127279572
  @DF-UKS Final Energy:  -137.40619029717703
    Total Energy =                       -137.4061902971770337
  @DF-UKS Final Energy:  -137.40761320698715
    Total Energy =                       -137.4076132069871505
  @DF-UKS Final Energy:  -137.40806319371637
    Total Energy =                       -137.4080631937163730
  @DF-UKS Final Energy:  -137.40829161172596
    Total Energy =                       -137.4082916117259572
  @DF-UKS Final Energy:  -137.40835894967481
    Total Energy =                       -137.4083589496748061
  @DF-UKS Final Energy:  -137.40838732510073
    Total Energy =                       -137.4083873251007333
  @DF-UKS Final Energy:  -137.40839305065069
    Total Energy =                       -137.4083930506506874
  Basis Set: (CC-PVDZ AUX)
    Blend: CC-PVDZ-JKFIT
  Basis Set: CC-PVDZ
    Blend: CC-PVDZ
  Basis Set: (CC-PVDZ AUX)
    Blend: CC-PVDZ-JKFIT
  @DF-UKS Final Energy:  -137.40839441969106
    Total Energy =                       -137.4083944196910636
  Basis Set: CC-PVDZ
    Blend: CC-PVDZ
  Basis Set: (CC-PVDZ AUX)
    Blend: CC-PVDZ-JKFIT
  Charge       = 0
  Multiplicity = 6
  Basis Set: CC-PVDZ
    Blend: CC-PVDZ
  Basis Set: (CC-PVDZ AUX)
    Blend: CC-PVDZ-JKFIT

    Orbital Energies [Eh]
    ---------------------

    Alpha Occupied:

       1A1   -24.808573     2A1   -10.295350     3A1    -1.235302
       4A1    -0.620527     1B1    -0.560543     5A1    -0.476900
       1B2    -0.471073     2B1    -0.274335     2B2    -0.273869
       6A1    -0.267687

    Alpha Virtual:

       3B1     0.446144     3B2     0.447241     7A1     0.465436
       8A1     0.531513     9A1     1.013771     4B1     1.016263
       4B2     1.058791    10A1     1.096391     1A2     1.096392
       5B1     1.108522     5B2     1.121206    11A1     1.224281
      12A1     1.540770    13A1     3.418206     6B1     3.436938
       2A2     3.439706     6B2     3.506415    14A1     3.510900

    Beta Occupied:

       1A1   -24.775565     2A1   -10.227242     3A1    -1.139463
       4A1    -0.437857     1B2    -0.437543

    Beta Virtual:

       5A1    -0.273700     1B1    -0.263506     2B2     0.009187
       2B1     0.009296     6A1     0.014913     3B2     0.574246
       3B1     0.574545     7A1     0.587662     8A1     0.661168
       4B2     1.096829     9A1     1.119981     4B1     1.133502
      10A1     1.302377     1A2     1.302380     5B2     1.307751
       5B1     1.308350    11A1     1.332694    12A1     1.607851
       6B2     3.526616    13A1     3.530754     2A2     3.536146
       6B1     3.537779    14A1     3.557896

    Final Occupation by Irrep:
             A1    A2    B1    B2
    DOCC [     4,    0,    0,    1 ]
    SOCC [     2,    0,    2,    1 ]
    NA   [     6,    0,    2,    2 ]
    NB   [     4,    0,    0,    1 ]

  @DF-UKS Final Energy:  -137.40839458396005

   => Energetics <=

    Nuclear Repulsion Energy =             10.8250848106386748
    One-Electron Energy =                -211.0685037271453552
    Two-Electron Energy =                  75.5060748050676835
    DFT Exchange-Correlation Energy =     -12.6710504725210686
    Empirical Dispersion Energy =           0.0000000000000000
    VV10 Nonlocal Energy =                  0.0000000000000000
    Total Energy =                       -137.4083945839600460

  UHF NO Occupations:
  HONO-2 :    2 B2 1.0000000
  HONO-1 :    2 B1 1.0000000
  HONO-0 :    6 A1 1.0000000
  LUNO+0 :    7 A1 0.0004274
  LUNO+1 :    8 A1 0.0002706
  LUNO+2 :    3 B2 0.0000719
  LUNO+3 :    9 A1 0.0000008

Computation Completed

Properties will be evaluated at   0.000000,   0.000000,   0.000000 [a0]

Properties computed using the SCF density matrix

 Multipole Moments:

 ------------------------------------------------------------------------------------
     Multipole            Electronic (a.u.)      Nuclear  (a.u.)        Total (a.u.)
 ------------------------------------------------------------------------------------

 L = 1.  Multiply by 2.5417464519 to convert [e a0] to [Debye]
 Dipole X            :          0.0000000            0.0000000            0.0000000
 Dipole Y            :          0.0000000            0.0000000            0.0000000
 Dipole Z            :         -1.1754548            0.9640073           -0.2114475
 Magnitude           :                                                    0.2114475

 ------------------------------------------------------------------------------------

*** tstop() called on Joses-MacBook-Pro-2.local at Wed Jul 16 19:00:28 2025
Module time:
	user time   =       2.65 seconds =       0.04 minutes
	system time =       2.92 seconds =       0.05 minutes
	total time  =          1 seconds =       0.02 minutes
Total time:
	user time   =      59.12 seconds =       0.99 minutes
	system time =      56.78 seconds =       0.95 minutes
	total time  =         11 seconds =       0.18 minutes

*** tstart() called on Joses-MacBook-Pro-2.local
*** at Wed Jul 16 19:00:28 2025

         ------------------------------------------------------------
                                   SCF GRAD
                          Rob Parrish, Justin Turney,
                       Andy Simmonett, and Alex Sokolov
         ------------------------------------------------------------

  ==> Geometry <==

    Molecular point group: c2v
    Full point group: C_inf_v

    Geometry (in Angstrom), charge = 0, multiplicity = 6:

       Center              X                  Y                   Z               Mass
    ------------   -----------------  -----------------  -----------------  -----------------
         C            0.000000000000     0.000000000000     1.617861581574    12.000000000000
         F            0.000000000000     0.000000000000    -1.021893198739    18.998403162730

  Nuclear repulsion =   10.825084810638675

  ==> Basis Set <==

  Basis Set: CC-PVDZ
    Blend: CC-PVDZ
    Number of shells: 12
    Number of basis functions: 28
    Number of Cartesian functions: 30
    Spherical Harmonics?: true
    Max angular momentum: 2

  ==> DFJKGrad: Density-Fitted SCF Gradients <==

    Gradient:                    1
    J tasked:                  Yes
    K tasked:                  Yes
    wK tasked:                  No
    OpenMP threads:              1
    Integrals threads:           1
    Memory [MiB]:              375
    Schwarz Cutoff:          1E-12
    Fitting Condition:       1E-10

   => Auxiliary Basis Set <=

  Basis Set: (CC-PVDZ AUX)
    Blend: CC-PVDZ-JKFIT
    Number of shells: 48
    Number of basis functions: 140
    Number of Cartesian functions: 162
    Spherical Harmonics?: true
    Max angular momentum: 3

  ==> DFT Potential <==

   => LibXC <=

    Version 6.2.2
    S. Lehtola, C. Steigemann, M. J.T. Oliveira, and M. A.L. Marques.,  SoftwareX 7, 1â€“5 (2018) (10.1016/j.softx.2017.11.002)

   => Composite Functional: B3LYP <=

    B3LYP Hyb-GGA Exchange-Correlation Functional

    P. J. Stephens, F. J. Devlin, C. F. Chabalowski, and M. J. Frisch.,  J. Phys. Chem. 98, 11623 (1994) (10.1021/j100096a001)

    Deriv               =              1
    GGA                 =           TRUE
    Meta                =          FALSE

    Exchange Hybrid     =           TRUE
    MP2 Hybrid          =          FALSE

   => Exchange Functionals <=

    0.0800   Slater exchange
    0.7200         Becke 88

   => Exact (HF) Exchange <=

    0.2000               HF

   => Correlation Functionals <=

    0.1900   Vosko, Wilk & Nusair (VWN5_RPA)
    0.8100   Lee, Yang & Parr

   => LibXC Density Thresholds  <==

    XC_HYB_GGA_XC_B3LYP:  1.00E-15

   => Molecular Quadrature <=

    Radial Scheme          =       TREUTLER
    Pruning Scheme         =           NONE
    Nuclear Scheme         =       TREUTLER

    Blocking Scheme        =         OCTREE
    BS radius alpha        =              1
    Pruning alpha          =              1
    Radial Points          =             75
    Spherical Points       =            302
    Total Points           =          43375
    Total Blocks           =            387
    Max Points             =            256
    Max Functions          =             28
    Weights Tolerance      =       1.00E-15

  -Total Gradient:
     Atom            X                  Y                   Z
    ------   -----------------  -----------------  -----------------
       1        0.000000000000    -0.000000000000    -0.000008339707
       2       -0.000000000000    -0.000000000000     0.000012383289

*** tstop() called on Joses-MacBook-Pro-2.local at Wed Jul 16 19:00:28 2025
Module time:
	user time   =       0.39 seconds =       0.01 minutes
	system time =       1.30 seconds =       0.02 minutes
	total time  =          0 seconds =       0.00 minutes
Total time:
	user time   =      59.52 seconds =       0.99 minutes
	system time =      58.08 seconds =       0.97 minutes
	total time  =         11 seconds =       0.18 minutes

    			-----------------------------------------

    			 OPTKING 3.0: for geometry optimizations

    			     By R.A. King, Bethel University

    			        with contributions from

    			    A.V. Copan, J. Cayton, A. Heide

    			-----------------------------------------

	                            ===> Fragment 1 <==

	 Z (Atomic Numbers)          Masses                          Geom
	       6.000000            12.000000          0.00000000  0.00000000  3.05731530
	       9.000000            18.998403          0.00000000  0.00000000 -1.93109828

	 - Coordinate -           - BOHR/RAD -       - ANG/DEG -
	 R(1,2)           =         4.988414           2.639755

	        --- Internal Coordinate Step in ANG or DEG, aJ/ANG or AJ/DEG ---
	-------------------------------------------------------------------------------
	           Coordinate      Previous         Force          Change          New
	           ----------      --------        ------          ------        ------
	               R(1,2)       2.63975        0.00009        0.00102       2.64077
	-------------------------------------------------------------------------------

	                                 ==> Convergence Check <==

	Measures of convergence in internal coordinates in au.

	Criteria marked as inactive (o), active & met (*), and active & unmet ( ).

	----------------------------------------------------------------------------------------------
	   Step    Total Energy     Delta E     Max Force     RMS Force      Max Disp      RMS Disp
	----------------------------------------------------------------------------------------------
	  Convergence Criteria     1.00e-06 *    3.00e-04 *             o    1.20e-03 *             o
	----------------------------------------------------------------------------------------------
	    15    -137.40839458   -1.64e-07 *    1.04e-05 *    1.04e-05 o    1.92e-03      1.92e-03 o  ~
	----------------------------------------------------------------------------------------------

Next Geometry in Ang
	Fragment 1 (Ang)

	    C   0.0000000000   0.0000000000   1.6183698229
	    F   0.0000000000   0.0000000000  -1.0224014401

    Final optimized geometry and variables:
    Molecular point group: c2v
    Full point group: C_inf_v

    Geometry (in Angstrom), charge = 0, multiplicity = 6:

    C            0.000000000000     0.000000000000     1.617861581574
    F            0.000000000000     0.000000000000    -1.021893198739

    Psi4 stopped on: Wednesday, 16 July 2025 07:00PM
    Psi4 wall time for execution: 0:00:11.62

*** Psi4 exiting successfully. Buy a developer a beer!
