                               Psi4 1.9.1 release

  ==> Input File <==

--------------------------------------------------------------------------
molecule {
0 6
P   0.00000        0.60000        0.00000
Ar   0.00000       -0.60000        0.00000
}

set {
basis              cc-pvdz
reference          uks
maxiter            500
geom_maxiter       500
DAMPING_PERCENTAGE 1
guess              SAP
}

optimize('b3lyp')
--------------------------------------------------------------------------

    Molecular point group: c2v
  Charge       = 0
  Multiplicity = 6
  Basis Set: CC-PVDZ
    Blend: CC-PVDZ
  Basis Set: (CC-PVDZ AUX)
    Blend: CC-PVDZ-JKFIT
  @DF-UKS Final Energy:  -866.77102960963748
    Total Energy =                       -866.7710296096375941
 Dipole X            :          0.0000000            0.0000000            0.0000000
 Dipole Y            :          0.0000000            0.0000000            0.0000000
 Dipole Z            :         -2.2628073            1.3397069           -0.9231004
 Magnitude           :                                                    0.9231004
    Molecular point group: c2v
  Basis Set: CC-PVDZ
    Blend: CC-PVDZ
  Basis Set: (CC-PVDZ AUX)
    Blend: CC-PVDZ-JKFIT
  Basis Set: CC-PVDZ
    Blend: CC-PVDZ
  Basis Set: (CC-PVDZ AUX)
    Blend: CC-PVDZ-JKFIT
  @DF-UKS Final Energy:  -866.81020506821051
    Total Energy =                       -866.8102050682105073
  Basis Set: CC-PVDZ
    Blend: CC-PVDZ
  Basis Set: (CC-PVDZ AUX)
    Blend: CC-PVDZ-JKFIT
  Basis Set: CC-PVDZ
    Blend: CC-PVDZ
  @DF-UKS Final Energy:  -866.88239330221109
    Total Energy =                       -866.8823933022110850
  @DF-UKS Final Energy:  -867.11358263107138
    Total Energy =                       -867.1135826310713810
  @DF-UKS Final Energy:  -867.56933629583398
    Total Energy =                       -867.5693362958339776
  @DF-UKS Final Energy:  -867.73862135361207
    Total Energy =                       -867.7386213536120749
  @DF-UKS Final Energy:  -867.94975088849606
    Total Energy =                       -867.9497508884959416
  @DF-UKS Final Energy:  -868.04130269573830
    Total Energy =                       -868.0413026957382954
  @DF-UKS Final Energy:  -868.07520838618586
    Total Energy =                       -868.0752083861858637
  @DF-UKS Final Energy:  -868.08712785034550
    Total Energy =                       -868.0871278503454960
  @DF-UKS Final Energy:  -868.08967907699400
    Total Energy =                       -868.0896790769938889
  @DF-UKS Final Energy:  -868.09056700700705
    Total Energy =                       -868.0905670070069391
  @DF-UKS Final Energy:  -868.09075618669829
    Total Energy =                       -868.0907561866982860
  @DF-UKS Final Energy:  -868.09080614046172
    Total Energy =                       -868.0908061404617229
  @DF-UKS Final Energy:  -868.09082422114295
    Total Energy =                       -868.0908242211428387
  Basis Set: (CC-PVDZ AUX)
    Blend: CC-PVDZ-JKFIT
  Basis Set: CC-PVDZ
    Blend: CC-PVDZ
  Basis Set: (CC-PVDZ AUX)
    Blend: CC-PVDZ-JKFIT
  @DF-UKS Final Energy:  -868.09082743153874
    Total Energy =                       -868.0908274315387416
  Basis Set: CC-PVDZ
    Blend: CC-PVDZ
  Basis Set: (CC-PVDZ AUX)
    Blend: CC-PVDZ-JKFIT
  Charge       = 0
  Multiplicity = 6
  Basis Set: CC-PVDZ
    Blend: CC-PVDZ
  Basis Set: (CC-PVDZ AUX)
    Blend: CC-PVDZ-JKFIT

    Orbital Energies [Eh]
    ---------------------

    Alpha Occupied:

       1A1  -115.186275     2A1   -77.127124     3A1   -11.217544
       4A1    -8.774859     1B1    -8.765357     1B2    -8.765357
       5A1    -6.595799     2B1    -4.760264     2B2    -4.760264
       6A1    -4.753441     7A1    -1.051706     8A1    -0.646035
       9A1    -0.505339     3B1    -0.490500     3B2    -0.490500
       4B2    -0.266188     4B1    -0.266188    10A1    -0.202167
      11A1     0.244582

    Alpha Virtual:

      12A1     0.340862     5B1     0.379484     5B2     0.379484
       6B1     0.399558     6B2     0.399558     1A2     0.418898
      13A1     0.418899    14A1     0.441692     7B2     0.582133
       7B1     0.582133    15A1     0.628801    16A1     0.759713
      17A1     0.773100     2A2     0.773106     8B2     0.829487
       8B1     0.829487    18A1     1.236072

    Beta Occupied:

       1A1  -115.181701     2A1   -77.105176     3A1   -11.212922
       4A1    -8.762669     1B1    -8.762006     1B2    -8.762006
       5A1    -6.569263     2B1    -4.732114     2B2    -4.732114
       6A1    -4.721433     7A1    -1.021968     8A1    -0.523268
       3B1    -0.475988     3B2    -0.475988

    Beta Virtual:

       9A1    -0.326987     4B2    -0.074081     4B1    -0.074081
      10A1    -0.013065    11A1     0.404894    12A1     0.421239
       5B2     0.461371     5B1     0.461371    13A1     0.497223
       6B1     0.497934     6B2     0.497934    14A1     0.558385
       1A2     0.558386     7B2     0.603955     7B1     0.603955
      15A1     0.696815    16A1     0.783486     2A2     0.783491
      17A1     0.805854     8B2     0.871547     8B1     0.871547
      18A1     1.285111

    Final Occupation by Irrep:
             A1    A2    B1    B2
    DOCC [     8,    0,    3,    3 ]
    SOCC [     3,    0,    1,    1 ]
    NA   [    11,    0,    4,    4 ]
    NB   [     8,    0,    3,    3 ]

  @DF-UKS Final Energy:  -868.09082771394219

   => Energetics <=

    Nuclear Repulsion Energy =             64.2493744179703441
    One-Electron Energy =               -1326.2722940818312054
    Two-Electron Energy =                 437.5470984257445934
    DFT Exchange-Correlation Energy =     -43.6150064758260285
    Empirical Dispersion Energy =           0.0000000000000000
    VV10 Nonlocal Energy =                  0.0000000000000000
    Total Energy =                       -868.0908277139423035

  UHF NO Occupations:
  HONO-2 :   11 A1 1.0000000
  HONO-1 :    4 B1 1.0000000
  HONO-0 :    4 B2 1.0000000
  LUNO+0 :   12 A1 0.0003489
  LUNO+1 :   13 A1 0.0000669
  LUNO+2 :    5 B2 0.0000366
  LUNO+3 :    5 B1 0.0000366

Computation Completed

Properties will be evaluated at   0.000000,   0.000000,   0.000000 [a0]

Properties computed using the SCF density matrix

 Multipole Moments:

 ------------------------------------------------------------------------------------
     Multipole            Electronic (a.u.)      Nuclear  (a.u.)        Total (a.u.)
 ------------------------------------------------------------------------------------

 L = 1.  Multiply by 2.5417464519 to convert [e a0] to [Debye]
 Dipole X            :          0.0000000            0.0000000            0.0000000
 Dipole Y            :          0.0000000            0.0000000            0.0000000
 Dipole Z            :         -3.1057662            2.4827016           -0.6230645
 Magnitude           :                                                    0.6230645

 ------------------------------------------------------------------------------------

*** tstop() called on Joses-MacBook-Pro-2.local at Wed Jul 16 20:27:15 2025
Module time:
	user time   =      30.24 seconds =       0.50 minutes
	system time =       3.10 seconds =       0.05 minutes
	total time  =          3 seconds =       0.05 minutes
Total time:
	user time   =     592.39 seconds =       9.87 minutes
	system time =      79.35 seconds =       1.32 minutes
	total time  =         69 seconds =       1.15 minutes

*** tstart() called on Joses-MacBook-Pro-2.local
*** at Wed Jul 16 20:27:15 2025

         ------------------------------------------------------------
                                   SCF GRAD
                          Rob Parrish, Justin Turney,
                       Andy Simmonett, and Alex Sokolov
         ------------------------------------------------------------

  ==> Geometry <==

    Molecular point group: c2v
    Full point group: C_inf_v

    Geometry (in Angstrom), charge = 0, multiplicity = 6:

       Center              X                  Y                   Z               Mass
    ------------   -----------------  -----------------  -----------------  -----------------
         P            0.000000000000     0.000000000000     1.252794357569    30.973761998420
         AR           0.000000000000     0.000000000000    -0.971007012875    39.962383123700

  Nuclear repulsion =   64.249374417970344

  ==> Basis Set <==

  Basis Set: CC-PVDZ
    Blend: CC-PVDZ
    Number of shells: 16
    Number of basis functions: 36
    Number of Cartesian functions: 38
    Spherical Harmonics?: true
    Max angular momentum: 2

  ==> DFJKGrad: Density-Fitted SCF Gradients <==

    Gradient:                    1
    J tasked:                  Yes
    K tasked:                  Yes
    wK tasked:                  No
    OpenMP threads:              1
    Integrals threads:           1
    Memory [MiB]:              375
    Schwarz Cutoff:          1E-12
    Fitting Condition:       1E-10

   => Auxiliary Basis Set <=

  Basis Set: (CC-PVDZ AUX)
    Blend: CC-PVDZ-JKFIT
    Number of shells: 72
    Number of basis functions: 224
    Number of Cartesian functions: 260
    Spherical Harmonics?: true
    Max angular momentum: 3

  ==> DFT Potential <==

   => LibXC <=

    Version 6.2.2
    S. Lehtola, C. Steigemann, M. J.T. Oliveira, and M. A.L. Marques.,  SoftwareX 7, 1â€“5 (2018) (10.1016/j.softx.2017.11.002)

   => Composite Functional: B3LYP <=

    B3LYP Hyb-GGA Exchange-Correlation Functional

    P. J. Stephens, F. J. Devlin, C. F. Chabalowski, and M. J. Frisch.,  J. Phys. Chem. 98, 11623 (1994) (10.1021/j100096a001)

    Deriv               =              1
    GGA                 =           TRUE
    Meta                =          FALSE

    Exchange Hybrid     =           TRUE
    MP2 Hybrid          =          FALSE

   => Exchange Functionals <=

    0.0800   Slater exchange
    0.7200         Becke 88

   => Exact (HF) Exchange <=

    0.2000               HF

   => Correlation Functionals <=

    0.1900   Vosko, Wilk & Nusair (VWN5_RPA)
    0.8100   Lee, Yang & Parr

   => LibXC Density Thresholds  <==

    XC_HYB_GGA_XC_B3LYP:  1.00E-15

   => Molecular Quadrature <=

    Radial Scheme          =       TREUTLER
    Pruning Scheme         =           NONE
    Nuclear Scheme         =       TREUTLER

    Blocking Scheme        =         OCTREE
    BS radius alpha        =              1
    Pruning alpha          =              1
    Radial Points          =             75
    Spherical Points       =            302
    Total Points           =          40844
    Total Blocks           =            370
    Max Points             =            255
    Max Functions          =             36
    Weights Tolerance      =       1.00E-15

  -Total Gradient:
     Atom            X                  Y                   Z
    ------   -----------------  -----------------  -----------------
       1       -0.000000000000    -0.000000000000    -0.000034704198
       2       -0.000000000000     0.000000000000     0.000044578442

*** tstop() called on Joses-MacBook-Pro-2.local at Wed Jul 16 20:27:16 2025
Module time:
	user time   =       5.71 seconds =       0.10 minutes
	system time =       1.82 seconds =       0.03 minutes
	total time  =          1 seconds =       0.02 minutes
Total time:
	user time   =     598.10 seconds =       9.97 minutes
	system time =      81.17 seconds =       1.35 minutes
	total time  =         70 seconds =       1.17 minutes

    			-----------------------------------------

    			 OPTKING 3.0: for geometry optimizations

    			     By R.A. King, Bethel University

    			        with contributions from

    			    A.V. Copan, J. Cayton, A. Heide

    			-----------------------------------------

	                            ===> Fragment 1 <==

	 Z (Atomic Numbers)          Masses                          Geom
	      15.000000            30.973762          0.00000000  0.00000000  2.36743823
	      18.000000            39.962383          0.00000000  0.00000000 -1.83493732

	 - Coordinate -           - BOHR/RAD -       - ANG/DEG -
	 R(1,2)           =         4.202376           2.223801

	        --- Internal Coordinate Step in ANG or DEG, aJ/ANG or AJ/DEG ---
	-------------------------------------------------------------------------------
	           Coordinate      Previous         Force          Change          New
	           ----------      --------        ------          ------        ------
	               R(1,2)       2.22380        0.00033        0.00023       2.22403
	-------------------------------------------------------------------------------

	                                 ==> Convergence Check <==

	Measures of convergence in internal coordinates in au.

	Criteria marked as inactive (o), active & met (*), and active & unmet ( ).

	----------------------------------------------------------------------------------------------
	   Step    Total Energy     Delta E     Max Force     RMS Force      Max Disp      RMS Disp
	----------------------------------------------------------------------------------------------
	  Convergence Criteria     1.00e-06 *    3.00e-04 *             o    1.20e-03 *             o
	----------------------------------------------------------------------------------------------
	    17    -868.09082771   -2.82e-07 *    3.96e-05 *    3.96e-05 o    4.37e-04 *    4.37e-04 o  ~
	----------------------------------------------------------------------------------------------

Next Geometry in Ang
	Fragment 1 (Ang)

	    P   0.0000000000   0.0000000000   1.2529101113
	   Ar   0.0000000000   0.0000000000  -0.9711227666

    Final optimized geometry and variables:
    Molecular point group: c2v
    Full point group: C_inf_v

    Geometry (in Angstrom), charge = 0, multiplicity = 6:

    P            0.000000000000     0.000000000000     1.252794357569
    AR           0.000000000000     0.000000000000    -0.971007012875

    Psi4 stopped on: Wednesday, 16 July 2025 08:27PM
    Psi4 wall time for execution: 0:01:11.01

*** Psi4 exiting successfully. Buy a developer a beer!
