                               Psi4 1.9.1 release

  ==> Input File <==

--------------------------------------------------------------------------
molecule {
0 6
Na   0.00000        0.60000        0.00000
Mg   0.00000       -0.60000        0.00000
}

set {
basis              cc-pvdz
reference          uks
maxiter            500
geom_maxiter       500
DAMPING_PERCENTAGE 1
guess              SAP
}

optimize('b3lyp')
--------------------------------------------------------------------------

    Molecular point group: c2v
  Charge       = 0
  Multiplicity = 6
  Basis Set: CC-PVDZ
    Blend: CC-PVDZ
  Basis Set: (CC-PVDZ AUX)
    Blend: DEF2-UNIVERSAL-JKFIT
  @DF-UKS Final Energy:  -360.31670931724756
    Total Energy =                       -360.3167093172475575
 Dipole X            :          0.0000000            0.0000000            0.0000000
 Dipole Y            :          0.0000000            0.0000000            0.0000000
 Dipole Z            :          0.6530304           -0.5813069            0.0717235
 Magnitude           :                                                    0.0717235
    Molecular point group: c2v
  Basis Set: CC-PVDZ
    Blend: CC-PVDZ
  Basis Set: (CC-PVDZ AUX)
    Blend: DEF2-UNIVERSAL-JKFIT
  Basis Set: CC-PVDZ
    Blend: CC-PVDZ
  Basis Set: (CC-PVDZ AUX)
    Blend: DEF2-UNIVERSAL-JKFIT
  @DF-UKS Final Energy:  -360.32200519301273
    Total Energy =                       -360.3220051930127283
  Basis Set: CC-PVDZ
    Blend: CC-PVDZ
  Basis Set: (CC-PVDZ AUX)
    Blend: DEF2-UNIVERSAL-JKFIT
  Basis Set: CC-PVDZ
    Blend: CC-PVDZ
  @DF-UKS Final Energy:  -360.33230712728925
    Total Energy =                       -360.3323071272891980
  @DF-UKS Final Energy:  -360.37048931500038
    Total Energy =                       -360.3704893150003841
  @DF-UKS Final Energy:  -360.56521132179483
    Total Energy =                       -360.5652113217948340
  @DF-UKS Final Energy:  -360.71060840310827
    Total Energy =                       -360.7106084031082105
  @DF-UKS Final Energy:  -360.82693228244688
    Total Energy =                       -360.8269322824468759
  @DF-UKS Final Energy:  -360.90261980987634
    Total Energy =                       -360.9026198098763416
  @DF-UKS Final Energy:  -360.93677728467509
    Total Energy =                       -360.9367772846750881
  @DF-UKS Final Energy:  -360.95131792428913
    Total Energy =                       -360.9513179242891852
  @DF-UKS Final Energy:  -360.96068776144040
    Total Energy =                       -360.9606877614403970
  @DF-UKS Final Energy:  -360.96493552789866
    Total Energy =                       -360.9649355278986604
  @DF-UKS Final Energy:  -360.96554784861269
    Total Energy =                       -360.9655478486126299
  Basis Set: (CC-PVDZ AUX)
    Blend: DEF2-UNIVERSAL-JKFIT
  Basis Set: CC-PVDZ
    Blend: CC-PVDZ
  Basis Set: (CC-PVDZ AUX)
    Blend: DEF2-UNIVERSAL-JKFIT
  @DF-UKS Final Energy:  -360.96557985674116
    Total Energy =                       -360.9655798567411580
  Basis Set: CC-PVDZ
    Blend: CC-PVDZ
  Basis Set: (CC-PVDZ AUX)
    Blend: DEF2-UNIVERSAL-JKFIT
  Charge       = 0
  Multiplicity = 6
  Basis Set: CC-PVDZ
    Blend: CC-PVDZ
  Basis Set: (CC-PVDZ AUX)
    Blend: DEF2-UNIVERSAL-JKFIT

    Orbital Energies [Eh]
    ---------------------

    Alpha Occupied:

       1A1   -46.891296     2A1   -39.744474     3A1    -3.170177
       4A1    -3.033628     5A1    -2.050166     1B1    -1.926654
       1B2    -1.926654     6A1    -1.914923     2B1    -1.912850
       2B2    -1.912850     7A1    -0.302211     8A1    -0.204756
       3B1    -0.131829     3B2    -0.131829

    Alpha Virtual:

       9A1    -0.100030     4B1    -0.043015     4B2    -0.043015
      10A1     0.002995    11A1     0.028428     5B1     0.036391
       5B2     0.036391    12A1     0.050861    13A1     0.093319
       1A2     0.093320    14A1     0.096890     6B2     0.100783
       6B1     0.100783     7B1     0.149992     7B2     0.149992
      15A1     0.154340    16A1     0.255726     2A2     0.277395
      17A1     0.277397     8B2     0.349914     8B1     0.349914
      18A1     0.457621

    Beta Occupied:

       1A1   -46.886964     2A1   -39.700361     3A1    -3.162969
       4A1    -2.913795     5A1    -1.910036     1B2    -1.906303
       1B1    -1.906303     2B1    -1.880439     2B2    -1.880439

    Beta Virtual:

       6A1    -1.647793     7A1    -0.173721     8A1    -0.110741
       9A1    -0.033869     3B1    -0.030960     3B2    -0.030960
       4B1     0.012771     4B2     0.012771    10A1     0.028335
      11A1     0.048711     5B1     0.057353     5B2     0.057353
      12A1     0.091271    13A1     0.139021    14A1     0.153108
       1A2     0.153138     6B2     0.155977     6B1     0.155977
       7B1     0.188969     7B2     0.188969    15A1     0.189237
      16A1     0.301405     2A2     0.339066    17A1     0.339090
       8B2     0.402394     8B1     0.402394    18A1     0.496129

    Final Occupation by Irrep:
             A1    A2    B1    B2
    DOCC [     5,    0,    2,    2 ]
    SOCC [     3,    0,    1,    1 ]
    NA   [     8,    0,    3,    3 ]
    NB   [     5,    0,    2,    2 ]

  @DF-UKS Final Energy:  -360.96558026848965

   => Energetics <=

    Nuclear Repulsion Energy =             23.4191786971047193
    One-Electron Energy =                -544.0402306874793794
    Two-Electron Energy =                 183.8962337476438051
    DFT Exchange-Correlation Energy =     -24.2407620257588405
    Empirical Dispersion Energy =           0.0000000000000000
    VV10 Nonlocal Energy =                  0.0000000000000000
    Total Energy =                       -360.9655802684897026

  UHF NO Occupations:
  HONO-2 :    3 B1 1.0000000
  HONO-1 :    7 A1 1.0000000
  HONO-0 :    8 A1 1.0000000
  LUNO+0 :    9 A1 0.0000024
  LUNO+1 :    4 B2 0.0000015
  LUNO+2 :    4 B1 0.0000015
  LUNO+3 :   10 A1 0.0000006

Computation Completed

Properties will be evaluated at   0.000000,   0.000000,   0.000000 [a0]

Properties computed using the SCF density matrix

 Multipole Moments:

 ------------------------------------------------------------------------------------
     Multipole            Electronic (a.u.)      Nuclear  (a.u.)        Total (a.u.)
 ------------------------------------------------------------------------------------

 L = 1.  Multiply by 2.5417464519 to convert [e a0] to [Debye]
 Dipole X            :          0.0000000            0.0000000            0.0000000
 Dipole Y            :          0.0000000            0.0000000            0.0000000
 Dipole Z            :          1.2575738           -1.4448663           -0.1872925
 Magnitude           :                                                    0.1872925

 ------------------------------------------------------------------------------------

*** tstop() called on Joses-MacBook-Pro-2.local at Wed Jul 16 19:41:12 2025
Module time:
	user time   =       6.41 seconds =       0.11 minutes
	system time =       2.74 seconds =       0.05 minutes
	total time  =          1 seconds =       0.02 minutes
Total time:
	user time   =     171.08 seconds =       2.85 minutes
	system time =      63.51 seconds =       1.06 minutes
	total time  =         22 seconds =       0.37 minutes

*** tstart() called on Joses-MacBook-Pro-2.local
*** at Wed Jul 16 19:41:12 2025

         ------------------------------------------------------------
                                   SCF GRAD
                          Rob Parrish, Justin Turney,
                       Andy Simmonett, and Alex Sokolov
         ------------------------------------------------------------

  ==> Geometry <==

    Molecular point group: c2v
    Full point group: C_inf_v

    Geometry (in Angstrom), charge = 0, multiplicity = 6:

       Center              X                  Y                   Z               Mass
    ------------   -----------------  -----------------  -----------------  -----------------
         NA           0.000000000000     0.000000000000     1.522926136504    22.989769282000
         MG           0.000000000000     0.000000000000    -1.459731484067    23.985041697000

  Nuclear repulsion =   23.419178697104719

  ==> Basis Set <==

  Basis Set: CC-PVDZ
    Blend: CC-PVDZ
    Number of shells: 16
    Number of basis functions: 36
    Number of Cartesian functions: 38
    Spherical Harmonics?: true
    Max angular momentum: 2

  ==> DFJKGrad: Density-Fitted SCF Gradients <==

    Gradient:                    1
    J tasked:                  Yes
    K tasked:                  Yes
    wK tasked:                  No
    OpenMP threads:              1
    Integrals threads:           1
    Memory [MiB]:              375
    Schwarz Cutoff:          1E-12
    Fitting Condition:       1E-10

   => Auxiliary Basis Set <=

  Basis Set: (CC-PVDZ AUX)
    Blend: DEF2-UNIVERSAL-JKFIT
    Number of shells: 68
    Number of basis functions: 224
    Number of Cartesian functions: 274
    Spherical Harmonics?: true
    Max angular momentum: 4

  ==> DFT Potential <==

   => LibXC <=

    Version 6.2.2
    S. Lehtola, C. Steigemann, M. J.T. Oliveira, and M. A.L. Marques.,  SoftwareX 7, 1â€“5 (2018) (10.1016/j.softx.2017.11.002)

   => Composite Functional: B3LYP <=

    B3LYP Hyb-GGA Exchange-Correlation Functional

    P. J. Stephens, F. J. Devlin, C. F. Chabalowski, and M. J. Frisch.,  J. Phys. Chem. 98, 11623 (1994) (10.1021/j100096a001)

    Deriv               =              1
    GGA                 =           TRUE
    Meta                =          FALSE

    Exchange Hybrid     =           TRUE
    MP2 Hybrid          =          FALSE

   => Exchange Functionals <=

    0.0800   Slater exchange
    0.7200         Becke 88

   => Exact (HF) Exchange <=

    0.2000               HF

   => Correlation Functionals <=

    0.1900   Vosko, Wilk & Nusair (VWN5_RPA)
    0.8100   Lee, Yang & Parr

   => LibXC Density Thresholds  <==

    XC_HYB_GGA_XC_B3LYP:  1.00E-15

   => Molecular Quadrature <=

    Radial Scheme          =       TREUTLER
    Pruning Scheme         =           NONE
    Nuclear Scheme         =       TREUTLER

    Blocking Scheme        =         OCTREE
    BS radius alpha        =              1
    Pruning alpha          =              1
    Radial Points          =             75
    Spherical Points       =            302
    Total Points           =          43602
    Total Blocks           =            459
    Max Points             =            254
    Max Functions          =             36
    Weights Tolerance      =       1.00E-15

  -Total Gradient:
     Atom            X                  Y                   Z
    ------   -----------------  -----------------  -----------------
       1        0.000000000000     0.000000000000    -0.000007266687
       2       -0.000000000000     0.000000000000     0.000022484077

*** tstop() called on Joses-MacBook-Pro-2.local at Wed Jul 16 19:41:13 2025
Module time:
	user time   =       3.25 seconds =       0.05 minutes
	system time =       1.67 seconds =       0.03 minutes
	total time  =          1 seconds =       0.02 minutes
Total time:
	user time   =     174.33 seconds =       2.91 minutes
	system time =      65.18 seconds =       1.09 minutes
	total time  =         23 seconds =       0.38 minutes

    			-----------------------------------------

    			 OPTKING 3.0: for geometry optimizations

    			     By R.A. King, Bethel University

    			        with contributions from

    			    A.V. Copan, J. Cayton, A. Heide

    			-----------------------------------------

	                            ===> Fragment 1 <==

	 Z (Atomic Numbers)          Masses                          Geom
	      11.000000            22.989769          0.00000000  0.00000000  2.87791331
	      12.000000            23.985042          0.00000000  0.00000000 -2.75849272

	 - Coordinate -           - BOHR/RAD -       - ANG/DEG -
	 R(1,2)           =         5.636406           2.982658

	        --- Internal Coordinate Step in ANG or DEG, aJ/ANG or AJ/DEG ---
	-------------------------------------------------------------------------------
	           Coordinate      Previous         Force          Change          New
	           ----------      --------        ------          ------        ------
	               R(1,2)       2.98266        0.00012        0.00035       2.98301
	-------------------------------------------------------------------------------

	                                 ==> Convergence Check <==

	Measures of convergence in internal coordinates in au.

	Criteria marked as inactive (o), active & met (*), and active & unmet ( ).

	----------------------------------------------------------------------------------------------
	   Step    Total Energy     Delta E     Max Force     RMS Force      Max Disp      RMS Disp
	----------------------------------------------------------------------------------------------
	  Convergence Criteria     1.00e-06 *    3.00e-04 *             o    1.20e-03 *             o
	----------------------------------------------------------------------------------------------
	    15    -360.96558027   -4.12e-07 *    1.49e-05 *    1.49e-05 o    6.64e-04 *    6.64e-04 o  ~
	----------------------------------------------------------------------------------------------

Next Geometry in Ang
	Fragment 1 (Ang)

	   Na   0.0000000000   0.0000000000   1.5231018897
	   Mg   0.0000000000   0.0000000000  -1.4599072372

    Final optimized geometry and variables:
    Molecular point group: c2v
    Full point group: C_inf_v

    Geometry (in Angstrom), charge = 0, multiplicity = 6:

    NA           0.000000000000     0.000000000000     1.522926136504
    MG           0.000000000000     0.000000000000    -1.459731484067

    Psi4 stopped on: Wednesday, 16 July 2025 07:41PM
    Psi4 wall time for execution: 0:00:23.20

*** Psi4 exiting successfully. Buy a developer a beer!
