                               Psi4 1.9.1 release

  ==> Input File <==

--------------------------------------------------------------------------
molecule {
0 6
Si   0.00000        0.60000        0.00000
Cl   0.00000       -0.60000        0.00000
}

set {
basis              cc-pvdz
reference          uks
maxiter            500
geom_maxiter       500
DAMPING_PERCENTAGE 1
guess              SAP
}

optimize('b3lyp')
--------------------------------------------------------------------------

    Molecular point group: c2v
  Charge       = 0
  Multiplicity = 6
  Basis Set: CC-PVDZ
    Blend: CC-PVDZ
  Basis Set: (CC-PVDZ AUX)
    Blend: CC-PVDZ-JKFIT
  @DF-UKS Final Energy:  -747.82581493382031
    Total Energy =                       -747.8258149338203111
 Dipole X            :          0.0000000            0.0000000            0.0000000
 Dipole Y            :          0.0000000            0.0000000            0.0000000
 Dipole Z            :         -2.0611832            0.5027826           -1.5584006
 Magnitude           :                                                    1.5584006
    Molecular point group: c2v
  Basis Set: CC-PVDZ
    Blend: CC-PVDZ
  Basis Set: (CC-PVDZ AUX)
    Blend: CC-PVDZ-JKFIT
  Basis Set: CC-PVDZ
    Blend: CC-PVDZ
  Basis Set: (CC-PVDZ AUX)
    Blend: CC-PVDZ-JKFIT
  @DF-UKS Final Energy:  -747.86191936464104
    Total Energy =                       -747.8619193646410395
  Basis Set: CC-PVDZ
    Blend: CC-PVDZ
  Basis Set: (CC-PVDZ AUX)
    Blend: CC-PVDZ-JKFIT
  Basis Set: CC-PVDZ
    Blend: CC-PVDZ
  @DF-UKS Final Energy:  -747.92950436003332
    Total Energy =                       -747.9295043600333202
  @DF-UKS Final Energy:  -748.15444731214995
    Total Energy =                       -748.1544473121499550
  @DF-UKS Final Energy:  -748.69528586304580
    Total Energy =                       -748.6952858630457968
  @DF-UKS Final Energy:  -748.98453315429504
    Total Energy =                       -748.9845331542950362
  @DF-UKS Final Energy:  -749.14737641630438
    Total Energy =                       -749.1473764163043825
  @DF-UKS Final Energy:  -749.25202238892587
    Total Energy =                       -749.2520223889258659
  @DF-UKS Final Energy:  -749.31981372003713
    Total Energy =                       -749.3198137200371320
  @DF-UKS Final Energy:  -749.35515384342193
    Total Energy =                       -749.3551538434219310
  @DF-UKS Final Energy:  -749.37189135718882
    Total Energy =                       -749.3718913571888152
  @DF-UKS Final Energy:  -749.37943328445101
    Total Energy =                       -749.3794332844511246
  @DF-UKS Final Energy:  -749.38264075302106
    Total Energy =                       -749.3826407530210645
  @DF-UKS Final Energy:  -749.38386277963491
    Total Energy =                       -749.3838627796349101
  @DF-UKS Final Energy:  -749.38424172740054
    Total Energy =                       -749.3842417274004220
  @DF-UKS Final Energy:  -749.38431010424733
    Total Energy =                       -749.3843101042473336
  @DF-UKS Final Energy:  -749.38432714358862
    Total Energy =                       -749.3843271435887345
  Basis Set: (CC-PVDZ AUX)
    Blend: CC-PVDZ-JKFIT
  Basis Set: CC-PVDZ
    Blend: CC-PVDZ
  Basis Set: (CC-PVDZ AUX)
    Blend: CC-PVDZ-JKFIT
  @DF-UKS Final Energy:  -749.38432883501639
    Total Energy =                       -749.3843288350163903
  Basis Set: CC-PVDZ
    Blend: CC-PVDZ
  Basis Set: (CC-PVDZ AUX)
    Blend: CC-PVDZ-JKFIT
  Charge       = 0
  Multiplicity = 6
  Basis Set: CC-PVDZ
    Blend: CC-PVDZ
  Basis Set: (CC-PVDZ AUX)
    Blend: CC-PVDZ-JKFIT

    Orbital Energies [Eh]
    ---------------------

    Alpha Occupied:

       1A1  -101.635844     2A1   -66.179070     3A1    -9.549056
       1B2    -7.322117     4A1    -7.302074     1B1    -7.298230
       5A1    -5.323028     2B2    -3.682994     2B1    -3.682957
       6A1    -3.682697     7A1    -0.884328     8A1    -0.484053
       3B2    -0.440304     9A1    -0.393456     3B1    -0.384612
       4B2    -0.202821     4B1    -0.201884    10A1    -0.192168

    Alpha Virtual:

      11A1     0.238963     5B2     0.290627     5B1     0.293097
      12A1     0.297531     6B2     0.320264    13A1     0.320556
       6B1     0.322015     1A2     0.327076    14A1     0.327077
       7B2     0.490144     7B1     0.521446    15A1     0.525222
      16A1     0.610296     8B2     0.630455     2A2     0.631962
      17A1     0.649728     8B1     0.674110    18A1     0.799444

    Beta Occupied:

       1A1  -101.627530     2A1   -66.163940     3A1    -9.540838
       1B2    -7.298903     4A1    -7.293705     1B1    -7.293175
       5A1    -5.303421     2B2    -3.661770     2B1    -3.661702
       6A1    -3.661225     7A1    -0.821824     8A1    -0.369308
       3B1    -0.365324

    Beta Virtual:

       3B2    -0.274057     9A1    -0.267557     4B2    -0.039101
       4B1    -0.038423    10A1    -0.031716    11A1     0.295911
       5B2     0.356579     5B1     0.357088    12A1     0.367868
      13A1     0.412892     6B1     0.433897     6B2     0.434109
      14A1     0.449018     1A2     0.449021     7B1     0.538682
       7B2     0.542576    15A1     0.545169    16A1     0.660796
       2A2     0.692101     8B1     0.692572    17A1     0.698147
       8B2     0.698684    18A1     0.839953

    Final Occupation by Irrep:
             A1    A2    B1    B2
    DOCC [     8,    0,    3,    2 ]
    SOCC [     2,    0,    1,    2 ]
    NA   [    10,    0,    4,    4 ]
    NB   [     8,    0,    3,    2 ]

  @DF-UKS Final Energy:  -749.38432898640815

   => Energetics <=

    Nuclear Repulsion Energy =             38.8306263260298863
    One-Electron Energy =               -1112.4304849620270943
    Two-Electron Energy =                 363.7138711092173935
    DFT Exchange-Correlation Energy =     -39.4983414596284135
    Empirical Dispersion Energy =           0.0000000000000000
    VV10 Nonlocal Energy =                  0.0000000000000000
    Total Energy =                       -749.3843289864081498

  UHF NO Occupations:
  HONO-2 :    3 B2 1.0000000
  HONO-1 :    4 B1 1.0000000
  HONO-0 :    4 B2 1.0000000
  LUNO+0 :   11 A1 0.0008239
  LUNO+1 :   12 A1 0.0003902
  LUNO+2 :    5 B1 0.0000567
  LUNO+3 :    5 B2 0.0000001

Computation Completed

Properties will be evaluated at   0.000000,   0.000000,   0.000000 [a0]

Properties computed using the SCF density matrix

 Multipole Moments:

 ------------------------------------------------------------------------------------
     Multipole            Electronic (a.u.)      Nuclear  (a.u.)        Total (a.u.)
 ------------------------------------------------------------------------------------

 L = 1.  Multiply by 2.5417464519 to convert [e a0] to [Debye]
 Dipole X            :          0.0000000            0.0000000            0.0000000
 Dipole Y            :          0.0000000            0.0000000            0.0000000
 Dipole Z            :         -2.1756125            1.3589476           -0.8166649
 Magnitude           :                                                    0.8166649

 ------------------------------------------------------------------------------------

*** tstop() called on Joses-MacBook-Pro-2.local at Wed Jul 16 20:18:55 2025
Module time:
	user time   =      33.51 seconds =       0.56 minutes
	system time =       3.46 seconds =       0.06 minutes
	total time  =          4 seconds =       0.07 minutes
Total time:
	user time   =     612.60 seconds =      10.21 minutes
	system time =      91.72 seconds =       1.53 minutes
	total time  =         72 seconds =       1.20 minutes

*** tstart() called on Joses-MacBook-Pro-2.local
*** at Wed Jul 16 20:18:55 2025

         ------------------------------------------------------------
                                   SCF GRAD
                          Rob Parrish, Justin Turney,
                       Andy Simmonett, and Alex Sokolov
         ------------------------------------------------------------

  ==> Geometry <==

    Molecular point group: c2v
    Full point group: C_inf_v

    Geometry (in Angstrom), charge = 0, multiplicity = 6:

       Center              X                  Y                   Z               Mass
    ------------   -----------------  -----------------  -----------------  -----------------
         SI           0.000000000000     0.000000000000     1.801849292334    27.976926534650
         CL           0.000000000000     0.000000000000    -1.441574470188    34.968852682000

  Nuclear repulsion =   38.830626326029886

  ==> Basis Set <==

  Basis Set: CC-PVDZ
    Blend: CC-PVDZ
    Number of shells: 16
    Number of basis functions: 36
    Number of Cartesian functions: 38
    Spherical Harmonics?: true
    Max angular momentum: 2

  ==> DFJKGrad: Density-Fitted SCF Gradients <==

    Gradient:                    1
    J tasked:                  Yes
    K tasked:                  Yes
    wK tasked:                  No
    OpenMP threads:              1
    Integrals threads:           1
    Memory [MiB]:              375
    Schwarz Cutoff:          1E-12
    Fitting Condition:       1E-10

   => Auxiliary Basis Set <=

  Basis Set: (CC-PVDZ AUX)
    Blend: CC-PVDZ-JKFIT
    Number of shells: 72
    Number of basis functions: 224
    Number of Cartesian functions: 260
    Spherical Harmonics?: true
    Max angular momentum: 3

  ==> DFT Potential <==

   => LibXC <=

    Version 6.2.2
    S. Lehtola, C. Steigemann, M. J.T. Oliveira, and M. A.L. Marques.,  SoftwareX 7, 1â€“5 (2018) (10.1016/j.softx.2017.11.002)

   => Composite Functional: B3LYP <=

    B3LYP Hyb-GGA Exchange-Correlation Functional

    P. J. Stephens, F. J. Devlin, C. F. Chabalowski, and M. J. Frisch.,  J. Phys. Chem. 98, 11623 (1994) (10.1021/j100096a001)

    Deriv               =              1
    GGA                 =           TRUE
    Meta                =          FALSE

    Exchange Hybrid     =           TRUE
    MP2 Hybrid          =          FALSE

   => Exchange Functionals <=

    0.0800   Slater exchange
    0.7200         Becke 88

   => Exact (HF) Exchange <=

    0.2000               HF

   => Correlation Functionals <=

    0.1900   Vosko, Wilk & Nusair (VWN5_RPA)
    0.8100   Lee, Yang & Parr

   => LibXC Density Thresholds  <==

    XC_HYB_GGA_XC_B3LYP:  1.00E-15

   => Molecular Quadrature <=

    Radial Scheme          =       TREUTLER
    Pruning Scheme         =           NONE
    Nuclear Scheme         =       TREUTLER

    Blocking Scheme        =         OCTREE
    BS radius alpha        =              1
    Pruning alpha          =              1
    Radial Points          =             75
    Spherical Points       =            302
    Total Points           =          41713
    Total Blocks           =            391
    Max Points             =            253
    Max Functions          =             36
    Weights Tolerance      =       1.00E-15

  -Total Gradient:
     Atom            X                  Y                   Z
    ------   -----------------  -----------------  -----------------
       1        0.000000000000     0.000000000000    -0.000013856482
       2       -0.000000000000     0.000000000000     0.000022649368

*** tstop() called on Joses-MacBook-Pro-2.local at Wed Jul 16 20:18:55 2025
Module time:
	user time   =       6.98 seconds =       0.12 minutes
	system time =       1.27 seconds =       0.02 minutes
	total time  =          0 seconds =       0.00 minutes
Total time:
	user time   =     619.59 seconds =      10.33 minutes
	system time =      92.99 seconds =       1.55 minutes
	total time  =         72 seconds =       1.20 minutes

    			-----------------------------------------

    			 OPTKING 3.0: for geometry optimizations

    			     By R.A. King, Bethel University

    			        with contributions from

    			    A.V. Copan, J. Cayton, A. Heide

    			-----------------------------------------

	                            ===> Fragment 1 <==

	 Z (Atomic Numbers)          Masses                          Geom
	      14.000000            27.976927          0.00000000  0.00000000  3.40500168
	      17.000000            34.968853          0.00000000  0.00000000 -2.72418094

	 - Coordinate -           - BOHR/RAD -       - ANG/DEG -
	 R(1,2)           =         6.129183           3.243424

	        --- Internal Coordinate Step in ANG or DEG, aJ/ANG or AJ/DEG ---
	-------------------------------------------------------------------------------
	           Coordinate      Previous         Force          Change          New
	           ----------      --------        ------          ------        ------
	               R(1,2)       3.24342        0.00015        0.00136       3.24478
	-------------------------------------------------------------------------------

	                                 ==> Convergence Check <==

	Measures of convergence in internal coordinates in au.

	Criteria marked as inactive (o), active & met (*), and active & unmet ( ).

	----------------------------------------------------------------------------------------------
	   Step    Total Energy     Delta E     Max Force     RMS Force      Max Disp      RMS Disp
	----------------------------------------------------------------------------------------------
	  Convergence Criteria     1.00e-06 *    3.00e-04 *             o    1.20e-03 *             o
	----------------------------------------------------------------------------------------------
	    19    -749.38432899   -1.51e-07 *    1.83e-05 *    1.83e-05 o    2.56e-03      2.56e-03 o  ~
	----------------------------------------------------------------------------------------------

Next Geometry in Ang
	Fragment 1 (Ang)

	   Si   0.0000000000   0.0000000000   1.8025269511
	   Cl   0.0000000000   0.0000000000  -1.4422521290

    Final optimized geometry and variables:
    Molecular point group: c2v
    Full point group: C_inf_v

    Geometry (in Angstrom), charge = 0, multiplicity = 6:

    SI           0.000000000000     0.000000000000     1.801849292334
    CL           0.000000000000     0.000000000000    -1.441574470188

    Psi4 stopped on: Wednesday, 16 July 2025 08:18PM
    Psi4 wall time for execution: 0:01:13.49

*** Psi4 exiting successfully. Buy a developer a beer!
