                               Psi4 1.9.1 release

  ==> Input File <==

--------------------------------------------------------------------------
molecule {
0 6
N   0.00000        0.60000        0.00000
O   0.00000       -0.60000        0.00000
}

set {
basis              cc-pvdz
reference          uks
maxiter            500
geom_maxiter       500
DAMPING_PERCENTAGE 1
guess              SAP
}

optimize('b3lyp')
--------------------------------------------------------------------------

    Molecular point group: c2v
  Charge       = 0
  Multiplicity = 6
  Basis Set: CC-PVDZ
    Blend: CC-PVDZ
  Basis Set: (CC-PVDZ AUX)
    Blend: CC-PVDZ-JKFIT
  @DF-UKS Final Energy:  -129.13259026367561
    Total Energy =                       -129.1325902636756098
 Dipole X            :          0.0000000            0.0000000            0.0000000
 Dipole Y            :          0.0000000            0.0000000            0.0000000
 Dipole Z            :         -0.0641770           -0.0045500           -0.0687270
 Magnitude           :                                                    0.0687270
    Molecular point group: c2v
  Basis Set: CC-PVDZ
    Blend: CC-PVDZ
  Basis Set: (CC-PVDZ AUX)
    Blend: CC-PVDZ-JKFIT
  Basis Set: CC-PVDZ
    Blend: CC-PVDZ
  Basis Set: (CC-PVDZ AUX)
    Blend: CC-PVDZ-JKFIT
  @DF-UKS Final Energy:  -129.43691936445089
    Total Energy =                       -129.4369193644508869
  Basis Set: CC-PVDZ
    Blend: CC-PVDZ
  Basis Set: (CC-PVDZ AUX)
    Blend: CC-PVDZ-JKFIT
  Basis Set: CC-PVDZ
    Blend: CC-PVDZ
  @DF-UKS Final Energy:  -129.54642947748783
    Total Energy =                       -129.5464294774878340
  @DF-UKS Final Energy:  -129.59904066536683
    Total Energy =                       -129.5990406653668288
  @DF-UKS Final Energy:  -129.62781082949721
    Total Energy =                       -129.6278108294972071
  @DF-UKS Final Energy:  -129.64255723494142
    Total Energy =                       -129.6425572349414210
  @DF-UKS Final Energy:  -129.65002427568845
    Total Energy =                       -129.6500242756884518
  @DF-UKS Final Energy:  -129.65384292105682
    Total Energy =                       -129.6538429210568211
  @DF-UKS Final Energy:  -129.65579721133204
    Total Energy =                       -129.6557972113320432
  @DF-UKS Final Energy:  -129.65676884474914
    Total Energy =                       -129.6567688447491378
  @DF-UKS Final Energy:  -129.65723124728794
    Total Energy =                       -129.6572312472879389
  @DF-UKS Final Energy:  -129.65744183667329
    Total Energy =                       -129.6574418366732857
  @DF-UKS Final Energy:  -129.65753504256708
    Total Energy =                       -129.6575350425670763
  @DF-UKS Final Energy:  -129.65757534705108
    Total Energy =                       -129.6575753470510790
  @DF-UKS Final Energy:  -129.65759016018728
    Total Energy =                       -129.6575901601872829
  @DF-UKS Final Energy:  -129.65759984118856
    Total Energy =                       -129.6575998411885564
  @DF-UKS Final Energy:  -129.65760714066414
    Total Energy =                       -129.6576071406641404
  @DF-UKS Final Energy:  -129.65761268247695
    Total Energy =                       -129.6576126824769517
  Basis Set: (CC-PVDZ AUX)
    Blend: CC-PVDZ-JKFIT
  Basis Set: CC-PVDZ
    Blend: CC-PVDZ
  Basis Set: (CC-PVDZ AUX)
    Blend: CC-PVDZ-JKFIT
  @DF-UKS Final Energy:  -129.65762390015439
    Total Energy =                       -129.6576239001543911
  Basis Set: CC-PVDZ
    Blend: CC-PVDZ
  Basis Set: (CC-PVDZ AUX)
    Blend: CC-PVDZ-JKFIT
  Charge       = 0
  Multiplicity = 6
  Basis Set: CC-PVDZ
    Blend: CC-PVDZ
  Basis Set: (CC-PVDZ AUX)
    Blend: CC-PVDZ-JKFIT

    Orbital Energies [Eh]
    ---------------------

    Alpha Occupied:

       1A1   -19.272605     2A1   -14.435242     3A1    -1.003370
       4A1    -0.802357     1B1    -0.441439     5A1    -0.441438
       1B2    -0.364710     6A1    -0.344959     2B1    -0.344905
       2B2    -0.344881

    Alpha Virtual:

       7A1     0.656998     3B1     0.657296     3B2     0.657351
       8A1     0.772051     4B1     0.818221     9A1     0.818554
       4B2     0.865954    10A1     1.072476    11A1     1.678523
       5B1     1.678527     5B2     1.678545     1A2     1.678581
      12A1     1.678594     6B1     2.441876    13A1     2.441895
       2A2     2.500307     6B2     2.500312    14A1     2.520962

    Beta Occupied:

       1A1   -19.222771     2A1   -14.378999     3A1    -0.845145
       4A1    -0.605324     1B2    -0.313232

    Beta Virtual:

       5A1    -0.159973     1B1    -0.159965     6A1    -0.090814
       2B1    -0.090743     2B2    -0.090709     7A1     0.764964
       3B1     0.765238     3B2     0.765290     8A1     0.871719
       4B2     0.895828     4B1     0.932410     9A1     0.932690
      10A1     1.154204    11A1     1.826136     5B1     1.826141
       5B2     1.826160     1A2     1.826200    12A1     1.826212
       2A2     2.591183     6B2     2.591190    13A1     2.598471
       6B1     2.615573    14A1     2.615589

    Final Occupation by Irrep:
             A1    A2    B1    B2
    DOCC [     4,    0,    0,    1 ]
    SOCC [     2,    0,    2,    1 ]
    NA   [     6,    0,    2,    2 ]
    NB   [     4,    0,    0,    1 ]

  @DF-UKS Final Energy:  -129.65764607424285

   => Energetics <=

    Nuclear Repulsion Energy =              6.5684912387011938
    One-Electron Energy =                -190.4200198065796030
    Two-Electron Energy =                  66.5310839802804139
    DFT Exchange-Correlation Energy =     -12.3372014866448527
    Empirical Dispersion Energy =           0.0000000000000000
    VV10 Nonlocal Energy =                  0.0000000000000000
    Total Energy =                       -129.6576460742428480

  UHF NO Occupations:
  HONO-2 :    5 A1 1.0000000
  HONO-1 :    6 A1 1.0000000
  HONO-0 :    2 B2 1.0000000
  LUNO+0 :    7 A1 0.0009738
  LUNO+1 :    8 A1 0.0007061
  LUNO+2 :    3 B2 0.0002398
  LUNO+3 :    9 A1 0.0000000

Computation Completed

Properties will be evaluated at   0.000000,   0.000000,   0.000000 [a0]

Properties computed using the SCF density matrix

 Multipole Moments:

 ------------------------------------------------------------------------------------
     Multipole            Electronic (a.u.)      Nuclear  (a.u.)        Total (a.u.)
 ------------------------------------------------------------------------------------

 L = 1.  Multiply by 2.5417464519 to convert [e a0] to [Debye]
 Dipole X            :          0.0000000            0.0000000            0.0000000
 Dipole Y            :          0.0000000            0.0000000            0.0000000
 Dipole Z            :          0.0179836           -0.0171062            0.0008774
 Magnitude           :                                                    0.0008774

 ------------------------------------------------------------------------------------

*** tstop() called on Joses-MacBook-Pro-2.local at Wed Jul 16 19:07:48 2025
Module time:
	user time   =       3.14 seconds =       0.05 minutes
	system time =       2.31 seconds =       0.04 minutes
	total time  =          1 seconds =       0.02 minutes
Total time:
	user time   =      74.72 seconds =       1.25 minutes
	system time =      77.43 seconds =       1.29 minutes
	total time  =         15 seconds =       0.25 minutes

*** tstart() called on Joses-MacBook-Pro-2.local
*** at Wed Jul 16 19:07:48 2025

         ------------------------------------------------------------
                                   SCF GRAD
                          Rob Parrish, Justin Turney,
                       Andy Simmonett, and Alex Sokolov
         ------------------------------------------------------------

  ==> Geometry <==

    Molecular point group: c2v
    Full point group: C_inf_v

    Geometry (in Angstrom), charge = 0, multiplicity = 6:

       Center              X                  Y                   Z               Mass
    ------------   -----------------  -----------------  -----------------  -----------------
         N            0.000000000000     0.000000000000     2.405544109998    14.003074004430
         O            0.000000000000     0.000000000000    -2.105982619751    15.994914619570

  Nuclear repulsion =    6.568491238701194

  ==> Basis Set <==

  Basis Set: CC-PVDZ
    Blend: CC-PVDZ
    Number of shells: 12
    Number of basis functions: 28
    Number of Cartesian functions: 30
    Spherical Harmonics?: true
    Max angular momentum: 2

  ==> DFJKGrad: Density-Fitted SCF Gradients <==

    Gradient:                    1
    J tasked:                  Yes
    K tasked:                  Yes
    wK tasked:                  No
    OpenMP threads:              1
    Integrals threads:           1
    Memory [MiB]:              375
    Schwarz Cutoff:          1E-12
    Fitting Condition:       1E-10

   => Auxiliary Basis Set <=

  Basis Set: (CC-PVDZ AUX)
    Blend: CC-PVDZ-JKFIT
    Number of shells: 48
    Number of basis functions: 140
    Number of Cartesian functions: 162
    Spherical Harmonics?: true
    Max angular momentum: 3

  ==> DFT Potential <==

   => LibXC <=

    Version 6.2.2
    S. Lehtola, C. Steigemann, M. J.T. Oliveira, and M. A.L. Marques.,  SoftwareX 7, 1â€“5 (2018) (10.1016/j.softx.2017.11.002)

   => Composite Functional: B3LYP <=

    B3LYP Hyb-GGA Exchange-Correlation Functional

    P. J. Stephens, F. J. Devlin, C. F. Chabalowski, and M. J. Frisch.,  J. Phys. Chem. 98, 11623 (1994) (10.1021/j100096a001)

    Deriv               =              1
    GGA                 =           TRUE
    Meta                =          FALSE

    Exchange Hybrid     =           TRUE
    MP2 Hybrid          =          FALSE

   => Exchange Functionals <=

    0.0800   Slater exchange
    0.7200         Becke 88

   => Exact (HF) Exchange <=

    0.2000               HF

   => Correlation Functionals <=

    0.1900   Vosko, Wilk & Nusair (VWN5_RPA)
    0.8100   Lee, Yang & Parr

   => LibXC Density Thresholds  <==

    XC_HYB_GGA_XC_B3LYP:  1.00E-15

   => Molecular Quadrature <=

    Radial Scheme          =       TREUTLER
    Pruning Scheme         =           NONE
    Nuclear Scheme         =       TREUTLER

    Blocking Scheme        =         OCTREE
    BS radius alpha        =              1
    Pruning alpha          =              1
    Radial Points          =             75
    Spherical Points       =            302
    Total Points           =          42398
    Total Blocks           =            419
    Max Points             =            243
    Max Functions          =             28
    Weights Tolerance      =       1.00E-15

  -Total Gradient:
     Atom            X                  Y                   Z
    ------   -----------------  -----------------  -----------------
       1        0.000000000000    -0.000000000000    -0.000014828664
       2       -0.000000000000     0.000000000000     0.000010328597

*** tstop() called on Joses-MacBook-Pro-2.local at Wed Jul 16 19:07:48 2025
Module time:
	user time   =       0.42 seconds =       0.01 minutes
	system time =       0.84 seconds =       0.01 minutes
	total time  =          0 seconds =       0.00 minutes
Total time:
	user time   =      75.15 seconds =       1.25 minutes
	system time =      78.27 seconds =       1.30 minutes
	total time  =         15 seconds =       0.25 minutes

    			-----------------------------------------

    			 OPTKING 3.0: for geometry optimizations

    			     By R.A. King, Bethel University

    			        with contributions from

    			    A.V. Copan, J. Cayton, A. Heide

    			-----------------------------------------

	                            ===> Fragment 1 <==

	 Z (Atomic Numbers)          Masses                          Geom
	       7.000000            14.003074          0.00000000  0.00000000  4.54581955
	       8.000000            15.994915          0.00000000  0.00000000 -3.97973038

	 - Coordinate -           - BOHR/RAD -       - ANG/DEG -
	 R(1,2)           =         8.525550           4.511527

	        --- Internal Coordinate Step in ANG or DEG, aJ/ANG or AJ/DEG ---
	-------------------------------------------------------------------------------
	           Coordinate      Previous         Force          Change          New
	           ----------      --------        ------          ------        ------
	               R(1,2)       4.51153        0.00010        0.00005       4.51158
	-------------------------------------------------------------------------------

	                                 ==> Convergence Check <==

	Measures of convergence in internal coordinates in au.

	Criteria marked as inactive (o), active & met (*), and active & unmet ( ).

	----------------------------------------------------------------------------------------------
	   Step    Total Energy     Delta E     Max Force     RMS Force      Max Disp      RMS Disp
	----------------------------------------------------------------------------------------------
	  Convergence Criteria     1.00e-06 *    3.00e-04 *             o    1.20e-03 *             o
	----------------------------------------------------------------------------------------------
	    20    -129.65764607   -2.22e-05      1.26e-05 *    1.26e-05 o    9.39e-05 *    9.39e-05 o  ~
	----------------------------------------------------------------------------------------------

Next Geometry in Ang
	Fragment 1 (Ang)

	    N   0.0000000000   0.0000000000   2.4055689647
	    O   0.0000000000   0.0000000000  -2.1060074744

    Final optimized geometry and variables:
    Molecular point group: c2v
    Full point group: C_inf_v

    Geometry (in Angstrom), charge = 0, multiplicity = 6:

    N            0.000000000000     0.000000000000     2.405544109998
    O            0.000000000000     0.000000000000    -2.105982619751

    Psi4 stopped on: Wednesday, 16 July 2025 07:07PM
    Psi4 wall time for execution: 0:00:15.11

*** Psi4 exiting successfully. Buy a developer a beer!
