                               Psi4 1.9.1 release

  ==> Input File <==

--------------------------------------------------------------------------
molecule {
0 6
C   0.00000        0.60000        0.00000
N   0.00000       -0.60000        0.00000
}

set {
basis              cc-pvdz
reference          uks
maxiter            500
geom_maxiter       500
DAMPING_PERCENTAGE 1
guess              SAP
}

optimize('b3lyp')
--------------------------------------------------------------------------

    Molecular point group: c2v
  Charge       = 0
  Multiplicity = 6
  Basis Set: CC-PVDZ
    Blend: CC-PVDZ
  Basis Set: (CC-PVDZ AUX)
    Blend: CC-PVDZ-JKFIT
  @DF-UKS Final Energy:   -92.29492072975646
    Total Energy =                        -92.2949207297564698
 Dipole X            :          0.0000000            0.0000000            0.0000000
 Dipole Y            :          0.0000000            0.0000000            0.0000000
 Dipole Z            :          0.1622778            0.0016085            0.1638862
 Magnitude           :                                                    0.1638862
    Molecular point group: c2v
  Basis Set: CC-PVDZ
    Blend: CC-PVDZ
  Basis Set: (CC-PVDZ AUX)
    Blend: CC-PVDZ-JKFIT
  Basis Set: CC-PVDZ
    Blend: CC-PVDZ
  Basis Set: (CC-PVDZ AUX)
    Blend: CC-PVDZ-JKFIT
  @DF-UKS Final Energy:   -92.42160678988910
    Total Energy =                        -92.4216067898890969
  Basis Set: CC-PVDZ
    Blend: CC-PVDZ
  Basis Set: (CC-PVDZ AUX)
    Blend: CC-PVDZ-JKFIT
  Basis Set: CC-PVDZ
    Blend: CC-PVDZ
  @DF-UKS Final Energy:   -92.43739562429528
    Total Energy =                        -92.4373956242952630
  @DF-UKS Final Energy:   -92.44739202480223
    Total Energy =                        -92.4473920248022409
  @DF-UKS Final Energy:   -92.44987246952077
    Total Energy =                        -92.4498724695207699
  @DF-UKS Final Energy:   -92.45072414935299
    Total Energy =                        -92.4507241493529932
  @DF-UKS Final Energy:   -92.45107804429465
    Total Energy =                        -92.4510780442946611
  @DF-UKS Final Energy:   -92.45128520904900
    Total Energy =                        -92.4512852090490043
  @DF-UKS Final Energy:   -92.45139169391678
    Total Energy =                        -92.4513916939167757
  @DF-UKS Final Energy:   -92.45142175948774
    Total Energy =                        -92.4514217594877437
  Basis Set: (CC-PVDZ AUX)
    Blend: CC-PVDZ-JKFIT
  Basis Set: CC-PVDZ
    Blend: CC-PVDZ
  Basis Set: (CC-PVDZ AUX)
    Blend: CC-PVDZ-JKFIT
  @DF-UKS Final Energy:   -92.45142693709820
    Total Energy =                        -92.4514269370981907
  Basis Set: CC-PVDZ
    Blend: CC-PVDZ
  Basis Set: (CC-PVDZ AUX)
    Blend: CC-PVDZ-JKFIT
  Charge       = 0
  Multiplicity = 6
  Basis Set: CC-PVDZ
    Blend: CC-PVDZ
  Basis Set: (CC-PVDZ AUX)
    Blend: CC-PVDZ-JKFIT

    Orbital Energies [Eh]
    ---------------------

    Alpha Occupied:

       1A1   -14.485908     2A1   -10.275427     3A1    -0.873588
       4A1    -0.586076     1B1    -0.401070     1B2    -0.401070
       5A1    -0.383111     2B1    -0.234475     2B2    -0.234475

    Alpha Virtual:

       6A1     0.002991     7A1     0.455857     3B1     0.464132
       3B2     0.464132     8A1     0.566214     4B2     0.662297
       4B1     0.662297     9A1     0.691600    10A1     1.075064
       5B2     1.090094     5B1     1.090094     1A2     1.112488
      11A1     1.112489    12A1     1.336031    13A1     1.643761
       2A2     1.643762     6B1     1.826874     6B2     1.826874
      14A1     2.235788

    Beta Occupied:

       1A1   -14.435378     2A1   -10.239197     3A1    -0.713670
       4A1    -0.434869

    Beta Virtual:

       5A1    -0.188582     1B1    -0.159325     1B2    -0.159325
       2B1    -0.013068     2B2    -0.013068     6A1     0.103875
       7A1     0.505264     3B1     0.552917     3B2     0.552917
       8A1     0.639838     9A1     0.756831     4B2     0.764395
       4B1     0.764395    10A1     1.160142     5B2     1.186158
       5B1     1.186158    11A1     1.238619     1A2     1.238619
      12A1     1.431319     2A2     1.792385    13A1     1.792388
       6B1     1.944476     6B2     1.944476    14A1     2.333763

    Final Occupation by Irrep:
             A1    A2    B1    B2
    DOCC [     4,    0,    0,    0 ]
    SOCC [     1,    0,    2,    2 ]
    NA   [     5,    0,    2,    2 ]
    NB   [     4,    0,    0,    0 ]

  @DF-UKS Final Energy:   -92.45142748698122

   => Energetics <=

    Nuclear Repulsion Energy =             12.6132123727158785
    One-Electron Energy =                -149.4130224698560880
    Two-Electron Energy =                  54.0978672294866882
    DFT Exchange-Correlation Energy =      -9.7494846193276903
    Empirical Dispersion Energy =           0.0000000000000000
    VV10 Nonlocal Energy =                  0.0000000000000000
    Total Energy =                        -92.4514274869812027

  UHF NO Occupations:
  HONO-2 :    1 B2 1.0000000
  HONO-1 :    2 B2 1.0000000
  HONO-0 :    5 A1 1.0000000
  LUNO+0 :    6 A1 0.0028092
  LUNO+1 :    7 A1 0.0009211
  LUNO+2 :    8 A1 0.0000008
  LUNO+3 :    9 A1 0.0000002

Computation Completed

Properties will be evaluated at   0.000000,   0.000000,   0.000000 [a0]

Properties computed using the SCF density matrix

 Multipole Moments:

 ------------------------------------------------------------------------------------
     Multipole            Electronic (a.u.)      Nuclear  (a.u.)        Total (a.u.)
 ------------------------------------------------------------------------------------

 L = 1.  Multiply by 2.5417464519 to convert [e a0] to [Debye]
 Dipole X            :          0.0000000            0.0000000            0.0000000
 Dipole Y            :          0.0000000            0.0000000            0.0000000
 Dipole Z            :         -0.2702153            0.0023619           -0.2678535
 Magnitude           :                                                    0.2678535

 ------------------------------------------------------------------------------------

*** tstop() called on Joses-MacBook-Pro-2.local at Wed Jul 16 18:59:44 2025
Module time:
	user time   =       3.45 seconds =       0.06 minutes
	system time =       2.77 seconds =       0.05 minutes
	total time  =          1 seconds =       0.02 minutes
Total time:
	user time   =      48.87 seconds =       0.81 minutes
	system time =      54.76 seconds =       0.91 minutes
	total time  =         10 seconds =       0.17 minutes

*** tstart() called on Joses-MacBook-Pro-2.local
*** at Wed Jul 16 18:59:44 2025

         ------------------------------------------------------------
                                   SCF GRAD
                          Rob Parrish, Justin Turney,
                       Andy Simmonett, and Alex Sokolov
         ------------------------------------------------------------

  ==> Geometry <==

    Molecular point group: c2v
    Full point group: C_inf_v

    Geometry (in Angstrom), charge = 0, multiplicity = 6:

       Center              X                  Y                   Z               Mass
    ------------   -----------------  -----------------  -----------------  -----------------
         C            0.000000000000     0.000000000000     0.948906468290    12.000000000000
         N            0.000000000000     0.000000000000    -0.813169852268    14.003074004430

  Nuclear repulsion =   12.613212372715878

  ==> Basis Set <==

  Basis Set: CC-PVDZ
    Blend: CC-PVDZ
    Number of shells: 12
    Number of basis functions: 28
    Number of Cartesian functions: 30
    Spherical Harmonics?: true
    Max angular momentum: 2

  ==> DFJKGrad: Density-Fitted SCF Gradients <==

    Gradient:                    1
    J tasked:                  Yes
    K tasked:                  Yes
    wK tasked:                  No
    OpenMP threads:              1
    Integrals threads:           1
    Memory [MiB]:              375
    Schwarz Cutoff:          1E-12
    Fitting Condition:       1E-10

   => Auxiliary Basis Set <=

  Basis Set: (CC-PVDZ AUX)
    Blend: CC-PVDZ-JKFIT
    Number of shells: 48
    Number of basis functions: 140
    Number of Cartesian functions: 162
    Spherical Harmonics?: true
    Max angular momentum: 3

  ==> DFT Potential <==

   => LibXC <=

    Version 6.2.2
    S. Lehtola, C. Steigemann, M. J.T. Oliveira, and M. A.L. Marques.,  SoftwareX 7, 1â€“5 (2018) (10.1016/j.softx.2017.11.002)

   => Composite Functional: B3LYP <=

    B3LYP Hyb-GGA Exchange-Correlation Functional

    P. J. Stephens, F. J. Devlin, C. F. Chabalowski, and M. J. Frisch.,  J. Phys. Chem. 98, 11623 (1994) (10.1021/j100096a001)

    Deriv               =              1
    GGA                 =           TRUE
    Meta                =          FALSE

    Exchange Hybrid     =           TRUE
    MP2 Hybrid          =          FALSE

   => Exchange Functionals <=

    0.0800   Slater exchange
    0.7200         Becke 88

   => Exact (HF) Exchange <=

    0.2000               HF

   => Correlation Functionals <=

    0.1900   Vosko, Wilk & Nusair (VWN5_RPA)
    0.8100   Lee, Yang & Parr

   => LibXC Density Thresholds  <==

    XC_HYB_GGA_XC_B3LYP:  1.00E-15

   => Molecular Quadrature <=

    Radial Scheme          =       TREUTLER
    Pruning Scheme         =           NONE
    Nuclear Scheme         =       TREUTLER

    Blocking Scheme        =         OCTREE
    BS radius alpha        =              1
    Pruning alpha          =              1
    Radial Points          =             75
    Spherical Points       =            302
    Total Points           =          42748
    Total Blocks           =            389
    Max Points             =            254
    Max Functions          =             28
    Weights Tolerance      =       1.00E-15

  -Total Gradient:
     Atom            X                  Y                   Z
    ------   -----------------  -----------------  -----------------
       1        0.000000000000     0.000000000000    -0.000059435794
       2        0.000000000000     0.000000000000     0.000061411557

*** tstop() called on Joses-MacBook-Pro-2.local at Wed Jul 16 18:59:44 2025
Module time:
	user time   =       0.42 seconds =       0.01 minutes
	system time =       1.24 seconds =       0.02 minutes
	total time  =          0 seconds =       0.00 minutes
Total time:
	user time   =      49.29 seconds =       0.82 minutes
	system time =      56.00 seconds =       0.93 minutes
	total time  =         10 seconds =       0.17 minutes

    			-----------------------------------------

    			 OPTKING 3.0: for geometry optimizations

    			     By R.A. King, Bethel University

    			        with contributions from

    			    A.V. Copan, J. Cayton, A. Heide

    			-----------------------------------------

	                            ===> Fragment 1 <==

	 Z (Atomic Numbers)          Masses                          Geom
	       6.000000            12.000000          0.00000000  0.00000000  1.79317334
	       7.000000            14.003074          0.00000000  0.00000000 -1.53666831

	 - Coordinate -           - BOHR/RAD -       - ANG/DEG -
	 R(1,2)           =         3.329842           1.762076

	        --- Internal Coordinate Step in ANG or DEG, aJ/ANG or AJ/DEG ---
	-------------------------------------------------------------------------------
	           Coordinate      Previous         Force          Change          New
	           ----------      --------        ------          ------        ------
	               R(1,2)       1.76208        0.00050        0.00055       1.76263
	-------------------------------------------------------------------------------

	                                 ==> Convergence Check <==

	Measures of convergence in internal coordinates in au.

	Criteria marked as inactive (o), active & met (*), and active & unmet ( ).

	----------------------------------------------------------------------------------------------
	   Step    Total Energy     Delta E     Max Force     RMS Force      Max Disp      RMS Disp
	----------------------------------------------------------------------------------------------
	  Convergence Criteria     1.00e-06 *    3.00e-04 *             o    1.20e-03 *             o
	----------------------------------------------------------------------------------------------
	    12     -92.45142749   -5.50e-07 *    6.04e-05 *    6.04e-05 o    1.04e-03 *    1.04e-03 o  ~
	----------------------------------------------------------------------------------------------

Next Geometry in Ang
	Fragment 1 (Ang)

	    C   0.0000000000   0.0000000000   0.9491822045
	    N   0.0000000000   0.0000000000  -0.8134455885

    Final optimized geometry and variables:
    Molecular point group: c2v
    Full point group: C_inf_v

    Geometry (in Angstrom), charge = 0, multiplicity = 6:

    C            0.000000000000     0.000000000000     0.948906468290
    N            0.000000000000     0.000000000000    -0.813169852268

    Psi4 stopped on: Wednesday, 16 July 2025 06:59PM
    Psi4 wall time for execution: 0:00:10.49

*** Psi4 exiting successfully. Buy a developer a beer!
