                               Psi4 1.9.1 release

  ==> Input File <==

--------------------------------------------------------------------------
molecule {
0 6
Al   0.00000        0.60000        0.00000
S   0.00000       -0.60000        0.00000
}

set {
basis              cc-pvdz
reference          uks
maxiter            500
geom_maxiter       500
DAMPING_PERCENTAGE 1
guess              SAP
}

optimize('b3lyp')
--------------------------------------------------------------------------

    Molecular point group: c2v
  Charge       = 0
  Multiplicity = 6
  Basis Set: CC-PVDZ
    Blend: CC-PVDZ
  Basis Set: (CC-PVDZ AUX)
    Blend: CC-PVDZ-JKFIT
  @DF-UKS Final Energy:  -638.95101053461246
    Total Energy =                       -638.9510105346124647
 Dipole X            :          0.0000000            0.0000000            0.0000000
 Dipole Y            :          0.0000000            0.0000000            0.0000000
 Dipole Z            :         -1.5618901           -0.6180494           -2.1799395
 Magnitude           :                                                    2.1799395
    Molecular point group: c2v
  Basis Set: CC-PVDZ
    Blend: CC-PVDZ
  Basis Set: (CC-PVDZ AUX)
    Blend: CC-PVDZ-JKFIT
  Basis Set: CC-PVDZ
    Blend: CC-PVDZ
  Basis Set: (CC-PVDZ AUX)
    Blend: CC-PVDZ-JKFIT
  @DF-UKS Final Energy:  -638.97934858027827
    Total Energy =                       -638.9793485802782698
  Basis Set: CC-PVDZ
    Blend: CC-PVDZ
  Basis Set: (CC-PVDZ AUX)
    Blend: CC-PVDZ-JKFIT
  Basis Set: CC-PVDZ
    Blend: CC-PVDZ
  @DF-UKS Final Energy:  -639.03340500700438
    Total Energy =                       -639.0334050070044896
  @DF-UKS Final Energy:  -639.22254959444717
    Total Energy =                       -639.2225495944471731
  @DF-UKS Final Energy:  -639.84662115643096
    Total Energy =                       -639.8466211564309560
  @DF-UKS Final Energy:  -640.07744666764256
    Total Energy =                       -640.0774466676425618
  @DF-UKS Final Energy:  -640.20716173814480
    Total Energy =                       -640.2071617381448050
  @DF-UKS Final Energy:  -640.27685880621902
    Total Energy =                       -640.2768588062190247
  @DF-UKS Final Energy:  -640.31602432608054
    Total Energy =                       -640.3160243260804236
  @DF-UKS Final Energy:  -640.33831190384717
    Total Energy =                       -640.3383119038472842
  @DF-UKS Final Energy:  -640.35106830926395
    Total Energy =                       -640.3510683092639511
  @DF-UKS Final Energy:  -640.35829783635984
    Total Energy =                       -640.3582978363598386
  @DF-UKS Final Energy:  -640.36236057606231
    Total Energy =                       -640.3623605760624287
  @DF-UKS Final Energy:  -640.36465095359756
    Total Energy =                       -640.3646509535975611
  @DF-UKS Final Energy:  -640.36595934652576
    Total Energy =                       -640.3659593465256421
  @DF-UKS Final Energy:  -640.36671498796898
    Total Energy =                       -640.3667149879690896
  @DF-UKS Final Energy:  -640.36716461688536
    Total Energy =                       -640.3671646168853613
  @DF-UKS Final Energy:  -640.36745132172314
    Total Energy =                       -640.3674513217230242
  @DF-UKS Final Energy:  -640.36765096972294
    Total Energy =                       -640.3676509697229449
  @DF-UKS Final Energy:  -640.36765119308541
    Total Energy =                       -640.3676511930854076
  Basis Set: (CC-PVDZ AUX)
    Blend: CC-PVDZ-JKFIT
  Basis Set: CC-PVDZ
    Blend: CC-PVDZ
  Basis Set: (CC-PVDZ AUX)
    Blend: CC-PVDZ-JKFIT
  @DF-UKS Final Energy:  -640.36765141537387
    Total Energy =                       -640.3676514153738708
  Basis Set: CC-PVDZ
    Blend: CC-PVDZ
  Basis Set: (CC-PVDZ AUX)
    Blend: CC-PVDZ-JKFIT
  Charge       = 0
  Multiplicity = 6
  Basis Set: CC-PVDZ
    Blend: CC-PVDZ
  Basis Set: (CC-PVDZ AUX)
    Blend: CC-PVDZ-JKFIT

    Orbital Energies [Eh]
    ---------------------

    Alpha Occupied:

       1A1   -88.939524     2A1   -56.123247     3A1    -7.997794
       4A1    -5.967085     1B2    -5.967004     1B1    -5.947201
       5A1    -4.203316     6A1    -2.758862     2B2    -2.754850
       2B1    -2.754839     7A1    -0.728946     8A1    -0.373471
       9A1    -0.338274     3B2    -0.337178     3B1    -0.288622
       4B2    -0.163379     4B1    -0.163067

    Alpha Virtual:

      10A1    -0.105467    11A1     0.139377     5B2     0.187892
       5B1     0.188498    12A1     0.194972    13A1     0.219555
       1A2     0.219555     6B2     0.223437     6B1     0.223746
      14A1     0.228766    15A1     0.442499     7B2     0.449505
       7B1     0.480298    16A1     0.499198     8B2     0.513561
      17A1     0.529590     8B1     0.552169     2A2     0.552522
      18A1     0.569450

    Beta Occupied:

       1A1   -88.928745     2A1   -56.114125     3A1    -7.986792
       4A1    -5.945819     1B2    -5.945601     1B1    -5.940679
       5A1    -4.190050     6A1    -2.751111     2B2    -2.739665
       2B1    -2.739640     7A1    -0.636208     3B1    -0.261838

    Beta Virtual:

       8A1    -0.213170     9A1    -0.182027     3B2    -0.179688
      10A1    -0.043450     4B1    -0.019656     4B2    -0.016784
      11A1     0.187761    12A1     0.225628     5B1     0.248617
       5B2     0.250708    13A1     0.297924     6B1     0.311621
       6B2     0.312560     1A2     0.334338    14A1     0.334944
      15A1     0.482301     7B1     0.493323     7B2     0.499338
      16A1     0.555692     8B1     0.609131     2A2     0.609801
      17A1     0.613986     8B2     0.621273    18A1     0.627686

    Final Occupation by Irrep:
             A1    A2    B1    B2
    DOCC [     7,    0,    3,    2 ]
    SOCC [     2,    0,    1,    2 ]
    NA   [     9,    0,    4,    4 ]
    NB   [     7,    0,    3,    2 ]

  @DF-UKS Final Energy:  -640.36765163748782

   => Energetics <=

    Nuclear Repulsion Energy =             24.4057124632418301
    One-Electron Energy =                -934.1960374515595049
    Two-Electron Energy =                 305.0430122639411366
    DFT Exchange-Correlation Energy =     -35.6203389131112402
    Empirical Dispersion Energy =           0.0000000000000000
    VV10 Nonlocal Energy =                  0.0000000000000000
    Total Energy =                       -640.3676516374878247

  UHF NO Occupations:
  HONO-2 :    4 B1 1.0000000
  HONO-1 :    9 A1 1.0000000
  HONO-0 :    4 B2 1.0000000
  LUNO+0 :   10 A1 0.0010144
  LUNO+1 :    5 B1 0.0001041
  LUNO+2 :   11 A1 0.0000009
  LUNO+3 :    5 B2 0.0000002

Computation Completed

Properties will be evaluated at   0.000000,   0.000000,   0.000000 [a0]

Properties computed using the SCF density matrix

 Multipole Moments:

 ------------------------------------------------------------------------------------
     Multipole            Electronic (a.u.)      Nuclear  (a.u.)        Total (a.u.)
 ------------------------------------------------------------------------------------

 L = 1.  Multiply by 2.5417464519 to convert [e a0] to [Debye]
 Dipole X            :          0.0000000            0.0000000            0.0000000
 Dipole Y            :          0.0000000            0.0000000            0.0000000
 Dipole Z            :          2.2712832           -2.3228166           -0.0515334
 Magnitude           :                                                    0.0515334

 ------------------------------------------------------------------------------------

*** tstop() called on Joses-MacBook-Pro-2.local at Wed Jul 16 20:09:22 2025
Module time:
	user time   =       3.66 seconds =       0.06 minutes
	system time =       2.38 seconds =       0.04 minutes
	total time  =          0 seconds =       0.00 minutes
Total time:
	user time   =     231.66 seconds =       3.86 minutes
	system time =      71.40 seconds =       1.19 minutes
	total time  =         28 seconds =       0.47 minutes

*** tstart() called on Joses-MacBook-Pro-2.local
*** at Wed Jul 16 20:09:22 2025

         ------------------------------------------------------------
                                   SCF GRAD
                          Rob Parrish, Justin Turney,
                       Andy Simmonett, and Alex Sokolov
         ------------------------------------------------------------

  ==> Geometry <==

    Molecular point group: c2v
    Full point group: C_inf_v

    Geometry (in Angstrom), charge = 0, multiplicity = 6:

       Center              X                  Y                   Z               Mass
    ------------   -----------------  -----------------  -----------------  -----------------
         AL           0.000000000000     0.000000000000     2.445869867122    26.981538530000
         S            0.000000000000     0.000000000000    -2.064093117369    31.972071174400

  Nuclear repulsion =   24.405712463241830

  ==> Basis Set <==

  Basis Set: CC-PVDZ
    Blend: CC-PVDZ
    Number of shells: 16
    Number of basis functions: 36
    Number of Cartesian functions: 38
    Spherical Harmonics?: true
    Max angular momentum: 2

  ==> DFJKGrad: Density-Fitted SCF Gradients <==

    Gradient:                    1
    J tasked:                  Yes
    K tasked:                  Yes
    wK tasked:                  No
    OpenMP threads:              1
    Integrals threads:           1
    Memory [MiB]:              375
    Schwarz Cutoff:          1E-12
    Fitting Condition:       1E-10

   => Auxiliary Basis Set <=

  Basis Set: (CC-PVDZ AUX)
    Blend: CC-PVDZ-JKFIT
    Number of shells: 72
    Number of basis functions: 224
    Number of Cartesian functions: 260
    Spherical Harmonics?: true
    Max angular momentum: 3

  ==> DFT Potential <==

   => LibXC <=

    Version 6.2.2
    S. Lehtola, C. Steigemann, M. J.T. Oliveira, and M. A.L. Marques.,  SoftwareX 7, 1â€“5 (2018) (10.1016/j.softx.2017.11.002)

   => Composite Functional: B3LYP <=

    B3LYP Hyb-GGA Exchange-Correlation Functional

    P. J. Stephens, F. J. Devlin, C. F. Chabalowski, and M. J. Frisch.,  J. Phys. Chem. 98, 11623 (1994) (10.1021/j100096a001)

    Deriv               =              1
    GGA                 =           TRUE
    Meta                =          FALSE

    Exchange Hybrid     =           TRUE
    MP2 Hybrid          =          FALSE

   => Exchange Functionals <=

    0.0800   Slater exchange
    0.7200         Becke 88

   => Exact (HF) Exchange <=

    0.2000               HF

   => Correlation Functionals <=

    0.1900   Vosko, Wilk & Nusair (VWN5_RPA)
    0.8100   Lee, Yang & Parr

   => LibXC Density Thresholds  <==

    XC_HYB_GGA_XC_B3LYP:  1.00E-15

   => Molecular Quadrature <=

    Radial Scheme          =       TREUTLER
    Pruning Scheme         =           NONE
    Nuclear Scheme         =       TREUTLER

    Blocking Scheme        =         OCTREE
    BS radius alpha        =              1
    Pruning alpha          =              1
    Radial Points          =             75
    Spherical Points       =            302
    Total Points           =          42829
    Total Blocks           =            448
    Max Points             =            256
    Max Functions          =             36
    Weights Tolerance      =       1.00E-15

  -Total Gradient:
     Atom            X                  Y                   Z
    ------   -----------------  -----------------  -----------------
       1        0.000000000000     0.000000000000    -0.000297675952
       2        0.000000000000     0.000000000000     0.000302230517

*** tstop() called on Joses-MacBook-Pro-2.local at Wed Jul 16 20:09:23 2025
Module time:
	user time   =       1.61 seconds =       0.03 minutes
	system time =       1.59 seconds =       0.03 minutes
	total time  =          1 seconds =       0.02 minutes
Total time:
	user time   =     233.28 seconds =       3.89 minutes
	system time =      72.99 seconds =       1.22 minutes
	total time  =         29 seconds =       0.48 minutes

    			-----------------------------------------

    			 OPTKING 3.0: for geometry optimizations

    			     By R.A. King, Bethel University

    			        with contributions from

    			    A.V. Copan, J. Cayton, A. Heide

    			-----------------------------------------

	                            ===> Fragment 1 <==

	 Z (Atomic Numbers)          Masses                          Geom
	      13.000000            26.981539          0.00000000  0.00000000  4.62202419
	      16.000000            31.972071          0.00000000  0.00000000 -3.90057069

	 - Coordinate -           - BOHR/RAD -       - ANG/DEG -
	 R(1,2)           =         8.522595           4.509963

	        --- Internal Coordinate Step in ANG or DEG, aJ/ANG or AJ/DEG ---
	-------------------------------------------------------------------------------
	           Coordinate      Previous         Force          Change          New
	           ----------      --------        ------          ------        ------
	               R(1,2)       4.50996        0.00247        0.00040       4.51036
	-------------------------------------------------------------------------------

	                                 ==> Convergence Check <==

	Measures of convergence in internal coordinates in au.

	Criteria marked as inactive (o), active & met (*), and active & unmet ( ).

	----------------------------------------------------------------------------------------------
	   Step    Total Energy     Delta E     Max Force     RMS Force      Max Disp      RMS Disp
	----------------------------------------------------------------------------------------------
	  Convergence Criteria     1.00e-06 *    3.00e-04 *             o    1.20e-03 *             o
	----------------------------------------------------------------------------------------------
	    22    -640.36765164   -2.22e-07 *    3.00e-04 *    3.00e-04 o    7.52e-04 *    7.52e-04 o  ~
	----------------------------------------------------------------------------------------------

Next Geometry in Ang
	Fragment 1 (Ang)

	   Al   0.0000000000   0.0000000000   2.4460687449
	    S   0.0000000000   0.0000000000  -2.0642919952

    Final optimized geometry and variables:
    Molecular point group: c2v
    Full point group: C_inf_v

    Geometry (in Angstrom), charge = 0, multiplicity = 6:

    AL           0.000000000000     0.000000000000     2.445869867122
    S            0.000000000000     0.000000000000    -2.064093117369

    Psi4 stopped on: Wednesday, 16 July 2025 08:09PM
    Psi4 wall time for execution: 0:00:29.64

*** Psi4 exiting successfully. Buy a developer a beer!
