                               Psi4 1.9.1 release

  ==> Input File <==

--------------------------------------------------------------------------
molecule {
0 6
O   0.00000        0.60000        0.00000
P   0.00000       -0.60000        0.00000
}

set {
basis              cc-pvdz
reference          uks
maxiter            500
geom_maxiter       500
DAMPING_PERCENTAGE 1
guess              SAP
}

optimize('b3lyp')
--------------------------------------------------------------------------

    Molecular point group: c2v
  Charge       = 0
  Multiplicity = 6
  Basis Set: CC-PVDZ
    Blend: CC-PVDZ
  Basis Set: (CC-PVDZ AUX)
    Blend: CC-PVDZ-JKFIT
  @DF-UKS Final Energy:  -415.71876623768276
    Total Energy =                       -415.7187662376827575
 Dipole X            :          0.0000000            0.0000000            0.0000000
 Dipole Y            :          0.0000000            0.0000000            0.0000000
 Dipole Z            :         -0.1714508            0.3797926            0.2083418
 Magnitude           :                                                    0.2083418
    Molecular point group: c2v
  Basis Set: CC-PVDZ
    Blend: CC-PVDZ
  Basis Set: (CC-PVDZ AUX)
    Blend: CC-PVDZ-JKFIT
  Basis Set: CC-PVDZ
    Blend: CC-PVDZ
  Basis Set: (CC-PVDZ AUX)
    Blend: CC-PVDZ-JKFIT
  @DF-UKS Final Energy:  -415.95318400888715
    Total Energy =                       -415.9531840088871490
  Basis Set: CC-PVDZ
    Blend: CC-PVDZ
  Basis Set: (CC-PVDZ AUX)
    Blend: CC-PVDZ-JKFIT
  Basis Set: CC-PVDZ
    Blend: CC-PVDZ
  @DF-UKS Final Energy:  -416.07624535874123
    Total Energy =                       -416.0762453587412324
  @DF-UKS Final Energy:  -416.15756277950749
    Total Energy =                       -416.1575627795074865
  @DF-UKS Final Energy:  -416.23188756998201
    Total Energy =                       -416.2318875699819500
  @DF-UKS Final Energy:  -416.28923787535734
    Total Energy =                       -416.2892378753573439
  @DF-UKS Final Energy:  -416.29804919810402
    Total Energy =                       -416.2980491981040245
  @DF-UKS Final Energy:  -416.32366758036903
    Total Energy =                       -416.3236675803690332
  @DF-UKS Final Energy:  -416.32577302412915
    Total Energy =                       -416.3257730241291483
  @DF-UKS Final Energy:  -416.33628809127583
    Total Energy =                       -416.3362880912758328
  @DF-UKS Final Energy:  -416.34037417959291
    Total Energy =                       -416.3403741795929136
  @DF-UKS Final Energy:  -416.34260471800553
    Total Energy =                       -416.3426047180055889
  @DF-UKS Final Energy:  -416.34372236952004
    Total Energy =                       -416.3437223695199805
  @DF-UKS Final Energy:  -416.34429398731959
    Total Energy =                       -416.3442939873196451
  @DF-UKS Final Energy:  -416.34458720925443
    Total Energy =                       -416.3445872092544278
  @DF-UKS Final Energy:  -416.34474073709094
    Total Energy =                       -416.3447407370908877
  @DF-UKS Final Energy:  -416.34482287278519
    Total Energy =                       -416.3448228727852438
  @DF-UKS Final Energy:  -416.34486921418875
    Total Energy =                       -416.3448692141887477
  @DF-UKS Final Energy:  -416.34489782576270
    Total Energy =                       -416.3448978257627004
  @DF-UKS Final Energy:  -416.34491635176795
    Total Energy =                       -416.3449163517679494
  Basis Set: (CC-PVDZ AUX)
    Blend: CC-PVDZ-JKFIT
  Basis Set: CC-PVDZ
    Blend: CC-PVDZ
  Basis Set: (CC-PVDZ AUX)
    Blend: CC-PVDZ-JKFIT
  @DF-UKS Final Energy:  -416.34493040683702
    Total Energy =                       -416.3449304068370225
  Basis Set: CC-PVDZ
    Blend: CC-PVDZ
  Basis Set: (CC-PVDZ AUX)
    Blend: CC-PVDZ-JKFIT
  Charge       = 0
  Multiplicity = 6
  Basis Set: CC-PVDZ
    Blend: CC-PVDZ
  Basis Set: (CC-PVDZ AUX)
    Blend: CC-PVDZ-JKFIT

    Orbital Energies [Eh]
    ---------------------

    Alpha Occupied:

       1A1   -77.116898     2A1   -19.272600     3A1    -6.585062
       4A1    -4.748478     1B1    -4.748477     1B2    -4.748476
       5A1    -1.003365     6A1    -0.595824     2B1    -0.441436
       7A1    -0.441431     2B2    -0.364707     8A1    -0.256516
       3B1    -0.256454     3B2    -0.256426

    Alpha Virtual:

       9A1     0.330976    10A1     0.400669     4B1     0.400822
       4B2     0.400872    11A1     0.432579     5B1     0.432595
       5B2     0.432613    12A1     0.432643     1A2     0.432644
       6B1     0.818236    13A1     0.818379     6B2     0.865969
      14A1     1.072493     7B1     2.441883    15A1     2.441902
       2A2     2.500297     7B2     2.500319    16A1     2.520969

    Beta Occupied:

       1A1   -77.104674     2A1   -19.222766     3A1    -6.572135
       4A1    -4.729367     1B1    -4.729362     1B2    -4.729360
       5A1    -0.845140     6A1    -0.479045     2B2    -0.313228

    Beta Virtual:

       7A1    -0.159978     2B1    -0.159958     8A1    -0.109502
       3B1    -0.109442     3B2    -0.109407     9A1     0.374924
      10A1     0.450500     4B1     0.450626     4B2     0.450675
      11A1     0.529578     5B1     0.529594     5B2     0.529615
      12A1     0.529649     1A2     0.529651     6B2     0.895841
       6B1     0.932437    13A1     0.932538    14A1     1.154220
       2A2     2.591176     7B2     2.591197    15A1     2.598476
       7B1     2.615579    16A1     2.615594

    Final Occupation by Irrep:
             A1    A2    B1    B2
    DOCC [     6,    0,    1,    2 ]
    SOCC [     2,    0,    2,    1 ]
    NA   [     8,    0,    3,    3 ]
    NB   [     6,    0,    1,    2 ]

  @DF-UKS Final Energy:  -416.34493991093325

   => Energetics <=

    Nuclear Repulsion Energy =             12.0162239213302300
    One-Electron Energy =                -598.9398885150596925
    Two-Electron Energy =                 196.1079586716224412
    DFT Exchange-Correlation Energy =     -25.5292339888262383
    Empirical Dispersion Energy =           0.0000000000000000
    VV10 Nonlocal Energy =                  0.0000000000000000
    Total Energy =                       -416.3449399109332489

  UHF NO Occupations:
  HONO-2 :    3 B2 1.0000000
  HONO-1 :    3 B1 1.0000000
  HONO-0 :    8 A1 1.0000000
  LUNO+0 :    9 A1 0.0007061
  LUNO+1 :    4 B2 0.0002398
  LUNO+2 :   10 A1 0.0000885
  LUNO+3 :   11 A1 0.0000001

Computation Completed

Properties will be evaluated at   0.000000,   0.000000,   0.000000 [a0]

Properties computed using the SCF density matrix

 Multipole Moments:

 ------------------------------------------------------------------------------------
     Multipole            Electronic (a.u.)      Nuclear  (a.u.)        Total (a.u.)
 ------------------------------------------------------------------------------------

 L = 1.  Multiply by 2.5417464519 to convert [e a0] to [Debye]
 Dipole X            :          0.0000000            0.0000000            0.0000000
 Dipole Y            :          0.0000000            0.0000000            0.0000000
 Dipole Z            :         -1.6741107            1.6725521           -0.0015587
 Magnitude           :                                                    0.0015587

 ------------------------------------------------------------------------------------

*** tstop() called on Joses-MacBook-Pro-2.local at Wed Jul 16 19:22:33 2025
Module time:
	user time   =       2.52 seconds =       0.04 minutes
	system time =       2.38 seconds =       0.04 minutes
	total time  =          1 seconds =       0.02 minutes
Total time:
	user time   =      93.61 seconds =       1.56 minutes
	system time =     114.61 seconds =       1.91 minutes
	total time  =         20 seconds =       0.33 minutes

*** tstart() called on Joses-MacBook-Pro-2.local
*** at Wed Jul 16 19:22:33 2025

         ------------------------------------------------------------
                                   SCF GRAD
                          Rob Parrish, Justin Turney,
                       Andy Simmonett, and Alex Sokolov
         ------------------------------------------------------------

  ==> Geometry <==

    Molecular point group: c2v
    Full point group: C_inf_v

    Geometry (in Angstrom), charge = 0, multiplicity = 6:

       Center              X                  Y                   Z               Mass
    ------------   -----------------  -----------------  -----------------  -----------------
         O            0.000000000000     0.000000000000     3.484977666125    15.994914619570
         P            0.000000000000     0.000000000000    -1.799649659077    30.973761998420

  Nuclear repulsion =   12.016223921330230

  ==> Basis Set <==

  Basis Set: CC-PVDZ
    Blend: CC-PVDZ
    Number of shells: 14
    Number of basis functions: 32
    Number of Cartesian functions: 34
    Spherical Harmonics?: true
    Max angular momentum: 2

  ==> DFJKGrad: Density-Fitted SCF Gradients <==

    Gradient:                    1
    J tasked:                  Yes
    K tasked:                  Yes
    wK tasked:                  No
    OpenMP threads:              1
    Integrals threads:           1
    Memory [MiB]:              375
    Schwarz Cutoff:          1E-12
    Fitting Condition:       1E-10

   => Auxiliary Basis Set <=

  Basis Set: (CC-PVDZ AUX)
    Blend: CC-PVDZ-JKFIT
    Number of shells: 60
    Number of basis functions: 182
    Number of Cartesian functions: 211
    Spherical Harmonics?: true
    Max angular momentum: 3

  ==> DFT Potential <==

   => LibXC <=

    Version 6.2.2
    S. Lehtola, C. Steigemann, M. J.T. Oliveira, and M. A.L. Marques.,  SoftwareX 7, 1â€“5 (2018) (10.1016/j.softx.2017.11.002)

   => Composite Functional: B3LYP <=

    B3LYP Hyb-GGA Exchange-Correlation Functional

    P. J. Stephens, F. J. Devlin, C. F. Chabalowski, and M. J. Frisch.,  J. Phys. Chem. 98, 11623 (1994) (10.1021/j100096a001)

    Deriv               =              1
    GGA                 =           TRUE
    Meta                =          FALSE

    Exchange Hybrid     =           TRUE
    MP2 Hybrid          =          FALSE

   => Exchange Functionals <=

    0.0800   Slater exchange
    0.7200         Becke 88

   => Exact (HF) Exchange <=

    0.2000               HF

   => Correlation Functionals <=

    0.1900   Vosko, Wilk & Nusair (VWN5_RPA)
    0.8100   Lee, Yang & Parr

   => LibXC Density Thresholds  <==

    XC_HYB_GGA_XC_B3LYP:  1.00E-15

   => Molecular Quadrature <=

    Radial Scheme          =       TREUTLER
    Pruning Scheme         =           NONE
    Nuclear Scheme         =       TREUTLER

    Blocking Scheme        =         OCTREE
    BS radius alpha        =              1
    Pruning alpha          =              1
    Radial Points          =             75
    Spherical Points       =            302
    Total Points           =          42424
    Total Blocks           =            436
    Max Points             =            256
    Max Functions          =             32
    Weights Tolerance      =       1.00E-15

  -Total Gradient:
     Atom            X                  Y                   Z
    ------   -----------------  -----------------  -----------------
       1        0.000000000000    -0.000000000000    -0.000010896386
       2        0.000000000000    -0.000000000000     0.000015909987

*** tstop() called on Joses-MacBook-Pro-2.local at Wed Jul 16 19:22:33 2025
Module time:
	user time   =       0.88 seconds =       0.01 minutes
	system time =       0.93 seconds =       0.02 minutes
	total time  =          0 seconds =       0.00 minutes
Total time:
	user time   =      94.50 seconds =       1.57 minutes
	system time =     115.55 seconds =       1.93 minutes
	total time  =         20 seconds =       0.33 minutes

    			-----------------------------------------

    			 OPTKING 3.0: for geometry optimizations

    			     By R.A. King, Bethel University

    			        with contributions from

    			    A.V. Copan, J. Cayton, A. Heide

    			-----------------------------------------

	                            ===> Fragment 1 <==

	 Z (Atomic Numbers)          Masses                          Geom
	       8.000000            15.994915          0.00000000  0.00000000  6.58565334
	      15.000000            30.973762          0.00000000  0.00000000 -3.40084498

	 - Coordinate -           - BOHR/RAD -       - ANG/DEG -
	 R(1,2)           =         9.986498           5.284627

	        --- Internal Coordinate Step in ANG or DEG, aJ/ANG or AJ/DEG ---
	-------------------------------------------------------------------------------
	           Coordinate      Previous         Force          Change          New
	           ----------      --------        ------          ------        ------
	               R(1,2)       5.28463        0.00011        0.00005       5.28467
	-------------------------------------------------------------------------------

	                                 ==> Convergence Check <==

	Measures of convergence in internal coordinates in au.

	Criteria marked as inactive (o), active & met (*), and active & unmet ( ).

	----------------------------------------------------------------------------------------------
	   Step    Total Energy     Delta E     Max Force     RMS Force      Max Disp      RMS Disp
	----------------------------------------------------------------------------------------------
	  Convergence Criteria     1.00e-06 *    3.00e-04 *             o    1.20e-03 *             o
	----------------------------------------------------------------------------------------------
	    22    -416.34493991   -9.50e-06      1.34e-05 *    1.34e-05 o    8.58e-05 *    8.58e-05 o  ~
	----------------------------------------------------------------------------------------------

Next Geometry in Ang
	Fragment 1 (Ang)

	    O   0.0000000000   0.0000000000   3.4850003739
	    P   0.0000000000   0.0000000000  -1.7996723668

    Final optimized geometry and variables:
    Molecular point group: c2v
    Full point group: C_inf_v

    Geometry (in Angstrom), charge = 0, multiplicity = 6:

    O            0.000000000000     0.000000000000     3.484977666125
    P            0.000000000000     0.000000000000    -1.799649659077

    Psi4 stopped on: Wednesday, 16 July 2025 07:22PM
    Psi4 wall time for execution: 0:00:20.63

*** Psi4 exiting successfully. Buy a developer a beer!
