                               Psi4 1.9.1 release

  ==> Input File <==

--------------------------------------------------------------------------
molecule {
0 6
B   0.00000        0.60000        0.00000
S   0.00000       -0.60000        0.00000
}

set {
basis              cc-pvdz
reference          uks
maxiter            500
geom_maxiter       500
DAMPING_PERCENTAGE 1
guess              SAP
}

optimize('b3lyp')
--------------------------------------------------------------------------

    Molecular point group: c2v
  Charge       = 0
  Multiplicity = 6
  Basis Set: CC-PVDZ
    Blend: CC-PVDZ
  Basis Set: (CC-PVDZ AUX)
    Blend: CC-PVDZ-JKFIT
  @DF-UKS Final Energy:  -422.11151982024245
    Total Energy =                       -422.1115198202424494
 Dipole X            :          0.0000000            0.0000000            0.0000000
 Dipole Y            :          0.0000000            0.0000000            0.0000000
 Dipole Z            :          0.0478928           -0.8593730           -0.8114801
 Magnitude           :                                                    0.8114801
    Molecular point group: c2v
  Basis Set: CC-PVDZ
    Blend: CC-PVDZ
  Basis Set: (CC-PVDZ AUX)
    Blend: CC-PVDZ-JKFIT
  Basis Set: CC-PVDZ
    Blend: CC-PVDZ
  Basis Set: (CC-PVDZ AUX)
    Blend: CC-PVDZ-JKFIT
  @DF-UKS Final Energy:  -422.44157833117146
    Total Energy =                       -422.4415783311715131
  Basis Set: CC-PVDZ
    Blend: CC-PVDZ
  Basis Set: (CC-PVDZ AUX)
    Blend: CC-PVDZ-JKFIT
  Basis Set: CC-PVDZ
    Blend: CC-PVDZ
  @DF-UKS Final Energy:  -422.58621681568036
    Total Energy =                       -422.5862168156803591
  @DF-UKS Final Energy:  -422.65678854344412
    Total Energy =                       -422.6567885434441223
  @DF-UKS Final Energy:  -422.68795304958269
    Total Energy =                       -422.6879530495826316
  @DF-UKS Final Energy:  -422.70050156773510
    Total Energy =                       -422.7005015677351025
  @DF-UKS Final Energy:  -422.70391270570650
    Total Energy =                       -422.7039127057064434
  @DF-UKS Final Energy:  -422.70533998733725
    Total Energy =                       -422.7053399873371973
  @DF-UKS Final Energy:  -422.70566031803185
    Total Energy =                       -422.7056603180318461
  @DF-UKS Final Energy:  -422.70574097171698
    Total Energy =                       -422.7057409717169207
  @DF-UKS Final Energy:  -422.70576694280220
    Total Energy =                       -422.7057669428021995
  Basis Set: (CC-PVDZ AUX)
    Blend: CC-PVDZ-JKFIT
  Basis Set: CC-PVDZ
    Blend: CC-PVDZ
  Basis Set: (CC-PVDZ AUX)
    Blend: CC-PVDZ-JKFIT
  @DF-UKS Final Energy:  -422.70577051372811
    Total Energy =                       -422.7057705137281118
  Basis Set: CC-PVDZ
    Blend: CC-PVDZ
  Basis Set: (CC-PVDZ AUX)
    Blend: CC-PVDZ-JKFIT
  Charge       = 0
  Multiplicity = 6
  Basis Set: CC-PVDZ
    Blend: CC-PVDZ
  Basis Set: (CC-PVDZ AUX)
    Blend: CC-PVDZ-JKFIT

    Orbital Energies [Eh]
    ---------------------

    Alpha Occupied:

       1A1   -89.031049     2A1    -8.087046     3A1    -6.776402
       1B1    -6.054889     1B2    -6.054889     4A1    -6.040639
       5A1    -0.821465     6A1    -0.464187     2B1    -0.410979
       2B2    -0.410979     7A1    -0.290548     3B2    -0.147384
       3B1    -0.147384

    Alpha Virtual:

       8A1     0.024966     9A1     0.255580     4B2     0.307351
       4B1     0.307351    10A1     0.357379    11A1     0.381579
       5B1     0.401853     5B2     0.401853     1A2     0.438731
      12A1     0.438731     6B1     0.452195     6B2     0.452195
      13A1     0.575973     2A2     0.711050    14A1     0.711050
      15A1     0.795112     7B1     0.883545     7B2     0.883545
      16A1     1.152345

    Beta Occupied:

       1A1   -89.018189     2A1    -8.073845     3A1    -6.744706
       1B1    -6.030951     1B2    -6.030951     4A1    -6.030320
       5A1    -0.719558     6A1    -0.397216

    Beta Virtual:

       2B1    -0.243439     2B2    -0.243439     7A1    -0.098783
       3B1     0.028951     3B2     0.028951     8A1     0.090311
       9A1     0.285196     4B2     0.388631     4B1     0.388631
      10A1     0.411730    11A1     0.442573     5B1     0.466509
       5B2     0.466509     6B1     0.520850     6B2     0.520850
       1A2     0.552724    12A1     0.552725    13A1     0.628319
      14A1     0.836235     2A2     0.836236    15A1     0.855343
       7B1     0.975977     7B2     0.975977    16A1     1.223103

    Final Occupation by Irrep:
             A1    A2    B1    B2
    DOCC [     6,    0,    1,    1 ]
    SOCC [     1,    0,    2,    2 ]
    NA   [     7,    0,    3,    3 ]
    NB   [     6,    0,    1,    1 ]

  @DF-UKS Final Energy:  -422.70577072647927

   => Energetics <=

    Nuclear Repulsion Energy =             20.4772701255138934
    One-Electron Energy =                -621.5837377007137547
    Two-Electron Energy =                 202.2590463197411452
    DFT Exchange-Correlation Energy =     -23.8583494710205066
    Empirical Dispersion Energy =           0.0000000000000000
    VV10 Nonlocal Energy =                  0.0000000000000000
    Total Energy =                       -422.7057707264792157

  UHF NO Occupations:
  HONO-2 :    2 B1 1.0000000
  HONO-1 :    3 B2 1.0000000
  HONO-0 :    3 B1 1.0000000
  LUNO+0 :    8 A1 0.0012471
  LUNO+1 :    9 A1 0.0003706
  LUNO+2 :   10 A1 0.0000002
  LUNO+3 :   11 A1 0.0000000

Computation Completed

Properties will be evaluated at   0.000000,   0.000000,   0.000000 [a0]

Properties computed using the SCF density matrix

 Multipole Moments:

 ------------------------------------------------------------------------------------
     Multipole            Electronic (a.u.)      Nuclear  (a.u.)        Total (a.u.)
 ------------------------------------------------------------------------------------

 L = 1.  Multiply by 2.5417464519 to convert [e a0] to [Debye]
 Dipole X            :          0.0000000            0.0000000            0.0000000
 Dipole Y            :          0.0000000            0.0000000            0.0000000
 Dipole Z            :         -0.0857893           -1.4805378           -1.5663271
 Magnitude           :                                                    1.5663271

 ------------------------------------------------------------------------------------

*** tstop() called on Joses-MacBook-Pro-2.local at Wed Jul 16 18:57:19 2025
Module time:
	user time   =       2.87 seconds =       0.05 minutes
	system time =       3.41 seconds =       0.06 minutes
	total time  =          1 seconds =       0.02 minutes
Total time:
	user time   =      85.48 seconds =       1.42 minutes
	system time =      69.40 seconds =       1.16 minutes
	total time  =         17 seconds =       0.28 minutes

*** tstart() called on Joses-MacBook-Pro-2.local
*** at Wed Jul 16 18:57:19 2025

         ------------------------------------------------------------
                                   SCF GRAD
                          Rob Parrish, Justin Turney,
                       Andy Simmonett, and Alex Sokolov
         ------------------------------------------------------------

  ==> Geometry <==

    Molecular point group: c2v
    Full point group: C_inf_v

    Geometry (in Angstrom), charge = 0, multiplicity = 6:

       Center              X                  Y                   Z               Mass
    ------------   -----------------  -----------------  -----------------  -----------------
         B            0.000000000000     0.000000000000     1.537834187059    11.009305360000
         S            0.000000000000     0.000000000000    -0.529539862026    31.972071174400

  Nuclear repulsion =   20.477270125513893

  ==> Basis Set <==

  Basis Set: CC-PVDZ
    Blend: CC-PVDZ
    Number of shells: 14
    Number of basis functions: 32
    Number of Cartesian functions: 34
    Spherical Harmonics?: true
    Max angular momentum: 2

  ==> DFJKGrad: Density-Fitted SCF Gradients <==

    Gradient:                    1
    J tasked:                  Yes
    K tasked:                  Yes
    wK tasked:                  No
    OpenMP threads:              1
    Integrals threads:           1
    Memory [MiB]:              375
    Schwarz Cutoff:          1E-12
    Fitting Condition:       1E-10

   => Auxiliary Basis Set <=

  Basis Set: (CC-PVDZ AUX)
    Blend: CC-PVDZ-JKFIT
    Number of shells: 60
    Number of basis functions: 182
    Number of Cartesian functions: 211
    Spherical Harmonics?: true
    Max angular momentum: 3

  ==> DFT Potential <==

   => LibXC <=

    Version 6.2.2
    S. Lehtola, C. Steigemann, M. J.T. Oliveira, and M. A.L. Marques.,  SoftwareX 7, 1â€“5 (2018) (10.1016/j.softx.2017.11.002)

   => Composite Functional: B3LYP <=

    B3LYP Hyb-GGA Exchange-Correlation Functional

    P. J. Stephens, F. J. Devlin, C. F. Chabalowski, and M. J. Frisch.,  J. Phys. Chem. 98, 11623 (1994) (10.1021/j100096a001)

    Deriv               =              1
    GGA                 =           TRUE
    Meta                =          FALSE

    Exchange Hybrid     =           TRUE
    MP2 Hybrid          =          FALSE

   => Exchange Functionals <=

    0.0800   Slater exchange
    0.7200         Becke 88

   => Exact (HF) Exchange <=

    0.2000               HF

   => Correlation Functionals <=

    0.1900   Vosko, Wilk & Nusair (VWN5_RPA)
    0.8100   Lee, Yang & Parr

   => LibXC Density Thresholds  <==

    XC_HYB_GGA_XC_B3LYP:  1.00E-15

   => Molecular Quadrature <=

    Radial Scheme          =       TREUTLER
    Pruning Scheme         =           NONE
    Nuclear Scheme         =       TREUTLER

    Blocking Scheme        =         OCTREE
    BS radius alpha        =              1
    Pruning alpha          =              1
    Radial Points          =             75
    Spherical Points       =            302
    Total Points           =          42024
    Total Blocks           =            386
    Max Points             =            256
    Max Functions          =             32
    Weights Tolerance      =       1.00E-15

  -Total Gradient:
     Atom            X                  Y                   Z
    ------   -----------------  -----------------  -----------------
       1        0.000000000000    -0.000000000000    -0.000023610594
       2       -0.000000000000     0.000000000000     0.000024806913

*** tstop() called on Joses-MacBook-Pro-2.local at Wed Jul 16 18:57:19 2025
Module time:
	user time   =       1.18 seconds =       0.02 minutes
	system time =       1.60 seconds =       0.03 minutes
	total time  =          0 seconds =       0.00 minutes
Total time:
	user time   =      86.66 seconds =       1.44 minutes
	system time =      71.01 seconds =       1.18 minutes
	total time  =         17 seconds =       0.28 minutes

    			-----------------------------------------

    			 OPTKING 3.0: for geometry optimizations

    			     By R.A. King, Bethel University

    			        with contributions from

    			    A.V. Copan, J. Cayton, A. Heide

    			-----------------------------------------

	                            ===> Fragment 1 <==

	 Z (Atomic Numbers)          Masses                          Geom
	       5.000000            11.009305          0.00000000  0.00000000  2.90608544
	      16.000000            31.972071          0.00000000  0.00000000 -1.00068531

	 - Coordinate -           - BOHR/RAD -       - ANG/DEG -
	 R(1,2)           =         3.906771           2.067374

	        --- Internal Coordinate Step in ANG or DEG, aJ/ANG or AJ/DEG ---
	-------------------------------------------------------------------------------
	           Coordinate      Previous         Force          Change          New
	           ----------      --------        ------          ------        ------
	               R(1,2)       2.06737        0.00020        0.00016       2.06753
	-------------------------------------------------------------------------------

	                                 ==> Convergence Check <==

	Measures of convergence in internal coordinates in au.

	Criteria marked as inactive (o), active & met (*), and active & unmet ( ).

	----------------------------------------------------------------------------------------------
	   Step    Total Energy     Delta E     Max Force     RMS Force      Max Disp      RMS Disp
	----------------------------------------------------------------------------------------------
	  Convergence Criteria     1.00e-06 *    3.00e-04 *             o    1.20e-03 *             o
	----------------------------------------------------------------------------------------------
	    13    -422.70577073   -2.13e-07 *    2.42e-05 *    2.42e-05 o    3.03e-04 *    3.03e-04 o  ~
	----------------------------------------------------------------------------------------------

Next Geometry in Ang
	Fragment 1 (Ang)

	    B   0.0000000000   0.0000000000   1.5379144727
	    S   0.0000000000   0.0000000000  -0.5296201477

    Final optimized geometry and variables:
    Molecular point group: c2v
    Full point group: C_inf_v

    Geometry (in Angstrom), charge = 0, multiplicity = 6:

    B            0.000000000000     0.000000000000     1.537834187059
    S            0.000000000000     0.000000000000    -0.529539862026

    Psi4 stopped on: Wednesday, 16 July 2025 06:57PM
    Psi4 wall time for execution: 0:00:18.32

*** Psi4 exiting successfully. Buy a developer a beer!
