                               Psi4 1.9.1 release

  ==> Input File <==

--------------------------------------------------------------------------
molecule {
0 6
S   0.00000        0.60000        0.00000
Cl   0.00000       -0.60000        0.00000
}

set {
basis              cc-pvdz
reference          uks
maxiter            500
geom_maxiter       500
DAMPING_PERCENTAGE 1
guess              SAP
}

optimize('b3lyp')
--------------------------------------------------------------------------

    Molecular point group: c2v
  Charge       = 0
  Multiplicity = 6
  Basis Set: CC-PVDZ
    Blend: CC-PVDZ
  Basis Set: (CC-PVDZ AUX)
    Blend: CC-PVDZ-JKFIT
  @DF-UKS Final Energy:  -856.34250381780112
    Total Energy =                       -856.3425038178011164
 Dipole X            :          0.0000000            0.0000000            0.0000000
 Dipole Y            :          0.0000000            0.0000000            0.0000000
 Dipole Z            :         -1.1744695            0.5412130           -0.6332564
 Magnitude           :                                                    0.6332564
    Molecular point group: c2v
  Basis Set: CC-PVDZ
    Blend: CC-PVDZ
  Basis Set: (CC-PVDZ AUX)
    Blend: CC-PVDZ-JKFIT
  Basis Set: CC-PVDZ
    Blend: CC-PVDZ
  Basis Set: (CC-PVDZ AUX)
    Blend: CC-PVDZ-JKFIT
  @DF-UKS Final Energy:  -856.38258953944023
    Total Energy =                       -856.3825895394403460
  Basis Set: CC-PVDZ
    Blend: CC-PVDZ
  Basis Set: (CC-PVDZ AUX)
    Blend: CC-PVDZ-JKFIT
  Basis Set: CC-PVDZ
    Blend: CC-PVDZ
  @DF-UKS Final Energy:  -856.45631502996036
    Total Energy =                       -856.4563150299602512
  @DF-UKS Final Energy:  -856.69128818158117
    Total Energy =                       -856.6912881815812852
  @DF-UKS Final Energy:  -857.22170212350875
    Total Energy =                       -857.2217021235087486
  @DF-UKS Final Energy:  -857.43067251643311
    Total Energy =                       -857.4306725164331056
  @DF-UKS Final Energy:  -857.55082582896387
    Total Energy =                       -857.5508258289637524
  @DF-UKS Final Energy:  -857.61010122211428
    Total Energy =                       -857.6101012221143947
  @DF-UKS Final Energy:  -857.63539355751846
    Total Energy =                       -857.6353935575183414
  @DF-UKS Final Energy:  -857.64365930085830
    Total Energy =                       -857.6436593008583031
  @DF-UKS Final Energy:  -857.64544847101820
    Total Energy =                       -857.6454484710183124
  @DF-UKS Final Energy:  -857.64617386619216
    Total Energy =                       -857.6461738661920435
  @DF-UKS Final Energy:  -857.64639651537891
    Total Energy =                       -857.6463965153787967
  @DF-UKS Final Energy:  -857.64649520812702
    Total Energy =                       -857.6464952081270212
  @DF-UKS Final Energy:  -857.64657410016423
    Total Energy =                       -857.6465741001641163
  @DF-UKS Final Energy:  -857.64663767080140
    Total Energy =                       -857.6466376708013968
  @DF-UKS Final Energy:  -857.64673011652678
    Total Energy =                       -857.6467301165267827
  @DF-UKS Final Energy:  -857.64764564511029
    Total Energy =                       -857.6476456451101740
  @DF-UKS Final Energy:  -857.67986723247657
    Total Energy =                       -857.6798672324765676
  @DF-UKS Final Energy:  -857.68101974524620
    Total Energy =                       -857.6810197452462035
  @DF-UKS Final Energy:  -857.70141462922254
    Total Energy =                       -857.7014146292226542
  @DF-UKS Final Energy:  -857.70164120441984
    Total Energy =                       -857.7016412044198432
  @DF-UKS Final Energy:  -857.70390866731896
    Total Energy =                       -857.7039086673188422
  Basis Set: (CC-PVDZ AUX)
    Blend: CC-PVDZ-JKFIT
  Basis Set: CC-PVDZ
    Blend: CC-PVDZ
  Basis Set: (CC-PVDZ AUX)
    Blend: CC-PVDZ-JKFIT
  @DF-UKS Final Energy:  -857.70393450227539
    Total Energy =                       -857.7039345022752741
  Basis Set: CC-PVDZ
    Blend: CC-PVDZ
  Basis Set: (CC-PVDZ AUX)
    Blend: CC-PVDZ-JKFIT
  Charge       = 0
  Multiplicity = 6
  Basis Set: CC-PVDZ
    Blend: CC-PVDZ
  Basis Set: (CC-PVDZ AUX)
    Blend: CC-PVDZ-JKFIT

    Orbital Energies [Eh]
    ---------------------

    Alpha Occupied:

       1A1  -101.521530     2A1   -89.007802     3A1    -9.440448
       4A1    -8.072742     5A1    -7.213232     1B1    -7.190754
       1B2    -7.190754     6A1    -6.035584     2B1    -6.034194
       2B2    -6.034194     7A1    -0.819123     8A1    -0.790522
       9A1    -0.401784     3B1    -0.399599     3B2    -0.399599
      10A1    -0.348531     4B2    -0.300481     4B1    -0.300481
      11A1     0.291099

    Alpha Virtual:

      12A1     0.379500     5B2     0.389778     5B1     0.389778
      13A1     0.452163     1A2     0.458609    14A1     0.458615
       6B1     0.462439     6B2     0.462439     7B1     0.577315
       7B2     0.577315    15A1     0.584505    16A1     0.678865
       8B2     0.722047     8B1     0.722047    17A1     0.755610
      18A1     0.761605     2A2     0.761613

    Beta Occupied:

       1A1  -101.513010     2A1   -88.985168     3A1    -9.431927
       4A1    -8.048759     5A1    -7.187229     1B1    -7.185351
       1B2    -7.185351     2B1    -6.003955     2B2    -6.003955
       6A1    -6.003461     7A1    -0.732309     8A1    -0.665774
       3B2    -0.281883     3B1    -0.281883

    Beta Virtual:

       9A1    -0.218061     4B1    -0.216382     4B2    -0.216382
      10A1    -0.175252    11A1     0.425747    12A1     0.452156
       5B2     0.463748     5B1     0.463748    13A1     0.563600
       6B1     0.572254     6B2     0.572254     1A2     0.576498
      14A1     0.576506     7B1     0.596876     7B2     0.596876
      15A1     0.625165    16A1     0.748806    17A1     0.772353
       2A2     0.772360     8B2     0.783098     8B1     0.783098
      18A1     0.827626

    Final Occupation by Irrep:
             A1    A2    B1    B2
    DOCC [     8,    0,    3,    3 ]
    SOCC [     3,    0,    1,    1 ]
    NA   [    11,    0,    4,    4 ]
    NB   [     8,    0,    3,    3 ]

  @DF-UKS Final Energy:  -857.70393458299861

   => Energetics <=

    Nuclear Repulsion Energy =             40.8883000893666519
    One-Electron Energy =               -1265.6317151873649891
    Two-Electron Energy =                 410.4144148980251998
    DFT Exchange-Correlation Energy =     -43.3749343830253764
    Empirical Dispersion Energy =           0.0000000000000000
    VV10 Nonlocal Energy =                  0.0000000000000000
    Total Energy =                       -857.7039345829986132

  UHF NO Occupations:
  HONO-2 :   10 A1 1.0000000
  HONO-1 :    4 B2 1.0000000
  HONO-0 :   11 A1 1.0000000
  LUNO+0 :   12 A1 0.0009120
  LUNO+1 :    5 B1 0.0000683
  LUNO+2 :    5 B2 0.0000683
  LUNO+3 :   13 A1 0.0000589

Computation Completed

Properties will be evaluated at   0.000000,   0.000000,   0.000000 [a0]

Properties computed using the SCF density matrix

 Multipole Moments:

 ------------------------------------------------------------------------------------
     Multipole            Electronic (a.u.)      Nuclear  (a.u.)        Total (a.u.)
 ------------------------------------------------------------------------------------

 L = 1.  Multiply by 2.5417464519 to convert [e a0] to [Debye]
 Dipole X            :          0.0000000            0.0000000            0.0000000
 Dipole Y            :          0.0000000            0.0000000            0.0000000
 Dipole Z            :          0.0173872            1.5876617            1.6050489
 Magnitude           :                                                    1.6050489

 ------------------------------------------------------------------------------------

*** tstop() called on Joses-MacBook-Pro-2.local at Wed Jul 16 20:30:27 2025
Module time:
	user time   =       6.46 seconds =       0.11 minutes
	system time =       2.41 seconds =       0.04 minutes
	total time  =          1 seconds =       0.02 minutes
Total time:
	user time   =     276.99 seconds =       4.62 minutes
	system time =      84.52 seconds =       1.41 minutes
	total time  =         34 seconds =       0.57 minutes

*** tstart() called on Joses-MacBook-Pro-2.local
*** at Wed Jul 16 20:30:27 2025

         ------------------------------------------------------------
                                   SCF GRAD
                          Rob Parrish, Justin Turney,
                       Andy Simmonett, and Alex Sokolov
         ------------------------------------------------------------

  ==> Geometry <==

    Molecular point group: c2v
    Full point group: C_inf_v

    Geometry (in Angstrom), charge = 0, multiplicity = 6:

       Center              X                  Y                   Z               Mass
    ------------   -----------------  -----------------  -----------------  -----------------
         S            0.000000000000     0.000000000000     1.838910798671    31.972071174400
         CL           0.000000000000     0.000000000000    -1.681318728789    34.968852682000

  Nuclear repulsion =   40.888300089366652

  ==> Basis Set <==

  Basis Set: CC-PVDZ
    Blend: CC-PVDZ
    Number of shells: 16
    Number of basis functions: 36
    Number of Cartesian functions: 38
    Spherical Harmonics?: true
    Max angular momentum: 2

  ==> DFJKGrad: Density-Fitted SCF Gradients <==

    Gradient:                    1
    J tasked:                  Yes
    K tasked:                  Yes
    wK tasked:                  No
    OpenMP threads:              1
    Integrals threads:           1
    Memory [MiB]:              375
    Schwarz Cutoff:          1E-12
    Fitting Condition:       1E-10

   => Auxiliary Basis Set <=

  Basis Set: (CC-PVDZ AUX)
    Blend: CC-PVDZ-JKFIT
    Number of shells: 72
    Number of basis functions: 224
    Number of Cartesian functions: 260
    Spherical Harmonics?: true
    Max angular momentum: 3

  ==> DFT Potential <==

   => LibXC <=

    Version 6.2.2
    S. Lehtola, C. Steigemann, M. J.T. Oliveira, and M. A.L. Marques.,  SoftwareX 7, 1â€“5 (2018) (10.1016/j.softx.2017.11.002)

   => Composite Functional: B3LYP <=

    B3LYP Hyb-GGA Exchange-Correlation Functional

    P. J. Stephens, F. J. Devlin, C. F. Chabalowski, and M. J. Frisch.,  J. Phys. Chem. 98, 11623 (1994) (10.1021/j100096a001)

    Deriv               =              1
    GGA                 =           TRUE
    Meta                =          FALSE

    Exchange Hybrid     =           TRUE
    MP2 Hybrid          =          FALSE

   => Exchange Functionals <=

    0.0800   Slater exchange
    0.7200         Becke 88

   => Exact (HF) Exchange <=

    0.2000               HF

   => Correlation Functionals <=

    0.1900   Vosko, Wilk & Nusair (VWN5_RPA)
    0.8100   Lee, Yang & Parr

   => LibXC Density Thresholds  <==

    XC_HYB_GGA_XC_B3LYP:  1.00E-15

   => Molecular Quadrature <=

    Radial Scheme          =       TREUTLER
    Pruning Scheme         =           NONE
    Nuclear Scheme         =       TREUTLER

    Blocking Scheme        =         OCTREE
    BS radius alpha        =              1
    Pruning alpha          =              1
    Radial Points          =             75
    Spherical Points       =            302
    Total Points           =          40392
    Total Blocks           =            378
    Max Points             =            254
    Max Functions          =             36
    Weights Tolerance      =       1.00E-15

  -Total Gradient:
     Atom            X                  Y                   Z
    ------   -----------------  -----------------  -----------------
       1        0.000000000000     0.000000000000    -0.000007236887
       2       -0.000000000000     0.000000000000    -0.000000854650

*** tstop() called on Joses-MacBook-Pro-2.local at Wed Jul 16 20:30:27 2025
Module time:
	user time   =       2.42 seconds =       0.04 minutes
	system time =       1.11 seconds =       0.02 minutes
	total time  =          0 seconds =       0.00 minutes
Total time:
	user time   =     279.42 seconds =       4.66 minutes
	system time =      85.63 seconds =       1.43 minutes
	total time  =         34 seconds =       0.57 minutes

    			-----------------------------------------

    			 OPTKING 3.0: for geometry optimizations

    			     By R.A. King, Bethel University

    			        with contributions from

    			    A.V. Copan, J. Cayton, A. Heide

    			-----------------------------------------

	                            ===> Fragment 1 <==

	 Z (Atomic Numbers)          Masses                          Geom
	      16.000000            31.972071          0.00000000  0.00000000  3.47503778
	      17.000000            34.968853          0.00000000  0.00000000 -3.17723193

	 - Coordinate -           - BOHR/RAD -       - ANG/DEG -
	 R(1,2)           =         6.652270           3.520230

	        --- Internal Coordinate Step in ANG or DEG, aJ/ANG or AJ/DEG ---
	-------------------------------------------------------------------------------
	           Coordinate      Previous         Force          Change          New
	           ----------      --------        ------          ------        ------
	               R(1,2)       3.52023        0.00003        0.00005       3.52028
	-------------------------------------------------------------------------------

	                                 ==> Convergence Check <==

	Measures of convergence in internal coordinates in au.

	Criteria marked as inactive (o), active & met (*), and active & unmet ( ).

	----------------------------------------------------------------------------------------------
	   Step    Total Energy     Delta E     Max Force     RMS Force      Max Disp      RMS Disp
	----------------------------------------------------------------------------------------------
	  Convergence Criteria     1.00e-06 *    3.00e-04 *             o    1.20e-03 *             o
	----------------------------------------------------------------------------------------------
	    25    -857.70393458   -8.07e-08 *    3.19e-06 *    3.19e-06 o    9.42e-05 *    9.42e-05 o  ~
	----------------------------------------------------------------------------------------------

Next Geometry in Ang
	Fragment 1 (Ang)

	    S   0.0000000000   0.0000000000   1.8389357327
	   Cl   0.0000000000   0.0000000000  -1.6813436628

    Final optimized geometry and variables:
    Molecular point group: c2v
    Full point group: C_inf_v

    Geometry (in Angstrom), charge = 0, multiplicity = 6:

    S            0.000000000000     0.000000000000     1.838910798671
    CL           0.000000000000     0.000000000000    -1.681318728789

    Psi4 stopped on: Wednesday, 16 July 2025 08:30PM
    Psi4 wall time for execution: 0:00:34.96

*** Psi4 exiting successfully. Buy a developer a beer!
