                               Psi4 1.9.1 release

  ==> Input File <==

--------------------------------------------------------------------------
molecule {
0 6
Li   0.00000        0.60000        0.00000
S   0.00000       -0.60000        0.00000
}

set {
basis              cc-pvdz
reference          uks
maxiter            500
geom_maxiter       500
DAMPING_PERCENTAGE 1
guess              SAP
}

optimize('b3lyp')
--------------------------------------------------------------------------

    Molecular point group: c2v
  Charge       = 0
  Multiplicity = 6
  Basis Set: CC-PVDZ
    Blend: CC-PVDZ
  Basis Set: (CC-PVDZ AUX)
    Blend: CC-PVDZ-JKFIT + DEF2-UNIVERSAL-JKFIT
  @DF-UKS Final Energy:  -404.76944616875733
    Total Energy =                       -404.7694461687572698
 Dipole X            :          0.0000000            0.0000000            0.0000000
 Dipole Y            :          0.0000000            0.0000000            0.0000000
 Dipole Z            :         -1.4429341           -0.9503775           -2.3933116
 Magnitude           :                                                    2.3933116
    Molecular point group: c2v
  Basis Set: CC-PVDZ
    Blend: CC-PVDZ
  Basis Set: (CC-PVDZ AUX)
    Blend: CC-PVDZ-JKFIT + DEF2-UNIVERSAL-JKFIT
  Basis Set: CC-PVDZ
    Blend: CC-PVDZ
  Basis Set: (CC-PVDZ AUX)
    Blend: CC-PVDZ-JKFIT + DEF2-UNIVERSAL-JKFIT
  @DF-UKS Final Energy:  -404.93913437655499
    Total Energy =                       -404.9391343765550459
  Basis Set: CC-PVDZ
    Blend: CC-PVDZ
  Basis Set: (CC-PVDZ AUX)
    Blend: CC-PVDZ-JKFIT + DEF2-UNIVERSAL-JKFIT
  Basis Set: CC-PVDZ
    Blend: CC-PVDZ
  @DF-UKS Final Energy:  -405.08719118739691
    Total Energy =                       -405.0871911873968543
  @DF-UKS Final Energy:  -405.18871760077258
    Total Energy =                       -405.1887176007725770
  @DF-UKS Final Energy:  -405.25024800644212
    Total Energy =                       -405.2502480064421775
  @DF-UKS Final Energy:  -405.28612145000108
    Total Energy =                       -405.2861214500010760
  @DF-UKS Final Energy:  -405.30973754701074
    Total Energy =                       -405.3097375470107409
  @DF-UKS Final Energy:  -405.32650154567392
    Total Energy =                       -405.3265015456739775
  @DF-UKS Final Energy:  -405.33793587047694
    Total Energy =                       -405.3379358704769402
  @DF-UKS Final Energy:  -405.33866600035833
    Total Energy =                       -405.3386660003583302
  @DF-UKS Final Energy:  -405.34416043543473
    Total Energy =                       -405.3441604354347305
  @DF-UKS Final Energy:  -405.34428592343113
    Total Energy =                       -405.3442859234311300
  @DF-UKS Final Energy:  -405.34545551056067
    Total Energy =                       -405.3454555105606687
  @DF-UKS Final Energy:  -405.34552530295895
    Total Energy =                       -405.3455253029589471
  Basis Set: (CC-PVDZ AUX)
    Blend: CC-PVDZ-JKFIT + DEF2-UNIVERSAL-JKFIT
  Basis Set: CC-PVDZ
    Blend: CC-PVDZ
  Basis Set: (CC-PVDZ AUX)
    Blend: CC-PVDZ-JKFIT + DEF2-UNIVERSAL-JKFIT
  @DF-UKS Final Energy:  -405.34552675046768
    Total Energy =                       -405.3455267504676840
  Basis Set: CC-PVDZ
    Blend: CC-PVDZ
  Basis Set: (CC-PVDZ AUX)
    Blend: CC-PVDZ-JKFIT + DEF2-UNIVERSAL-JKFIT
  Charge       = 0
  Multiplicity = 6
  Basis Set: CC-PVDZ
    Blend: CC-PVDZ
  Basis Set: (CC-PVDZ AUX)
    Blend: CC-PVDZ-JKFIT + DEF2-UNIVERSAL-JKFIT

    Orbital Energies [Eh]
    ---------------------

    Alpha Occupied:

       1A1   -89.207684     2A1    -8.259401     1B1    -6.224152
       3A1    -6.224127     1B2    -6.224012     4A1    -1.985125
       5A1    -0.966075     2B1    -0.539187     6A1    -0.538711
       2B2    -0.537951     7A1    -0.124794     3B2    -0.059069

    Alpha Virtual:

       3B1    -0.016564     8A1    -0.015557     9A1     0.042482
       4B2     0.075214     4B1     0.091153    10A1     0.111327
       5B2     0.199674     5B1     0.211567    11A1     0.212140
       1A2     0.238289    12A1     0.245649     6B1     0.306004
       6B2     0.307550     2A2     0.314912    13A1     0.315032
      14A1     0.320165    15A1     0.343915     7B2     0.370483
       7B1     0.372968    16A1     0.562180

    Beta Occupied:

       1A1   -89.188629     2A1    -8.240041     1B1    -6.195818
       3A1    -6.195584     1B2    -6.195380     4A1    -1.978354
       5A1    -0.818395

    Beta Virtual:

       2B1    -0.356417     6A1    -0.355309     2B2    -0.354207
       7A1    -0.034525     8A1     0.004634     3B1     0.016583
       3B2     0.024364     9A1     0.087292     4B1     0.108543
       4B2     0.120557    10A1     0.124629     5B1     0.250205
      11A1     0.259348     5B2     0.261436     1A2     0.300491
      12A1     0.301851    13A1     0.370793     6B1     0.375519
       6B2     0.378609    14A1     0.432998     2A2     0.433144
      15A1     0.437203     7B1     0.461548     7B2     0.465289
      16A1     0.621437

    Final Occupation by Irrep:
             A1    A2    B1    B2
    DOCC [     5,    0,    1,    1 ]
    SOCC [     2,    0,    1,    2 ]
    NA   [     7,    0,    2,    3 ]
    NB   [     5,    0,    1,    1 ]

  @DF-UKS Final Energy:  -405.34552675048889

   => Energetics <=

    Nuclear Repulsion Energy =              7.4276579295302412
    One-Electron Energy =                -570.1781120780394758
    Two-Electron Energy =                 179.4076650131623580
    DFT Exchange-Correlation Energy =     -22.0027376151420135
    Empirical Dispersion Energy =           0.0000000000000000
    VV10 Nonlocal Energy =                  0.0000000000000000
    Total Energy =                       -405.3455267504888297

  UHF NO Occupations:
  HONO-2 :    6 A1 1.0000000
  HONO-1 :    3 B2 1.0000000
  HONO-0 :    7 A1 1.0000000
  LUNO+0 :    8 A1 0.0002048
  LUNO+1 :    9 A1 0.0000007
  LUNO+2 :   10 A1 0.0000000
  LUNO+3 :    3 B1 0.0000000

Computation Completed

Properties will be evaluated at   0.000000,   0.000000,   0.000000 [a0]

Properties computed using the SCF density matrix

 Multipole Moments:

 ------------------------------------------------------------------------------------
     Multipole            Electronic (a.u.)      Nuclear  (a.u.)        Total (a.u.)
 ------------------------------------------------------------------------------------

 L = 1.  Multiply by 2.5417464519 to convert [e a0] to [Debye]
 Dipole X            :          0.0000000            0.0000000            0.0000000
 Dipole Y            :          0.0000000            0.0000000            0.0000000
 Dipole Z            :         -1.6086049           -2.7083538           -4.3169587
 Magnitude           :                                                    4.3169587

 ------------------------------------------------------------------------------------

*** tstop() called on Joses-MacBook-Pro-2.local at Wed Jul 16 18:37:04 2025
Module time:
	user time   =       3.56 seconds =       0.06 minutes
	system time =       2.71 seconds =       0.05 minutes
	total time  =          1 seconds =       0.02 minutes
Total time:
	user time   =      74.52 seconds =       1.24 minutes
	system time =      86.23 seconds =       1.44 minutes
	total time  =         16 seconds =       0.27 minutes

*** tstart() called on Joses-MacBook-Pro-2.local
*** at Wed Jul 16 18:37:04 2025

         ------------------------------------------------------------
                                   SCF GRAD
                          Rob Parrish, Justin Turney,
                       Andy Simmonett, and Alex Sokolov
         ------------------------------------------------------------

  ==> Geometry <==

    Molecular point group: c2v
    Full point group: C_inf_v

    Geometry (in Angstrom), charge = 0, multiplicity = 6:

       Center              X                  Y                   Z               Mass
    ------------   -----------------  -----------------  -----------------  -----------------
         LI           0.000000000000     0.000000000000     2.804332195912     7.016003436600
         S            0.000000000000     0.000000000000    -0.615387230204    31.972071174400

  Nuclear repulsion =    7.427657929530241

  ==> Basis Set <==

  Basis Set: CC-PVDZ
    Blend: CC-PVDZ
    Number of shells: 14
    Number of basis functions: 32
    Number of Cartesian functions: 34
    Spherical Harmonics?: true
    Max angular momentum: 2

  ==> DFJKGrad: Density-Fitted SCF Gradients <==

    Gradient:                    1
    J tasked:                  Yes
    K tasked:                  Yes
    wK tasked:                  No
    OpenMP threads:              1
    Integrals threads:           1
    Memory [MiB]:              375
    Schwarz Cutoff:          1E-12
    Fitting Condition:       1E-10

   => Auxiliary Basis Set <=

  Basis Set: (CC-PVDZ AUX)
    Blend: CC-PVDZ-JKFIT + DEF2-UNIVERSAL-JKFIT
    Number of shells: 53
    Number of basis functions: 163
    Number of Cartesian functions: 190
    Spherical Harmonics?: true
    Max angular momentum: 3

  ==> DFT Potential <==

   => LibXC <=

    Version 6.2.2
    S. Lehtola, C. Steigemann, M. J.T. Oliveira, and M. A.L. Marques.,  SoftwareX 7, 1â€“5 (2018) (10.1016/j.softx.2017.11.002)

   => Composite Functional: B3LYP <=

    B3LYP Hyb-GGA Exchange-Correlation Functional

    P. J. Stephens, F. J. Devlin, C. F. Chabalowski, and M. J. Frisch.,  J. Phys. Chem. 98, 11623 (1994) (10.1021/j100096a001)

    Deriv               =              1
    GGA                 =           TRUE
    Meta                =          FALSE

    Exchange Hybrid     =           TRUE
    MP2 Hybrid          =          FALSE

   => Exchange Functionals <=

    0.0800   Slater exchange
    0.7200         Becke 88

   => Exact (HF) Exchange <=

    0.2000               HF

   => Correlation Functionals <=

    0.1900   Vosko, Wilk & Nusair (VWN5_RPA)
    0.8100   Lee, Yang & Parr

   => LibXC Density Thresholds  <==

    XC_HYB_GGA_XC_B3LYP:  1.00E-15

   => Molecular Quadrature <=

    Radial Scheme          =       TREUTLER
    Pruning Scheme         =           NONE
    Nuclear Scheme         =       TREUTLER

    Blocking Scheme        =         OCTREE
    BS radius alpha        =              1
    Pruning alpha          =              1
    Radial Points          =             75
    Spherical Points       =            302
    Total Points           =          44380
    Total Blocks           =            442
    Max Points             =            255
    Max Functions          =             32
    Weights Tolerance      =       1.00E-15

  -Total Gradient:
     Atom            X                  Y                   Z
    ------   -----------------  -----------------  -----------------
       1        0.000000000000     0.000000000000     0.000009443876
       2       -0.000000000000    -0.000000000000     0.000017719453

*** tstop() called on Joses-MacBook-Pro-2.local at Wed Jul 16 18:37:04 2025
Module time:
	user time   =       1.17 seconds =       0.02 minutes
	system time =       1.60 seconds =       0.03 minutes
	total time  =          0 seconds =       0.00 minutes
Total time:
	user time   =      75.69 seconds =       1.26 minutes
	system time =      87.84 seconds =       1.46 minutes
	total time  =         16 seconds =       0.27 minutes

    			-----------------------------------------

    			 OPTKING 3.0: for geometry optimizations

    			     By R.A. King, Bethel University

    			        with contributions from

    			    A.V. Copan, J. Cayton, A. Heide

    			-----------------------------------------

	                            ===> Fragment 1 <==

	 Z (Atomic Numbers)          Masses                          Geom
	       3.000000             7.016003          0.00000000  0.00000000  5.29941982
	      16.000000            31.972071          0.00000000  0.00000000 -1.16291333

	 - Coordinate -           - BOHR/RAD -       - ANG/DEG -
	 R(1,2)           =         6.462333           3.419719

	        --- Internal Coordinate Step in ANG or DEG, aJ/ANG or AJ/DEG ---
	-------------------------------------------------------------------------------
	           Coordinate      Previous         Force          Change          New
	           ----------      --------        ------          ------        ------
	               R(1,2)       3.41972        0.00003        0.00019       3.41991
	-------------------------------------------------------------------------------

	                                 ==> Convergence Check <==

	Measures of convergence in internal coordinates in au.

	Criteria marked as inactive (o), active & met (*), and active & unmet ( ).

	----------------------------------------------------------------------------------------------
	   Step    Total Energy     Delta E     Max Force     RMS Force      Max Disp      RMS Disp
	----------------------------------------------------------------------------------------------
	  Convergence Criteria     1.00e-06 *    3.00e-04 *             o    1.20e-03 *             o
	----------------------------------------------------------------------------------------------
	    16    -405.34552675   -2.12e-11 *    4.14e-06 *    4.14e-06 o    3.68e-04 *    3.68e-04 o  ~
	----------------------------------------------------------------------------------------------

Next Geometry in Ang
	Fragment 1 (Ang)

	   Li   0.0000000000   0.0000000000   2.8044295987
	    S   0.0000000000   0.0000000000  -0.6154846330

    Final optimized geometry and variables:
    Molecular point group: c2v
    Full point group: C_inf_v

    Geometry (in Angstrom), charge = 0, multiplicity = 6:

    LI           0.000000000000     0.000000000000     2.804332195912
    S            0.000000000000     0.000000000000    -0.615387230204

    Psi4 stopped on: Wednesday, 16 July 2025 06:37PM
    Psi4 wall time for execution: 0:00:16.52

*** Psi4 exiting successfully. Buy a developer a beer!
