                               Psi4 1.9.1 release

  ==> Input File <==

--------------------------------------------------------------------------
molecule {
0 6
Na   0.00000        0.60000        0.00000
S   0.00000       -0.60000        0.00000
}

set {
basis              cc-pvdz
reference          uks
maxiter            500
geom_maxiter       500
DAMPING_PERCENTAGE 1
guess              SAP
}

optimize('b3lyp')
--------------------------------------------------------------------------

    Molecular point group: c2v
  Charge       = 0
  Multiplicity = 6
  Basis Set: CC-PVDZ
    Blend: CC-PVDZ
  Basis Set: (CC-PVDZ AUX)
    Blend: CC-PVDZ-JKFIT + DEF2-UNIVERSAL-JKFIT
  @DF-UKS Final Energy:  -559.03725890670285
    Total Energy =                       -559.0372589067028457
 Dipole X            :          0.0000000            0.0000000            0.0000000
 Dipole Y            :          0.0000000            0.0000000            0.0000000
 Dipole Z            :         -1.2367874           -0.6660660           -1.9028534
 Magnitude           :                                                    1.9028534
    Molecular point group: c2v
  Basis Set: CC-PVDZ
    Blend: CC-PVDZ
  Basis Set: (CC-PVDZ AUX)
    Blend: CC-PVDZ-JKFIT + DEF2-UNIVERSAL-JKFIT
  Basis Set: CC-PVDZ
    Blend: CC-PVDZ
  Basis Set: (CC-PVDZ AUX)
    Blend: CC-PVDZ-JKFIT + DEF2-UNIVERSAL-JKFIT
  @DF-UKS Final Energy:  -559.05192982068684
    Total Energy =                       -559.0519298206868370
  Basis Set: CC-PVDZ
    Blend: CC-PVDZ
  Basis Set: (CC-PVDZ AUX)
    Blend: CC-PVDZ-JKFIT + DEF2-UNIVERSAL-JKFIT
  Basis Set: CC-PVDZ
    Blend: CC-PVDZ
  @DF-UKS Final Energy:  -559.08022197179105
    Total Energy =                       -559.0802219717910475
  @DF-UKS Final Energy:  -559.18252051670743
    Total Energy =                       -559.1825205167074273
  @DF-UKS Final Energy:  -559.62022623627570
    Total Energy =                       -559.6202262362756983
  @DF-UKS Final Energy:  -559.83351077939017
    Total Energy =                       -559.8335107793901670
  @DF-UKS Final Energy:  -559.96283121068996
    Total Energy =                       -559.9628312106899557
  @DF-UKS Final Energy:  -560.03252197159236
    Total Energy =                       -560.0325219715923595
  @DF-UKS Final Energy:  -560.07308269022656
    Total Energy =                       -560.0730826902265562
  @DF-UKS Final Energy:  -560.09862133343574
    Total Energy =                       -560.0986213334357444
  @DF-UKS Final Energy:  -560.11564548966658
    Total Energy =                       -560.1156454896666901
  @DF-UKS Final Energy:  -560.12631996364917
    Total Energy =                       -560.1263199636491663
  @DF-UKS Final Energy:  -560.12675587530396
    Total Energy =                       -560.1267558753039566
  @DF-UKS Final Energy:  -560.13247092257188
    Total Energy =                       -560.1324709225718834
  @DF-UKS Final Energy:  -560.13255916042158
    Total Energy =                       -560.1325591604218062
  @DF-UKS Final Energy:  -560.13412805199948
    Total Energy =                       -560.1341280519994825
  @DF-UKS Final Energy:  -560.13427705426477
    Total Energy =                       -560.1342770542647713
  Basis Set: (CC-PVDZ AUX)
    Blend: CC-PVDZ-JKFIT + DEF2-UNIVERSAL-JKFIT
  Basis Set: CC-PVDZ
    Blend: CC-PVDZ
  Basis Set: (CC-PVDZ AUX)
    Blend: CC-PVDZ-JKFIT + DEF2-UNIVERSAL-JKFIT
  @DF-UKS Final Energy:  -560.13428279249115
    Total Energy =                       -560.1342827924911489
  Basis Set: CC-PVDZ
    Blend: CC-PVDZ
  Basis Set: (CC-PVDZ AUX)
    Blend: CC-PVDZ-JKFIT + DEF2-UNIVERSAL-JKFIT
  Charge       = 0
  Multiplicity = 6
  Basis Set: CC-PVDZ
    Blend: CC-PVDZ
  Basis Set: (CC-PVDZ AUX)
    Blend: CC-PVDZ-JKFIT + DEF2-UNIVERSAL-JKFIT

    Orbital Energies [Eh]
    ---------------------

    Alpha Occupied:

       1A1   -89.217645     2A1   -38.459611     3A1    -8.269368
       1B2    -6.234131     4A1    -6.234119     1B1    -6.233997
       5A1    -2.206241     6A1    -1.138454     2B2    -1.137475
       2B1    -1.135936     7A1    -0.975731     3B2    -0.548546
       8A1    -0.548470     3B1    -0.547351     9A1    -0.130953
       4B1    -0.055165

    Alpha Virtual:

      10A1    -0.025166     4B2    -0.018555    11A1     0.025884
       5B1     0.069374    12A1     0.079463     5B2     0.080546
       6B1     0.147073     6B2     0.154326    13A1     0.158892
       1A2     0.169614    14A1     0.175209     7B2     0.297240
      15A1     0.297611     7B1     0.298706     2A2     0.304882
      16A1     0.304890    17A1     0.329429     8B1     0.343015
       8B2     0.343071    18A1     0.526977

    Beta Occupied:

       1A1   -89.198615     2A1   -38.458005     3A1    -8.250049
       1B2    -6.205800     4A1    -6.205621     1B1    -6.205363
       5A1    -2.203244     6A1    -1.136375     2B2    -1.135775
       2B1    -1.132884     7A1    -0.828096

    Beta Virtual:

       3B2    -0.365663     8A1    -0.365054     3B1    -0.363540
       9A1    -0.055180    10A1    -0.008793     4B2     0.008234
       4B1     0.014886    11A1     0.062023    12A1     0.094115
       5B2     0.099157     5B1     0.108393     6B2     0.177174
       6B1     0.187128    13A1     0.188411     1A2     0.209163
      14A1     0.211934    15A1     0.354006     7B2     0.361582
       7B1     0.364373    16A1     0.422359     2A2     0.423384
      17A1     0.424088     8B2     0.440057     8B1     0.442406
      18A1     0.584050

    Final Occupation by Irrep:
             A1    A2    B1    B2
    DOCC [     7,    0,    2,    2 ]
    SOCC [     2,    0,    2,    1 ]
    NA   [     9,    0,    4,    3 ]
    NB   [     7,    0,    2,    2 ]

  @DF-UKS Final Energy:  -560.13428279501284

   => Energetics <=

    Nuclear Repulsion Energy =             25.6949182789007438
    One-Electron Energy =                -824.7243576383459640
    Two-Electron Energy =                 271.0372054951642440
    DFT Exchange-Correlation Energy =     -32.1420489307317467
    Empirical Dispersion Energy =           0.0000000000000000
    VV10 Nonlocal Energy =                  0.0000000000000000
    Total Energy =                       -560.1342827950127230

  UHF NO Occupations:
  HONO-2 :    8 A1 1.0000000
  HONO-1 :    4 B1 1.0000000
  HONO-0 :    9 A1 1.0000000
  LUNO+0 :   10 A1 0.0002059
  LUNO+1 :   11 A1 0.0000006
  LUNO+2 :    4 B2 0.0000004
  LUNO+3 :    5 B1 0.0000004

Computation Completed

Properties will be evaluated at   0.000000,   0.000000,   0.000000 [a0]

Properties computed using the SCF density matrix

 Multipole Moments:

 ------------------------------------------------------------------------------------
     Multipole            Electronic (a.u.)      Nuclear  (a.u.)        Total (a.u.)
 ------------------------------------------------------------------------------------

 L = 1.  Multiply by 2.5417464519 to convert [e a0] to [Debye]
 Dipole X            :          0.0000000            0.0000000            0.0000000
 Dipole Y            :          0.0000000            0.0000000            0.0000000
 Dipole Z            :         -2.5189152           -2.0118822           -4.5307974
 Magnitude           :                                                    4.5307974

 ------------------------------------------------------------------------------------

*** tstop() called on Joses-MacBook-Pro-2.local at Wed Jul 16 19:49:50 2025
Module time:
	user time   =       6.90 seconds =       0.12 minutes
	system time =       3.29 seconds =       0.05 minutes
	total time  =          1 seconds =       0.02 minutes
Total time:
	user time   =     196.60 seconds =       3.28 minutes
	system time =     107.87 seconds =       1.80 minutes
	total time  =         30 seconds =       0.50 minutes

*** tstart() called on Joses-MacBook-Pro-2.local
*** at Wed Jul 16 19:49:50 2025

         ------------------------------------------------------------
                                   SCF GRAD
                          Rob Parrish, Justin Turney,
                       Andy Simmonett, and Alex Sokolov
         ------------------------------------------------------------

  ==> Geometry <==

    Molecular point group: c2v
    Full point group: C_inf_v

    Geometry (in Angstrom), charge = 0, multiplicity = 6:

       Center              X                  Y                   Z               Mass
    ------------   -----------------  -----------------  -----------------  -----------------
         NA           0.000000000000     0.000000000000     2.108511935776    22.989769282000
         S            0.000000000000     0.000000000000    -1.516142093749    31.972071174400

  Nuclear repulsion =   25.694918278900751

  ==> Basis Set <==

  Basis Set: CC-PVDZ
    Blend: CC-PVDZ
    Number of shells: 16
    Number of basis functions: 36
    Number of Cartesian functions: 38
    Spherical Harmonics?: true
    Max angular momentum: 2

  ==> DFJKGrad: Density-Fitted SCF Gradients <==

    Gradient:                    1
    J tasked:                  Yes
    K tasked:                  Yes
    wK tasked:                  No
    OpenMP threads:              1
    Integrals threads:           1
    Memory [MiB]:              375
    Schwarz Cutoff:          1E-12
    Fitting Condition:       1E-10

   => Auxiliary Basis Set <=

  Basis Set: (CC-PVDZ AUX)
    Blend: CC-PVDZ-JKFIT + DEF2-UNIVERSAL-JKFIT
    Number of shells: 70
    Number of basis functions: 224
    Number of Cartesian functions: 267
    Spherical Harmonics?: true
    Max angular momentum: 4

  ==> DFT Potential <==

   => LibXC <=

    Version 6.2.2
    S. Lehtola, C. Steigemann, M. J.T. Oliveira, and M. A.L. Marques.,  SoftwareX 7, 1â€“5 (2018) (10.1016/j.softx.2017.11.002)

   => Composite Functional: B3LYP <=

    B3LYP Hyb-GGA Exchange-Correlation Functional

    P. J. Stephens, F. J. Devlin, C. F. Chabalowski, and M. J. Frisch.,  J. Phys. Chem. 98, 11623 (1994) (10.1021/j100096a001)

    Deriv               =              1
    GGA                 =           TRUE
    Meta                =          FALSE

    Exchange Hybrid     =           TRUE
    MP2 Hybrid          =          FALSE

   => Exchange Functionals <=

    0.0800   Slater exchange
    0.7200         Becke 88

   => Exact (HF) Exchange <=

    0.2000               HF

   => Correlation Functionals <=

    0.1900   Vosko, Wilk & Nusair (VWN5_RPA)
    0.8100   Lee, Yang & Parr

   => LibXC Density Thresholds  <==

    XC_HYB_GGA_XC_B3LYP:  1.00E-15

   => Molecular Quadrature <=

    Radial Scheme          =       TREUTLER
    Pruning Scheme         =           NONE
    Nuclear Scheme         =       TREUTLER

    Blocking Scheme        =         OCTREE
    BS radius alpha        =              1
    Pruning alpha          =              1
    Radial Points          =             75
    Spherical Points       =            302
    Total Points           =          43898
    Total Blocks           =            448
    Max Points             =            255
    Max Functions          =             36
    Weights Tolerance      =       1.00E-15

  -Total Gradient:
     Atom            X                  Y                   Z
    ------   -----------------  -----------------  -----------------
       1        0.000000000000    -0.000000000000     0.000015950427
       2        0.000000000000     0.000000000000     0.000018436952

*** tstop() called on Joses-MacBook-Pro-2.local at Wed Jul 16 19:49:50 2025
Module time:
	user time   =       2.39 seconds =       0.04 minutes
	system time =       1.74 seconds =       0.03 minutes
	total time  =          0 seconds =       0.00 minutes
Total time:
	user time   =     199.00 seconds =       3.32 minutes
	system time =     109.62 seconds =       1.83 minutes
	total time  =         30 seconds =       0.50 minutes

    			-----------------------------------------

    			 OPTKING 3.0: for geometry optimizations

    			     By R.A. King, Bethel University

    			        with contributions from

    			    A.V. Copan, J. Cayton, A. Heide

    			-----------------------------------------

	                            ===> Fragment 1 <==

	 Z (Atomic Numbers)          Masses                          Geom
	      11.000000            22.989769          0.00000000  0.00000000  3.98451009
	      16.000000            31.972071          0.00000000  0.00000000 -2.86509332

	 - Coordinate -           - BOHR/RAD -       - ANG/DEG -
	 R(1,2)           =         6.849603           3.624654

	        --- Internal Coordinate Step in ANG or DEG, aJ/ANG or AJ/DEG ---
	-------------------------------------------------------------------------------
	           Coordinate      Previous         Force          Change          New
	           ----------      --------        ------          ------        ------
	               R(1,2)       3.62465        0.00001        0.00007       3.62473
	-------------------------------------------------------------------------------

	                                 ==> Convergence Check <==

	Measures of convergence in internal coordinates in au.

	Criteria marked as inactive (o), active & met (*), and active & unmet ( ).

	----------------------------------------------------------------------------------------------
	   Step    Total Energy     Delta E     Max Force     RMS Force      Max Disp      RMS Disp
	----------------------------------------------------------------------------------------------
	  Convergence Criteria     1.00e-06 *    3.00e-04 *             o    1.20e-03 *             o
	----------------------------------------------------------------------------------------------
	    19    -560.13428280   -2.52e-09 *    1.24e-06 *    1.24e-06 o    1.38e-04 *    1.38e-04 o  ~
	----------------------------------------------------------------------------------------------

Next Geometry in Ang
	Fragment 1 (Ang)

	   Na   0.0000000000   0.0000000000   2.1085485728
	    S   0.0000000000   0.0000000000  -1.5161787308

    Final optimized geometry and variables:
    Molecular point group: c2v
    Full point group: C_inf_v

    Geometry (in Angstrom), charge = 0, multiplicity = 6:

    NA           0.000000000000     0.000000000000     2.108511935776
    S            0.000000000000     0.000000000000    -1.516142093749

    Psi4 stopped on: Wednesday, 16 July 2025 07:49PM
    Psi4 wall time for execution: 0:00:30.59

*** Psi4 exiting successfully. Buy a developer a beer!
