                               Psi4 1.9.1 release

  ==> Input File <==

--------------------------------------------------------------------------
molecule {
0 6
Ne   0.00000        0.60000        0.00000
P   0.00000       -0.60000        0.00000
}

set {
basis              cc-pvdz
reference          uks
maxiter            500
geom_maxiter       500
DAMPING_PERCENTAGE 1
guess              SAP
}

optimize('b3lyp')
--------------------------------------------------------------------------

    Molecular point group: c2v
  Charge       = 0
  Multiplicity = 6
  Basis Set: CC-PVDZ
    Blend: CC-PVDZ
  Basis Set: (CC-PVDZ AUX)
    Blend: CC-PVDZ-JKFIT
  @DF-UKS Final Energy:  -468.88006038008245
    Total Energy =                       -468.8800603800824547
 Dipole X            :          0.0000000            0.0000000            0.0000000
 Dipole Y            :          0.0000000            0.0000000            0.0000000
 Dipole Z            :          0.8056241            0.4383075            1.2439316
 Magnitude           :                                                    1.2439316
    Molecular point group: c2v
  Basis Set: CC-PVDZ
    Blend: CC-PVDZ
  Basis Set: (CC-PVDZ AUX)
    Blend: CC-PVDZ-JKFIT
  Basis Set: CC-PVDZ
    Blend: CC-PVDZ
  Basis Set: (CC-PVDZ AUX)
    Blend: CC-PVDZ-JKFIT
  @DF-UKS Final Energy:  -469.12588560291033
    Total Energy =                       -469.1258856029103299
  Basis Set: CC-PVDZ
    Blend: CC-PVDZ
  Basis Set: (CC-PVDZ AUX)
    Blend: CC-PVDZ-JKFIT
  Basis Set: CC-PVDZ
    Blend: CC-PVDZ
  @DF-UKS Final Energy:  -469.27995369383962
    Total Energy =                       -469.2799536938396159
  @DF-UKS Final Energy:  -469.37204120878249
    Total Energy =                       -469.3720412087824911
  @DF-UKS Final Energy:  -469.41694034438461
    Total Energy =                       -469.4169403443846136
  @DF-UKS Final Energy:  -469.43611712879533
    Total Energy =                       -469.4361171287953312
  @DF-UKS Final Energy:  -469.44476883113475
    Total Energy =                       -469.4447688311347520
  @DF-UKS Final Energy:  -469.44934353331132
    Total Energy =                       -469.4493435333113780
  @DF-UKS Final Energy:  -469.45196086860210
    Total Energy =                       -469.4519608686021002
  @DF-UKS Final Energy:  -469.45581624471140
    Total Energy =                       -469.4558162447114569
  @DF-UKS Final Energy:  -469.46170672973000
    Total Energy =                       -469.4617067297299968
  @DF-UKS Final Energy:  -469.46175611981937
    Total Energy =                       -469.4617561198194267
  @DF-UKS Final Energy:  -469.46294034917315
    Total Energy =                       -469.4629403491730955
  @DF-UKS Final Energy:  -469.46312281437088
    Total Energy =                       -469.4631228143709336
  @DF-UKS Final Energy:  -469.46315734407744
    Total Energy =                       -469.4631573440774446
  Basis Set: (CC-PVDZ AUX)
    Blend: CC-PVDZ-JKFIT
  Basis Set: CC-PVDZ
    Blend: CC-PVDZ
  Basis Set: (CC-PVDZ AUX)
    Blend: CC-PVDZ-JKFIT
  @DF-UKS Final Energy:  -469.46316061213781
    Total Energy =                       -469.4631606121377558
  Basis Set: CC-PVDZ
    Blend: CC-PVDZ
  Basis Set: (CC-PVDZ AUX)
    Blend: CC-PVDZ-JKFIT
  Charge       = 0
  Multiplicity = 6
  Basis Set: CC-PVDZ
    Blend: CC-PVDZ
  Basis Set: (CC-PVDZ AUX)
    Blend: CC-PVDZ-JKFIT

    Orbital Energies [Eh]
    ---------------------

    Alpha Occupied:

       1A1   -77.210887     2A1   -30.962970     3A1    -6.683846
       1B1    -4.845057     1B2    -4.845057     4A1    -4.845052
       5A1    -1.428168     6A1    -0.688874     7A1    -0.537857
       2B1    -0.536235     2B2    -0.536235     3B1    -0.329327
       3B2    -0.329327     8A1    -0.328458     9A1     0.217052

    Alpha Virtual:

       4B2     0.334002     4B1     0.334002    10A1     0.336554
      11A1     0.361674    12A1     0.361890     1A2     0.361890
       5B1     0.361959     5B2     0.361959     6B1     1.363933
       6B2     1.363933    13A1     1.388929    14A1     1.835293
       7B1     4.728810     7B2     4.728810    15A1     4.729186
       2A2     4.729248    16A1     4.729433

    Beta Occupied:

       1A1   -77.183469     2A1   -30.962531     3A1    -6.649465
       1B2    -4.810320     1B1    -4.810320     4A1    -4.810257
       5A1    -1.427405     6A1    -0.536261     2B2    -0.535931
       2B1    -0.535931

    Beta Virtual:

       7A1    -0.404027     3B1    -0.096393     3B2    -0.096393
       8A1    -0.096078     9A1     0.382780    10A1     0.445495
       4B1     0.448932     4B2     0.448932     1A2     0.531463
      11A1     0.531474     5B1     0.531636     5B2     0.531636
      12A1     0.532139     6B1     1.363894     6B2     1.363894
      13A1     1.391358    14A1     1.836657     2A2     4.729463
       7B1     4.729593     7B2     4.729593    15A1     4.729648
      16A1     4.730160

    Final Occupation by Irrep:
             A1    A2    B1    B2
    DOCC [     6,    0,    2,    2 ]
    SOCC [     3,    0,    1,    1 ]
    NA   [     9,    0,    3,    3 ]
    NB   [     6,    0,    2,    2 ]

  @DF-UKS Final Energy:  -469.46316111560014

   => Energetics <=

    Nuclear Repulsion Energy =             23.3481279153964891
    One-Electron Energy =                -698.9471452564564515
    Two-Electron Energy =                 234.9275735882142726
    DFT Exchange-Correlation Energy =     -28.7917173627544436
    Empirical Dispersion Energy =           0.0000000000000000
    VV10 Nonlocal Energy =                  0.0000000000000000
    Total Energy =                       -469.4631611156001441

  UHF NO Occupations:
  HONO-2 :    3 B2 1.0000000
  HONO-1 :    8 A1 1.0000000
  HONO-0 :    9 A1 1.0000000
  LUNO+0 :   10 A1 0.0000013
  LUNO+1 :    4 B2 0.0000005
  LUNO+2 :    4 B1 0.0000005
  LUNO+3 :   11 A1 0.0000004

Computation Completed

Properties will be evaluated at   0.000000,   0.000000,   0.000000 [a0]

Properties computed using the SCF density matrix

 Multipole Moments:

 ------------------------------------------------------------------------------------
     Multipole            Electronic (a.u.)      Nuclear  (a.u.)        Total (a.u.)
 ------------------------------------------------------------------------------------

 L = 1.  Multiply by 2.5417464519 to convert [e a0] to [Debye]
 Dipole X            :          0.0000000            0.0000000            0.0000000
 Dipole Y            :          0.0000000            0.0000000            0.0000000
 Dipole Z            :         -1.1800882            1.2417610            0.0616728
 Magnitude           :                                                    0.0616728

 ------------------------------------------------------------------------------------

*** tstop() called on Joses-MacBook-Pro-2.local at Wed Jul 16 19:36:31 2025
Module time:
	user time   =       3.34 seconds =       0.06 minutes
	system time =       2.58 seconds =       0.04 minutes
	total time  =          0 seconds =       0.00 minutes
Total time:
	user time   =      81.95 seconds =       1.37 minutes
	system time =      84.94 seconds =       1.42 minutes
	total time  =         16 seconds =       0.27 minutes

*** tstart() called on Joses-MacBook-Pro-2.local
*** at Wed Jul 16 19:36:31 2025

         ------------------------------------------------------------
                                   SCF GRAD
                          Rob Parrish, Justin Turney,
                       Andy Simmonett, and Alex Sokolov
         ------------------------------------------------------------

  ==> Geometry <==

    Molecular point group: c2v
    Full point group: C_inf_v

    Geometry (in Angstrom), charge = 0, multiplicity = 6:

       Center              X                  Y                   Z               Mass
    ------------   -----------------  -----------------  -----------------  -----------------
         NE           0.000000000000     0.000000000000     2.066103208346    19.992440176200
         P            0.000000000000     0.000000000000    -1.333594698404    30.973761998420

  Nuclear repulsion =   23.348127915396489

  ==> Basis Set <==

  Basis Set: CC-PVDZ
    Blend: CC-PVDZ
    Number of shells: 14
    Number of basis functions: 32
    Number of Cartesian functions: 34
    Spherical Harmonics?: true
    Max angular momentum: 2

  ==> DFJKGrad: Density-Fitted SCF Gradients <==

    Gradient:                    1
    J tasked:                  Yes
    K tasked:                  Yes
    wK tasked:                  No
    OpenMP threads:              1
    Integrals threads:           1
    Memory [MiB]:              375
    Schwarz Cutoff:          1E-12
    Fitting Condition:       1E-10

   => Auxiliary Basis Set <=

  Basis Set: (CC-PVDZ AUX)
    Blend: CC-PVDZ-JKFIT
    Number of shells: 60
    Number of basis functions: 182
    Number of Cartesian functions: 211
    Spherical Harmonics?: true
    Max angular momentum: 3

  ==> DFT Potential <==

   => LibXC <=

    Version 6.2.2
    S. Lehtola, C. Steigemann, M. J.T. Oliveira, and M. A.L. Marques.,  SoftwareX 7, 1â€“5 (2018) (10.1016/j.softx.2017.11.002)

   => Composite Functional: B3LYP <=

    B3LYP Hyb-GGA Exchange-Correlation Functional

    P. J. Stephens, F. J. Devlin, C. F. Chabalowski, and M. J. Frisch.,  J. Phys. Chem. 98, 11623 (1994) (10.1021/j100096a001)

    Deriv               =              1
    GGA                 =           TRUE
    Meta                =          FALSE

    Exchange Hybrid     =           TRUE
    MP2 Hybrid          =          FALSE

   => Exchange Functionals <=

    0.0800   Slater exchange
    0.7200         Becke 88

   => Exact (HF) Exchange <=

    0.2000               HF

   => Correlation Functionals <=

    0.1900   Vosko, Wilk & Nusair (VWN5_RPA)
    0.8100   Lee, Yang & Parr

   => LibXC Density Thresholds  <==

    XC_HYB_GGA_XC_B3LYP:  1.00E-15

   => Molecular Quadrature <=

    Radial Scheme          =       TREUTLER
    Pruning Scheme         =           NONE
    Nuclear Scheme         =       TREUTLER

    Blocking Scheme        =         OCTREE
    BS radius alpha        =              1
    Pruning alpha          =              1
    Radial Points          =             75
    Spherical Points       =            302
    Total Points           =          42820
    Total Blocks           =            389
    Max Points             =            254
    Max Functions          =             32
    Weights Tolerance      =       1.00E-15

  -Total Gradient:
     Atom            X                  Y                   Z
    ------   -----------------  -----------------  -----------------
       1        0.000000000000     0.000000000000     0.000001072436
       2       -0.000000000000     0.000000000000     0.000021263219

*** tstop() called on Joses-MacBook-Pro-2.local at Wed Jul 16 19:36:31 2025
Module time:
	user time   =       0.88 seconds =       0.01 minutes
	system time =       1.30 seconds =       0.02 minutes
	total time  =          0 seconds =       0.00 minutes
Total time:
	user time   =      82.84 seconds =       1.38 minutes
	system time =      86.24 seconds =       1.44 minutes
	total time  =         16 seconds =       0.27 minutes

    			-----------------------------------------

    			 OPTKING 3.0: for geometry optimizations

    			     By R.A. King, Bethel University

    			        with contributions from

    			    A.V. Copan, J. Cayton, A. Heide

    			-----------------------------------------

	                            ===> Fragment 1 <==

	 Z (Atomic Numbers)          Masses                          Geom
	      10.000000            19.992440          0.00000000  0.00000000  3.90436921
	      15.000000            30.973762          0.00000000  0.00000000 -2.52012874

	 - Coordinate -           - BOHR/RAD -       - ANG/DEG -
	 R(1,2)           =         6.424498           3.399698

	        --- Internal Coordinate Step in ANG or DEG, aJ/ANG or AJ/DEG ---
	-------------------------------------------------------------------------------
	           Coordinate      Previous         Force          Change          New
	           ----------      --------        ------          ------        ------
	               R(1,2)       3.39970        0.00008        0.00140       3.40110
	-------------------------------------------------------------------------------

	                                 ==> Convergence Check <==

	Measures of convergence in internal coordinates in au.

	Criteria marked as inactive (o), active & met (*), and active & unmet ( ).

	----------------------------------------------------------------------------------------------
	   Step    Total Energy     Delta E     Max Force     RMS Force      Max Disp      RMS Disp
	----------------------------------------------------------------------------------------------
	  Convergence Criteria     1.00e-06 *    3.00e-04 *             o    1.20e-03 *             o
	----------------------------------------------------------------------------------------------
	    17    -469.46316112   -5.03e-07 *    1.01e-05 *    1.01e-05 o    2.64e-03      2.64e-03 o  ~
	----------------------------------------------------------------------------------------------

Next Geometry in Ang
	Fragment 1 (Ang)

	   Ne   0.0000000000   0.0000000000   2.0668017897
	    P   0.0000000000   0.0000000000  -1.3342932797

    Final optimized geometry and variables:
    Molecular point group: c2v
    Full point group: C_inf_v

    Geometry (in Angstrom), charge = 0, multiplicity = 6:

    NE           0.000000000000     0.000000000000     2.066103208346
    P            0.000000000000     0.000000000000    -1.333594698404

    Psi4 stopped on: Wednesday, 16 July 2025 07:36PM
    Psi4 wall time for execution: 0:00:16.62

*** Psi4 exiting successfully. Buy a developer a beer!
