                               Psi4 1.9.1 release

  ==> Input File <==

--------------------------------------------------------------------------
molecule {
0 6
N   0.00000        0.60000        0.00000
S   0.00000       -0.60000        0.00000
}

set {
basis              cc-pvdz
reference          uks
maxiter            500
geom_maxiter       500
DAMPING_PERCENTAGE 1
guess              SAP
}

optimize('b3lyp')
--------------------------------------------------------------------------

    Molecular point group: c2v
  Charge       = 0
  Multiplicity = 6
  Basis Set: CC-PVDZ
    Blend: CC-PVDZ
  Basis Set: (CC-PVDZ AUX)
    Blend: CC-PVDZ-JKFIT
  @DF-UKS Final Energy:  -452.02837007840913
    Total Energy =                       -452.0283700784091252
 Dipole X            :          0.0000000            0.0000000            0.0000000
 Dipole Y            :          0.0000000            0.0000000            0.0000000
 Dipole Z            :          0.8104446           -0.0120688            0.7983758
 Magnitude           :                                                    0.7983758
    Molecular point group: c2v
  Basis Set: CC-PVDZ
    Blend: CC-PVDZ
  Basis Set: (CC-PVDZ AUX)
    Blend: CC-PVDZ-JKFIT
  Basis Set: CC-PVDZ
    Blend: CC-PVDZ
  Basis Set: (CC-PVDZ AUX)
    Blend: CC-PVDZ-JKFIT
  @DF-UKS Final Energy:  -452.28281588986852
    Total Energy =                       -452.2828158898685160
  Basis Set: CC-PVDZ
    Blend: CC-PVDZ
  Basis Set: (CC-PVDZ AUX)
    Blend: CC-PVDZ-JKFIT
  Basis Set: CC-PVDZ
    Blend: CC-PVDZ
  @DF-UKS Final Energy:  -452.41862459548969
    Total Energy =                       -452.4186245954896890
  @DF-UKS Final Energy:  -452.51595697766544
    Total Energy =                       -452.5159569776654394
  @DF-UKS Final Energy:  -452.60633093656458
    Total Energy =                       -452.6063309365645750
  @DF-UKS Final Energy:  -452.66053746747082
    Total Energy =                       -452.6605374674707605
  @DF-UKS Final Energy:  -452.68718506874745
    Total Energy =                       -452.6871850687474534
  @DF-UKS Final Energy:  -452.70055976107358
    Total Energy =                       -452.7005597610735776
  @DF-UKS Final Energy:  -452.70726194940289
    Total Energy =                       -452.7072619494028913
  @DF-UKS Final Energy:  -452.71064206884841
    Total Energy =                       -452.7106420688484150
  @DF-UKS Final Energy:  -452.71236247885804
    Total Energy =                       -452.7123624788580400
  @DF-UKS Final Energy:  -452.71324036230027
    Total Energy =                       -452.7132403623002688
  @DF-UKS Final Energy:  -452.71368845871797
    Total Energy =                       -452.7136884587179679
  @DF-UKS Final Energy:  -452.71391802136219
    Total Energy =                       -452.7139180213621898
  @DF-UKS Final Energy:  -452.71403854198127
    Total Energy =                       -452.7140385419812674
  @DF-UKS Final Energy:  -452.71410593952646
    Total Energy =                       -452.7141059395264620
  @DF-UKS Final Energy:  -452.71414688700668
    Total Energy =                       -452.7141468870065637
  Basis Set: (CC-PVDZ AUX)
    Blend: CC-PVDZ-JKFIT
  Basis Set: CC-PVDZ
    Blend: CC-PVDZ
  Basis Set: (CC-PVDZ AUX)
    Blend: CC-PVDZ-JKFIT
  @DF-UKS Final Energy:  -452.71417600133844
    Total Energy =                       -452.7141760013384442
  Basis Set: CC-PVDZ
    Blend: CC-PVDZ
  Basis Set: (CC-PVDZ AUX)
    Blend: CC-PVDZ-JKFIT
  Charge       = 0
  Multiplicity = 6
  Basis Set: CC-PVDZ
    Blend: CC-PVDZ
  Basis Set: (CC-PVDZ AUX)
    Blend: CC-PVDZ-JKFIT

    Orbital Energies [Eh]
    ---------------------

    Alpha Occupied:

       1A1   -88.930363     2A1   -14.435884     3A1    -7.988678
       1B2    -5.957912     4A1    -5.957911     1B1    -5.938132
       5A1    -0.803005     6A1    -0.720048     7A1    -0.345730
       2B2    -0.345545     2B1    -0.345504     3B2    -0.328911
       8A1    -0.328802     3B1    -0.280356

    Alpha Virtual:

       9A1     0.444905    10A1     0.453653     4B2     0.454446
       4B1     0.485408    11A1     0.522168     5B2     0.522170
       1A2     0.560813     5B1     0.560814    12A1     0.575043
       6B2     0.656685     6B1     0.656780    13A1     0.657863
      14A1     0.771721     7B2     1.677839    15A1     1.677869
       7B1     1.677869     2A2     1.677927    16A1     1.677993

    Beta Occupied:

       1A1   -88.919576     2A1   -14.379639     3A1    -7.977670
       1B2    -5.936547     4A1    -5.936545     1B1    -5.931626
       5A1    -0.627173     6A1    -0.605973     2B1    -0.253551

    Beta Virtual:

       7A1    -0.171470     2B2    -0.171421     8A1    -0.091495
       3B2    -0.091380     3B1    -0.091322     9A1     0.480415
       4B1     0.498340    10A1     0.503942     4B2     0.504497
       1A2     0.618023     5B1     0.618025    11A1     0.621161
      12A1     0.630162     5B2     0.630164     6B2     0.764610
       6B1     0.764702    13A1     0.765444    14A1     0.871331
       7B2     1.825453    15A1     1.825475     7B1     1.825485
       2A2     1.825551    16A1     1.825607

    Final Occupation by Irrep:
             A1    A2    B1    B2
    DOCC [     6,    0,    2,    1 ]
    SOCC [     2,    0,    1,    2 ]
    NA   [     8,    0,    3,    3 ]
    NB   [     6,    0,    2,    1 ]

  @DF-UKS Final Energy:  -452.71419885034959

   => Energetics <=

    Nuclear Repulsion Energy =             12.1884258100222045
    One-Electron Energy =                -647.8980521333442084
    Two-Electron Energy =                 209.1282270701936739
    DFT Exchange-Correlation Energy =     -26.1327995972212364
    Empirical Dispersion Energy =           0.0000000000000000
    VV10 Nonlocal Energy =                  0.0000000000000000
    Total Energy =                       -452.7141988503495895

  UHF NO Occupations:
  HONO-2 :    3 B2 1.0000000
  HONO-1 :    7 A1 1.0000000
  HONO-0 :    8 A1 1.0000000
  LUNO+0 :    9 A1 0.0010181
  LUNO+1 :   10 A1 0.0009742
  LUNO+2 :    4 B1 0.0000983
  LUNO+3 :   11 A1 0.0000000

Computation Completed

Properties will be evaluated at   0.000000,   0.000000,   0.000000 [a0]

Properties computed using the SCF density matrix

 Multipole Moments:

 ------------------------------------------------------------------------------------
     Multipole            Electronic (a.u.)      Nuclear  (a.u.)        Total (a.u.)
 ------------------------------------------------------------------------------------

 L = 1.  Multiply by 2.5417464519 to convert [e a0] to [Debye]
 Dipole X            :          0.0000000            0.0000000            0.0000000
 Dipole Y            :          0.0000000            0.0000000            0.0000000
 Dipole Z            :          0.0506547           -0.0489053            0.0017494
 Magnitude           :                                                    0.0017494

 ------------------------------------------------------------------------------------

*** tstop() called on Joses-MacBook-Pro-2.local at Wed Jul 16 19:14:43 2025
Module time:
	user time   =       4.52 seconds =       0.08 minutes
	system time =       2.45 seconds =       0.04 minutes
	total time  =          0 seconds =       0.00 minutes
Total time:
	user time   =     126.80 seconds =       2.11 minutes
	system time =     101.91 seconds =       1.70 minutes
	total time  =         23 seconds =       0.38 minutes

*** tstart() called on Joses-MacBook-Pro-2.local
*** at Wed Jul 16 19:14:43 2025

         ------------------------------------------------------------
                                   SCF GRAD
                          Rob Parrish, Justin Turney,
                       Andy Simmonett, and Alex Sokolov
         ------------------------------------------------------------

  ==> Geometry <==

    Molecular point group: c2v
    Full point group: C_inf_v

    Geometry (in Angstrom), charge = 0, multiplicity = 6:

       Center              X                  Y                   Z               Mass
    ------------   -----------------  -----------------  -----------------  -----------------
         N            0.000000000000     0.000000000000     3.381576362449    14.003074004430
         S            0.000000000000     0.000000000000    -1.481057132543    31.972071174400

  Nuclear repulsion =   12.188425810022204

  ==> Basis Set <==

  Basis Set: CC-PVDZ
    Blend: CC-PVDZ
    Number of shells: 14
    Number of basis functions: 32
    Number of Cartesian functions: 34
    Spherical Harmonics?: true
    Max angular momentum: 2

  ==> DFJKGrad: Density-Fitted SCF Gradients <==

    Gradient:                    1
    J tasked:                  Yes
    K tasked:                  Yes
    wK tasked:                  No
    OpenMP threads:              1
    Integrals threads:           1
    Memory [MiB]:              375
    Schwarz Cutoff:          1E-12
    Fitting Condition:       1E-10

   => Auxiliary Basis Set <=

  Basis Set: (CC-PVDZ AUX)
    Blend: CC-PVDZ-JKFIT
    Number of shells: 60
    Number of basis functions: 182
    Number of Cartesian functions: 211
    Spherical Harmonics?: true
    Max angular momentum: 3

  ==> DFT Potential <==

   => LibXC <=

    Version 6.2.2
    S. Lehtola, C. Steigemann, M. J.T. Oliveira, and M. A.L. Marques.,  SoftwareX 7, 1â€“5 (2018) (10.1016/j.softx.2017.11.002)

   => Composite Functional: B3LYP <=

    B3LYP Hyb-GGA Exchange-Correlation Functional

    P. J. Stephens, F. J. Devlin, C. F. Chabalowski, and M. J. Frisch.,  J. Phys. Chem. 98, 11623 (1994) (10.1021/j100096a001)

    Deriv               =              1
    GGA                 =           TRUE
    Meta                =          FALSE

    Exchange Hybrid     =           TRUE
    MP2 Hybrid          =          FALSE

   => Exchange Functionals <=

    0.0800   Slater exchange
    0.7200         Becke 88

   => Exact (HF) Exchange <=

    0.2000               HF

   => Correlation Functionals <=

    0.1900   Vosko, Wilk & Nusair (VWN5_RPA)
    0.8100   Lee, Yang & Parr

   => LibXC Density Thresholds  <==

    XC_HYB_GGA_XC_B3LYP:  1.00E-15

   => Molecular Quadrature <=

    Radial Scheme          =       TREUTLER
    Pruning Scheme         =           NONE
    Nuclear Scheme         =       TREUTLER

    Blocking Scheme        =         OCTREE
    BS radius alpha        =              1
    Pruning alpha          =              1
    Radial Points          =             75
    Spherical Points       =            302
    Total Points           =          41854
    Total Blocks           =            431
    Max Points             =            251
    Max Functions          =             32
    Weights Tolerance      =       1.00E-15

  -Total Gradient:
     Atom            X                  Y                   Z
    ------   -----------------  -----------------  -----------------
       1       -0.000000000000     0.000000000000    -0.000031937308
       2        0.000000000000     0.000000000000     0.000032146571

*** tstop() called on Joses-MacBook-Pro-2.local at Wed Jul 16 19:14:44 2025
Module time:
	user time   =       1.98 seconds =       0.03 minutes
	system time =       1.65 seconds =       0.03 minutes
	total time  =          1 seconds =       0.02 minutes
Total time:
	user time   =     128.78 seconds =       2.15 minutes
	system time =     103.56 seconds =       1.73 minutes
	total time  =         24 seconds =       0.40 minutes

    			-----------------------------------------

    			 OPTKING 3.0: for geometry optimizations

    			     By R.A. King, Bethel University

    			        with contributions from

    			    A.V. Copan, J. Cayton, A. Heide

    			-----------------------------------------

	                            ===> Fragment 1 <==

	 Z (Atomic Numbers)          Masses                          Geom
	       7.000000            14.003074          0.00000000  0.00000000  6.39025320
	      16.000000            31.972071          0.00000000  0.00000000 -2.79879236

	 - Coordinate -           - BOHR/RAD -       - ANG/DEG -
	 R(1,2)           =         9.189046           4.862633

	        --- Internal Coordinate Step in ANG or DEG, aJ/ANG or AJ/DEG ---
	-------------------------------------------------------------------------------
	           Coordinate      Previous         Force          Change          New
	           ----------      --------        ------          ------        ------
	               R(1,2)       4.86263        0.00026        0.00009       4.86273
	-------------------------------------------------------------------------------

	                                 ==> Convergence Check <==

	Measures of convergence in internal coordinates in au.

	Criteria marked as inactive (o), active & met (*), and active & unmet ( ).

	----------------------------------------------------------------------------------------------
	   Step    Total Energy     Delta E     Max Force     RMS Force      Max Disp      RMS Disp
	----------------------------------------------------------------------------------------------
	  Convergence Criteria     1.00e-06 *    3.00e-04 *             o    1.20e-03 *             o
	----------------------------------------------------------------------------------------------
	    19    -452.71419885   -2.28e-05      3.20e-05 *    3.20e-05 o    1.76e-04 *    1.76e-04 o  ~
	----------------------------------------------------------------------------------------------

Next Geometry in Ang
	Fragment 1 (Ang)

	    N   0.0000000000   0.0000000000   3.3816228933
	    S   0.0000000000   0.0000000000  -1.4811036634

    Final optimized geometry and variables:
    Molecular point group: c2v
    Full point group: C_inf_v

    Geometry (in Angstrom), charge = 0, multiplicity = 6:

    N            0.000000000000     0.000000000000     3.381576362449
    S            0.000000000000     0.000000000000    -1.481057132543

    Psi4 stopped on: Wednesday, 16 July 2025 07:14PM
    Psi4 wall time for execution: 0:00:24.51

*** Psi4 exiting successfully. Buy a developer a beer!
