                               Psi4 1.9.1 release

  ==> Input File <==

--------------------------------------------------------------------------
molecule {
0 6
Li   0.00000        0.60000        0.00000
Mg   0.00000       -0.60000        0.00000
}

set {
basis              cc-pvdz
reference          uks
maxiter            500
geom_maxiter       500
DAMPING_PERCENTAGE 1
guess              SAP
}

optimize('b3lyp')
--------------------------------------------------------------------------

    Molecular point group: c2v
  Charge       = 0
  Multiplicity = 6
  Basis Set: CC-PVDZ
    Blend: CC-PVDZ
  Basis Set: (CC-PVDZ AUX)
    Blend: DEF2-UNIVERSAL-JKFIT
  @DF-UKS Final Energy:  -205.21789955394340
    Total Energy =                       -205.2178995539433970
 Dipole X            :          0.0000000            0.0000000            0.0000000
 Dipole Y            :          0.0000000            0.0000000            0.0000000
 Dipole Z            :          0.4962509           -0.8951087           -0.3988578
 Magnitude           :                                                    0.3988578
    Molecular point group: c2v
  Basis Set: CC-PVDZ
    Blend: CC-PVDZ
  Basis Set: (CC-PVDZ AUX)
    Blend: DEF2-UNIVERSAL-JKFIT
  Basis Set: CC-PVDZ
    Blend: CC-PVDZ
  Basis Set: (CC-PVDZ AUX)
    Blend: DEF2-UNIVERSAL-JKFIT
  @DF-UKS Final Energy:  -205.25825488386042
    Total Energy =                       -205.2582548838604168
  Basis Set: CC-PVDZ
    Blend: CC-PVDZ
  Basis Set: (CC-PVDZ AUX)
    Blend: DEF2-UNIVERSAL-JKFIT
  Basis Set: CC-PVDZ
    Blend: CC-PVDZ
  @DF-UKS Final Energy:  -205.31631068143983
    Total Energy =                       -205.3163106814398304
  @DF-UKS Final Energy:  -205.43486908296393
    Total Energy =                       -205.4348690829639281
  @DF-UKS Final Energy:  -205.49591164187447
    Total Energy =                       -205.4959116418744429
  @DF-UKS Final Energy:  -205.52695396676145
    Total Energy =                       -205.5269539667614538
  @DF-UKS Final Energy:  -205.53665309337191
    Total Energy =                       -205.5366530933719105
  @DF-UKS Final Energy:  -205.53940512072739
    Total Energy =                       -205.5394051207274231
  @DF-UKS Final Energy:  -205.53987816247681
    Total Energy =                       -205.5398781624768105
  @DF-UKS Final Energy:  -205.53990952294231
    Total Energy =                       -205.5399095229423096
  Basis Set: (CC-PVDZ AUX)
    Blend: DEF2-UNIVERSAL-JKFIT
  Basis Set: CC-PVDZ
    Blend: CC-PVDZ
  Basis Set: (CC-PVDZ AUX)
    Blend: DEF2-UNIVERSAL-JKFIT
  @DF-UKS Final Energy:  -205.53991171797472
    Total Energy =                       -205.5399117179747179
  Basis Set: CC-PVDZ
    Blend: CC-PVDZ
  Basis Set: (CC-PVDZ AUX)
    Blend: DEF2-UNIVERSAL-JKFIT
  Charge       = 0
  Multiplicity = 6
  Basis Set: CC-PVDZ
    Blend: CC-PVDZ
  Basis Set: (CC-PVDZ AUX)
    Blend: DEF2-UNIVERSAL-JKFIT

    Orbital Energies [Eh]
    ---------------------

    Alpha Occupied:

       1A1   -47.773853     2A1    -3.705275     3A1    -2.536069
       1B1    -2.430143     1B2    -2.430143     4A1    -2.384371
       5A1    -0.339446     6A1    -0.185930     2B2    -0.147529
       2B1    -0.147529

    Alpha Virtual:

       7A1    -0.083028     3B2    -0.027050     3B1    -0.027050
       8A1     0.020451     4B1     0.041361     4B2     0.041361
       9A1     0.056952    10A1     0.083696     5B2     0.131401
       5B1     0.131401    11A1     0.135278    12A1     0.166869
       1A2     0.166869    13A1     0.181296     6B1     0.189700
       6B2     0.189700    14A1     0.283988     2A2     0.283989
      15A1     0.348848     7B2     0.409327     7B1     0.409327
      16A1     0.661058

    Beta Occupied:

       1A1   -47.731765     2A1    -3.603151     1B1    -2.385389
       1B2    -2.385389     3A1    -2.229215

    Beta Virtual:

       4A1    -2.184108     5A1    -0.167358     6A1    -0.074956
       2B1    -0.026792     2B2    -0.026792     7A1    -0.018676
       3B2     0.030551     3B1     0.030551     8A1     0.035869
       4B1     0.065980     4B2     0.065980     9A1     0.067337
      10A1     0.130329     5B2     0.171452     5B1     0.171452
      11A1     0.201389    12A1     0.222054    13A1     0.239627
       1A2     0.239654     6B1     0.264646     6B2     0.264646
       2A2     0.367604    14A1     0.367611    15A1     0.405635
       7B2     0.479545     7B1     0.479545    16A1     0.709766

    Final Occupation by Irrep:
             A1    A2    B1    B2
    DOCC [     3,    0,    1,    1 ]
    SOCC [     3,    0,    1,    1 ]
    NA   [     6,    0,    2,    2 ]
    NB   [     3,    0,    1,    1 ]

  @DF-UKS Final Energy:  -205.53991188040013

   => Energetics <=

    Nuclear Repulsion Energy =              7.7583767936698758
    One-Electron Energy =                -296.0798942243183092
    Two-Electron Energy =                  96.9030802438748111
    DFT Exchange-Correlation Energy =     -14.1214746936264710
    Empirical Dispersion Energy =           0.0000000000000000
    VV10 Nonlocal Energy =                  0.0000000000000000
    Total Energy =                       -205.5399118804001262

  UHF NO Occupations:
  HONO-2 :    2 B1 1.0000000
  HONO-1 :    5 A1 1.0000000
  HONO-0 :    6 A1 1.0000000
  LUNO+0 :    7 A1 0.0000208
  LUNO+1 :    8 A1 0.0000027
  LUNO+2 :    3 B2 0.0000010
  LUNO+3 :    3 B1 0.0000010

Computation Completed

Properties will be evaluated at   0.000000,   0.000000,   0.000000 [a0]

Properties computed using the SCF density matrix

 Multipole Moments:

 ------------------------------------------------------------------------------------
     Multipole            Electronic (a.u.)      Nuclear  (a.u.)        Total (a.u.)
 ------------------------------------------------------------------------------------

 L = 1.  Multiply by 2.5417464519 to convert [e a0] to [Debye]
 Dipole X            :          0.0000000            0.0000000            0.0000000
 Dipole Y            :          0.0000000            0.0000000            0.0000000
 Dipole Z            :          3.1743883           -1.8315859            1.3428025
 Magnitude           :                                                    1.3428025

 ------------------------------------------------------------------------------------

*** tstop() called on Joses-MacBook-Pro-2.local at Wed Jul 16 18:33:37 2025
Module time:
	user time   =       4.45 seconds =       0.07 minutes
	system time =       3.56 seconds =       0.06 minutes
	total time  =          0 seconds =       0.00 minutes
Total time:
	user time   =      78.59 seconds =       1.31 minutes
	system time =      74.01 seconds =       1.23 minutes
	total time  =         14 seconds =       0.23 minutes

*** tstart() called on Joses-MacBook-Pro-2.local
*** at Wed Jul 16 18:33:37 2025

         ------------------------------------------------------------
                                   SCF GRAD
                          Rob Parrish, Justin Turney,
                       Andy Simmonett, and Alex Sokolov
         ------------------------------------------------------------

  ==> Geometry <==

    Molecular point group: c2v
    Full point group: C_inf_v

    Geometry (in Angstrom), charge = 0, multiplicity = 6:

       Center              X                  Y                   Z               Mass
    ------------   -----------------  -----------------  -----------------  -----------------
         LI           0.000000000000     0.000000000000     1.899751990466     7.016003436600
         MG           0.000000000000     0.000000000000    -0.555707455596    23.985041697000

  Nuclear repulsion =    7.758376793669876

  ==> Basis Set <==

  Basis Set: CC-PVDZ
    Blend: CC-PVDZ
    Number of shells: 14
    Number of basis functions: 32
    Number of Cartesian functions: 34
    Spherical Harmonics?: true
    Max angular momentum: 2

  ==> DFJKGrad: Density-Fitted SCF Gradients <==

    Gradient:                    1
    J tasked:                  Yes
    K tasked:                  Yes
    wK tasked:                  No
    OpenMP threads:              1
    Integrals threads:           1
    Memory [MiB]:              375
    Schwarz Cutoff:          1E-12
    Fitting Condition:       1E-10

   => Auxiliary Basis Set <=

  Basis Set: (CC-PVDZ AUX)
    Blend: DEF2-UNIVERSAL-JKFIT
    Number of shells: 51
    Number of basis functions: 163
    Number of Cartesian functions: 197
    Spherical Harmonics?: true
    Max angular momentum: 4

  ==> DFT Potential <==

   => LibXC <=

    Version 6.2.2
    S. Lehtola, C. Steigemann, M. J.T. Oliveira, and M. A.L. Marques.,  SoftwareX 7, 1â€“5 (2018) (10.1016/j.softx.2017.11.002)

   => Composite Functional: B3LYP <=

    B3LYP Hyb-GGA Exchange-Correlation Functional

    P. J. Stephens, F. J. Devlin, C. F. Chabalowski, and M. J. Frisch.,  J. Phys. Chem. 98, 11623 (1994) (10.1021/j100096a001)

    Deriv               =              1
    GGA                 =           TRUE
    Meta                =          FALSE

    Exchange Hybrid     =           TRUE
    MP2 Hybrid          =          FALSE

   => Exchange Functionals <=

    0.0800   Slater exchange
    0.7200         Becke 88

   => Exact (HF) Exchange <=

    0.2000               HF

   => Correlation Functionals <=

    0.1900   Vosko, Wilk & Nusair (VWN5_RPA)
    0.8100   Lee, Yang & Parr

   => LibXC Density Thresholds  <==

    XC_HYB_GGA_XC_B3LYP:  1.00E-15

   => Molecular Quadrature <=

    Radial Scheme          =       TREUTLER
    Pruning Scheme         =           NONE
    Nuclear Scheme         =       TREUTLER

    Blocking Scheme        =         OCTREE
    BS radius alpha        =              1
    Pruning alpha          =              1
    Radial Points          =             75
    Spherical Points       =            302
    Total Points           =          43821
    Total Blocks           =            448
    Max Points             =            254
    Max Functions          =             32
    Weights Tolerance      =       1.00E-15

  -Total Gradient:
     Atom            X                  Y                   Z
    ------   -----------------  -----------------  -----------------
       1        0.000000000000     0.000000000000    -0.000038688843
       2       -0.000000000000     0.000000000000     0.000019550528

*** tstop() called on Joses-MacBook-Pro-2.local at Wed Jul 16 18:33:38 2025
Module time:
	user time   =       1.20 seconds =       0.02 minutes
	system time =       1.30 seconds =       0.02 minutes
	total time  =          1 seconds =       0.02 minutes
Total time:
	user time   =      79.80 seconds =       1.33 minutes
	system time =      75.31 seconds =       1.26 minutes
	total time  =         15 seconds =       0.25 minutes

    			-----------------------------------------

    			 OPTKING 3.0: for geometry optimizations

    			     By R.A. King, Bethel University

    			        with contributions from

    			    A.V. Copan, J. Cayton, A. Heide

    			-----------------------------------------

	                            ===> Fragment 1 <==

	 Z (Atomic Numbers)          Masses                          Geom
	       3.000000             7.016003          0.00000000  0.00000000  3.59001097
	      12.000000            23.985042          0.00000000  0.00000000 -1.05013490

	 - Coordinate -           - BOHR/RAD -       - ANG/DEG -
	 R(1,2)           =         4.640146           2.455459

	        --- Internal Coordinate Step in ANG or DEG, aJ/ANG or AJ/DEG ---
	-------------------------------------------------------------------------------
	           Coordinate      Previous         Force          Change          New
	           ----------      --------        ------          ------        ------
	               R(1,2)       2.45546        0.00024        0.00038       2.45584
	-------------------------------------------------------------------------------

	                                 ==> Convergence Check <==

	Measures of convergence in internal coordinates in au.

	Criteria marked as inactive (o), active & met (*), and active & unmet ( ).

	----------------------------------------------------------------------------------------------
	   Step    Total Energy     Delta E     Max Force     RMS Force      Max Disp      RMS Disp
	----------------------------------------------------------------------------------------------
	  Convergence Criteria     1.00e-06 *    3.00e-04 *             o    1.20e-03 *             o
	----------------------------------------------------------------------------------------------
	    12    -205.53991188   -1.62e-07 *    2.91e-05 *    2.91e-05 o    7.21e-04 *    7.21e-04 o  ~
	----------------------------------------------------------------------------------------------

Next Geometry in Ang
	Fragment 1 (Ang)

	   Li   0.0000000000   0.0000000000   1.8999427528
	   Mg   0.0000000000   0.0000000000  -0.5558982180

    Final optimized geometry and variables:
    Molecular point group: c2v
    Full point group: C_inf_v

    Geometry (in Angstrom), charge = 0, multiplicity = 6:

    LI           0.000000000000     0.000000000000     1.899751990466
    MG           0.000000000000     0.000000000000    -0.555707455596

    Psi4 stopped on: Wednesday, 16 July 2025 06:33PM
    Psi4 wall time for execution: 0:00:15.84

*** Psi4 exiting successfully. Buy a developer a beer!
