                               Psi4 1.9.1 release

  ==> Input File <==

--------------------------------------------------------------------------
molecule {
0 6
C   0.00000        0.60000        0.00000
P   0.00000       -0.60000        0.00000
}

set {
basis              cc-pvdz
reference          uks
maxiter            500
geom_maxiter       500
DAMPING_PERCENTAGE 1
guess              SAP
}

optimize('b3lyp')
--------------------------------------------------------------------------

    Molecular point group: c2v
  Charge       = 0
  Multiplicity = 6
  Basis Set: CC-PVDZ
    Blend: CC-PVDZ
  Basis Set: (CC-PVDZ AUX)
    Blend: CC-PVDZ-JKFIT
  @DF-UKS Final Energy:  -378.57702493023055
    Total Energy =                       -378.5770249302304933
 Dipole X            :          0.0000000            0.0000000            0.0000000
 Dipole Y            :          0.0000000            0.0000000            0.0000000
 Dipole Z            :         -0.4041924            0.3083052           -0.0958872
 Magnitude           :                                                    0.0958872
    Molecular point group: c2v
  Basis Set: CC-PVDZ
    Blend: CC-PVDZ
  Basis Set: (CC-PVDZ AUX)
    Blend: CC-PVDZ-JKFIT
  Basis Set: CC-PVDZ
    Blend: CC-PVDZ
  Basis Set: (CC-PVDZ AUX)
    Blend: CC-PVDZ-JKFIT
  @DF-UKS Final Energy:  -378.82149227126160
    Total Energy =                       -378.8214922712616044
  Basis Set: CC-PVDZ
    Blend: CC-PVDZ
  Basis Set: (CC-PVDZ AUX)
    Blend: CC-PVDZ-JKFIT
  Basis Set: CC-PVDZ
    Blend: CC-PVDZ
  @DF-UKS Final Energy:  -379.01145145324307
    Total Energy =                       -379.0114514532431258
  @DF-UKS Final Energy:  -379.11110930038029
    Total Energy =                       -379.1111093003802921
  @DF-UKS Final Energy:  -379.14106763206809
    Total Energy =                       -379.1410676320680295
  @DF-UKS Final Energy:  -379.15427372143984
    Total Energy =                       -379.1542737214398926
  @DF-UKS Final Energy:  -379.15762223275368
    Total Energy =                       -379.1576222327536243
  @DF-UKS Final Energy:  -379.15893189581374
    Total Energy =                       -379.1589318958137937
  @DF-UKS Final Energy:  -379.15922908122553
    Total Energy =                       -379.1592290812255328
  @DF-UKS Final Energy:  -379.15930635179143
    Total Energy =                       -379.1593063517914288
  @DF-UKS Final Energy:  -379.15933263484851
    Total Energy =                       -379.1593326348485107
  Basis Set: (CC-PVDZ AUX)
    Blend: CC-PVDZ-JKFIT
  Basis Set: CC-PVDZ
    Blend: CC-PVDZ
  Basis Set: (CC-PVDZ AUX)
    Blend: CC-PVDZ-JKFIT
  @DF-UKS Final Energy:  -379.15933654049007
    Total Energy =                       -379.1593365404900737
  Basis Set: CC-PVDZ
    Blend: CC-PVDZ
  Basis Set: (CC-PVDZ AUX)
    Blend: CC-PVDZ-JKFIT
  Charge       = 0
  Multiplicity = 6
  Basis Set: CC-PVDZ
    Blend: CC-PVDZ
  Basis Set: (CC-PVDZ AUX)
    Blend: CC-PVDZ-JKFIT

    Orbital Energies [Eh]
    ---------------------

    Alpha Occupied:

       1A1   -77.155748     2A1   -10.245352     3A1    -6.621785
       1B1    -4.785165     1B2    -4.785165     4A1    -4.784140
       5A1    -0.684001     6A1    -0.535280     7A1    -0.314449
       2B2    -0.308666     2B1    -0.308666     3B2    -0.207335
       3B1    -0.207335

    Alpha Virtual:

       8A1    -0.008756     9A1     0.320933    10A1     0.363955
       4B2     0.377127     4B1     0.377127     1A2     0.405394
      11A1     0.405395     5B2     0.405921     5B1     0.405921
      12A1     0.461464     6B2     0.532733     6B1     0.532733
      13A1     0.681109    14A1     0.804764     2A2     1.134458
      15A1     1.134458     7B2     1.231063     7B1     1.231063
      16A1     1.562072

    Beta Occupied:

       1A1   -77.145239     2A1   -10.208556     3A1    -6.610660
       4A1    -4.772374     1B1    -4.766337     1B2    -4.766337
       5A1    -0.579950     6A1    -0.403676

    Beta Virtual:

       7A1    -0.157297     2B2    -0.152021     2B1    -0.152021
       3B2    -0.015746     3B1    -0.015746     8A1     0.065261
       9A1     0.364003    10A1     0.405328     4B2     0.430354
       4B1     0.430354     5B2     0.494739     5B1     0.494739
      11A1     0.503743     1A2     0.503744    12A1     0.530826
       6B2     0.605210     6B1     0.605210    13A1     0.739574
      14A1     0.869182     2A2     1.258014    15A1     1.258019
       7B2     1.331445     7B1     1.331445    16A1     1.648689

    Final Occupation by Irrep:
             A1    A2    B1    B2
    DOCC [     6,    0,    1,    1 ]
    SOCC [     1,    0,    2,    2 ]
    NA   [     7,    0,    3,    3 ]
    NB   [     6,    0,    1,    1 ]

  @DF-UKS Final Energy:  -379.15933680508249

   => Energetics <=

    Nuclear Repulsion Energy =             23.2865860291501470
    One-Electron Energy =                -568.3095171882607701
    Two-Electron Energy =                 188.8339004676381592
    DFT Exchange-Correlation Energy =     -22.9703061136100608
    Empirical Dispersion Energy =           0.0000000000000000
    VV10 Nonlocal Energy =                  0.0000000000000000
    Total Energy =                       -379.1593368050824893

  UHF NO Occupations:
  HONO-2 :    7 A1 1.0000000
  HONO-1 :    3 B1 1.0000000
  HONO-0 :    3 B2 1.0000000
  LUNO+0 :    8 A1 0.0008799
  LUNO+1 :    9 A1 0.0004427
  LUNO+2 :   10 A1 0.0000004
  LUNO+3 :   11 A1 0.0000000

Computation Completed

Properties will be evaluated at   0.000000,   0.000000,   0.000000 [a0]

Properties computed using the SCF density matrix

 Multipole Moments:

 ------------------------------------------------------------------------------------
     Multipole            Electronic (a.u.)      Nuclear  (a.u.)        Total (a.u.)
 ------------------------------------------------------------------------------------

 L = 1.  Multiply by 2.5417464519 to convert [e a0] to [Debye]
 Dipole X            :          0.0000000            0.0000000            0.0000000
 Dipole Y            :          0.0000000            0.0000000            0.0000000
 Dipole Z            :         -1.1374247            0.5254572           -0.6119674
 Magnitude           :                                                    0.6119674

 ------------------------------------------------------------------------------------

*** tstop() called on Joses-MacBook-Pro-2.local at Wed Jul 16 19:04:51 2025
Module time:
	user time   =       3.71 seconds =       0.06 minutes
	system time =       3.30 seconds =       0.05 minutes
	total time  =          1 seconds =       0.02 minutes
Total time:
	user time   =      69.73 seconds =       1.16 minutes
	system time =      73.42 seconds =       1.22 minutes
	total time  =         14 seconds =       0.23 minutes

*** tstart() called on Joses-MacBook-Pro-2.local
*** at Wed Jul 16 19:04:51 2025

         ------------------------------------------------------------
                                   SCF GRAD
                          Rob Parrish, Justin Turney,
                       Andy Simmonett, and Alex Sokolov
         ------------------------------------------------------------

  ==> Geometry <==

    Molecular point group: c2v
    Full point group: C_inf_v

    Geometry (in Angstrom), charge = 0, multiplicity = 6:

       Center              X                  Y                   Z               Mass
    ------------   -----------------  -----------------  -----------------  -----------------
         C            0.000000000000     0.000000000000     1.474104941996    12.000000000000
         P            0.000000000000     0.000000000000    -0.571104643500    30.973761998420

  Nuclear repulsion =   23.286586029150147

  ==> Basis Set <==

  Basis Set: CC-PVDZ
    Blend: CC-PVDZ
    Number of shells: 14
    Number of basis functions: 32
    Number of Cartesian functions: 34
    Spherical Harmonics?: true
    Max angular momentum: 2

  ==> DFJKGrad: Density-Fitted SCF Gradients <==

    Gradient:                    1
    J tasked:                  Yes
    K tasked:                  Yes
    wK tasked:                  No
    OpenMP threads:              1
    Integrals threads:           1
    Memory [MiB]:              375
    Schwarz Cutoff:          1E-12
    Fitting Condition:       1E-10

   => Auxiliary Basis Set <=

  Basis Set: (CC-PVDZ AUX)
    Blend: CC-PVDZ-JKFIT
    Number of shells: 60
    Number of basis functions: 182
    Number of Cartesian functions: 211
    Spherical Harmonics?: true
    Max angular momentum: 3

  ==> DFT Potential <==

   => LibXC <=

    Version 6.2.2
    S. Lehtola, C. Steigemann, M. J.T. Oliveira, and M. A.L. Marques.,  SoftwareX 7, 1â€“5 (2018) (10.1016/j.softx.2017.11.002)

   => Composite Functional: B3LYP <=

    B3LYP Hyb-GGA Exchange-Correlation Functional

    P. J. Stephens, F. J. Devlin, C. F. Chabalowski, and M. J. Frisch.,  J. Phys. Chem. 98, 11623 (1994) (10.1021/j100096a001)

    Deriv               =              1
    GGA                 =           TRUE
    Meta                =          FALSE

    Exchange Hybrid     =           TRUE
    MP2 Hybrid          =          FALSE

   => Exchange Functionals <=

    0.0800   Slater exchange
    0.7200         Becke 88

   => Exact (HF) Exchange <=

    0.2000               HF

   => Correlation Functionals <=

    0.1900   Vosko, Wilk & Nusair (VWN5_RPA)
    0.8100   Lee, Yang & Parr

   => LibXC Density Thresholds  <==

    XC_HYB_GGA_XC_B3LYP:  1.00E-15

   => Molecular Quadrature <=

    Radial Scheme          =       TREUTLER
    Pruning Scheme         =           NONE
    Nuclear Scheme         =       TREUTLER

    Blocking Scheme        =         OCTREE
    BS radius alpha        =              1
    Pruning alpha          =              1
    Radial Points          =             75
    Spherical Points       =            302
    Total Points           =          41963
    Total Blocks           =            379
    Max Points             =            256
    Max Functions          =             32
    Weights Tolerance      =       1.00E-15

  -Total Gradient:
     Atom            X                  Y                   Z
    ------   -----------------  -----------------  -----------------
       1        0.000000000000     0.000000000000    -0.000032822890
       2        0.000000000000     0.000000000000     0.000025990503

*** tstop() called on Joses-MacBook-Pro-2.local at Wed Jul 16 19:04:51 2025
Module time:
	user time   =       0.79 seconds =       0.01 minutes
	system time =       1.54 seconds =       0.03 minutes
	total time  =          0 seconds =       0.00 minutes
Total time:
	user time   =      70.52 seconds =       1.18 minutes
	system time =      74.96 seconds =       1.25 minutes
	total time  =         14 seconds =       0.23 minutes

    			-----------------------------------------

    			 OPTKING 3.0: for geometry optimizations

    			     By R.A. King, Bethel University

    			        with contributions from

    			    A.V. Copan, J. Cayton, A. Heide

    			-----------------------------------------

	                            ===> Fragment 1 <==

	 Z (Atomic Numbers)          Masses                          Geom
	       6.000000            12.000000          0.00000000  0.00000000  2.78565462
	      15.000000            30.973762          0.00000000  0.00000000 -1.07923137

	 - Coordinate -           - BOHR/RAD -       - ANG/DEG -
	 R(1,2)           =         3.864886           2.045210

	        --- Internal Coordinate Step in ANG or DEG, aJ/ANG or AJ/DEG ---
	-------------------------------------------------------------------------------
	           Coordinate      Previous         Force          Change          New
	           ----------      --------        ------          ------        ------
	               R(1,2)       2.04521        0.00024        0.00018       2.04539
	-------------------------------------------------------------------------------

	                                 ==> Convergence Check <==

	Measures of convergence in internal coordinates in au.

	Criteria marked as inactive (o), active & met (*), and active & unmet ( ).

	----------------------------------------------------------------------------------------------
	   Step    Total Energy     Delta E     Max Force     RMS Force      Max Disp      RMS Disp
	----------------------------------------------------------------------------------------------
	  Convergence Criteria     1.00e-06 *    3.00e-04 *             o    1.20e-03 *             o
	----------------------------------------------------------------------------------------------
	    13    -379.15933681   -2.65e-07 *    2.94e-05 *    2.94e-05 o    3.44e-04 *    3.44e-04 o  ~
	----------------------------------------------------------------------------------------------

Next Geometry in Ang
	Fragment 1 (Ang)

	    C   0.0000000000   0.0000000000   1.4741959684
	    P   0.0000000000   0.0000000000  -0.5711956699

    Final optimized geometry and variables:
    Molecular point group: c2v
    Full point group: C_inf_v

    Geometry (in Angstrom), charge = 0, multiplicity = 6:

    C            0.000000000000     0.000000000000     1.474104941996
    P            0.000000000000     0.000000000000    -0.571104643500

    Psi4 stopped on: Wednesday, 16 July 2025 07:04PM
    Psi4 wall time for execution: 0:00:15.28

*** Psi4 exiting successfully. Buy a developer a beer!
