                               Psi4 1.9.1 release

  ==> Input File <==

--------------------------------------------------------------------------
molecule {
0 6
Si   0.00000        0.60000        0.00000
P   0.00000       -0.60000        0.00000
}

set {
basis              cc-pvdz
reference          uks
maxiter            500
geom_maxiter       500
DAMPING_PERCENTAGE 1
guess              SAP
}

optimize('b3lyp')
--------------------------------------------------------------------------

    Molecular point group: c2v
  Charge       = 0
  Multiplicity = 6
  Basis Set: CC-PVDZ
    Blend: CC-PVDZ
  Basis Set: (CC-PVDZ AUX)
    Blend: CC-PVDZ-JKFIT
  @DF-UKS Final Energy:  -629.17437668663933
    Total Energy =                       -629.1743766866393344
 Dipole X            :          0.0000000            0.0000000            0.0000000
 Dipole Y            :          0.0000000            0.0000000            0.0000000
 Dipole Z            :         -1.4418773            0.5377250           -0.9041524
 Magnitude           :                                                    0.9041524
    Molecular point group: c2v
  Basis Set: CC-PVDZ
    Blend: CC-PVDZ
  Basis Set: (CC-PVDZ AUX)
    Blend: CC-PVDZ-JKFIT
  Basis Set: CC-PVDZ
    Blend: CC-PVDZ
  Basis Set: (CC-PVDZ AUX)
    Blend: CC-PVDZ-JKFIT
  @DF-UKS Final Energy:  -629.20566705653016
    Total Energy =                       -629.2056670565302738
  Basis Set: CC-PVDZ
    Blend: CC-PVDZ
  Basis Set: (CC-PVDZ AUX)
    Blend: CC-PVDZ-JKFIT
  Basis Set: CC-PVDZ
    Blend: CC-PVDZ
  @DF-UKS Final Energy:  -629.26522052432449
    Total Energy =                       -629.2652205243244907
  @DF-UKS Final Energy:  -629.47216073362483
    Total Energy =                       -629.4721607336248326
  @DF-UKS Final Energy:  -630.11399425573779
    Total Energy =                       -630.1139942557376799
  @DF-UKS Final Energy:  -630.33609866374991
    Total Energy =                       -630.3360986637499082
  @DF-UKS Final Energy:  -630.53570635978724
    Total Energy =                       -630.5357063597873548
  @DF-UKS Final Energy:  -630.63371333483042
    Total Energy =                       -630.6337133348304178
  @DF-UKS Final Energy:  -630.65589939225663
    Total Energy =                       -630.6558993922566287
  @DF-UKS Final Energy:  -630.66821203639813
    Total Energy =                       -630.6682120363980175
  @DF-UKS Final Energy:  -630.67275674374082
    Total Energy =                       -630.6727567437407060
  @DF-UKS Final Energy:  -630.67405365267700
    Total Energy =                       -630.6740536526771166
  @DF-UKS Final Energy:  -630.67465449850010
    Total Energy =                       -630.6746544985002174
  @DF-UKS Final Energy:  -630.67481185504869
    Total Energy =                       -630.6748118550486879
  @DF-UKS Final Energy:  -630.67487110073807
    Total Energy =                       -630.6748711007380734
  @DF-UKS Final Energy:  -630.67488162487757
    Total Energy =                       -630.6748816248773437
  Basis Set: (CC-PVDZ AUX)
    Blend: CC-PVDZ-JKFIT
  Basis Set: CC-PVDZ
    Blend: CC-PVDZ
  Basis Set: (CC-PVDZ AUX)
    Blend: CC-PVDZ-JKFIT
  @DF-UKS Final Energy:  -630.67488382137776
    Total Energy =                       -630.6748838213776480
  Basis Set: CC-PVDZ
    Blend: CC-PVDZ
  Basis Set: (CC-PVDZ AUX)
    Blend: CC-PVDZ-JKFIT
  Charge       = 0
  Multiplicity = 6
  Basis Set: CC-PVDZ
    Blend: CC-PVDZ
  Basis Set: (CC-PVDZ AUX)
    Blend: CC-PVDZ-JKFIT

    Orbital Energies [Eh]
    ---------------------

    Alpha Occupied:

       1A1   -77.154112     2A1   -66.148851     3A1    -6.621528
       4A1    -5.292531     1B1    -4.784817     1B2    -4.784817
       5A1    -4.784647     6A1    -3.653605     2B1    -3.650814
       2B2    -3.650814     7A1    -0.636681     8A1    -0.452753
       9A1    -0.292953     3B2    -0.290954     3B1    -0.290954
       4B1    -0.175217     4B2    -0.175217

    Alpha Virtual:

      10A1    -0.055935    11A1     0.239295    12A1     0.264588
       5B1     0.287970     5B2     0.287970    13A1     0.314843
       6B1     0.315167     6B2     0.315167     1A2     0.343965
      14A1     0.343966     7B1     0.384489     7B2     0.384489
      15A1     0.408331     2A2     0.408334    16A1     0.410816
      17A1     0.488173     8B1     0.522397     8B2     0.522397
      18A1     0.797726

    Beta Occupied:

       1A1   -77.142611     2A1   -66.141725     3A1    -6.609354
       4A1    -5.284246     5A1    -4.769037     1B1    -4.765626
       1B2    -4.765626     6A1    -3.647131     2B1    -3.637201
       2B2    -3.637201     7A1    -0.531958     8A1    -0.368825

    Beta Virtual:

       9A1    -0.172582     3B2    -0.146873     3B1    -0.146873
       4B1    -0.050453     4B2    -0.050453    10A1    -0.003550
      11A1     0.275838    12A1     0.299649     5B1     0.354537
       5B2     0.354537    13A1     0.357072     6B2     0.359166
       6B1     0.359166     1A2     0.427770    14A1     0.427771
       7B1     0.439124     7B2     0.439124    15A1     0.461317
      16A1     0.505653     2A2     0.505654    17A1     0.532040
       8B2     0.592740     8B1     0.592740    18A1     0.849035

    Final Occupation by Irrep:
             A1    A2    B1    B2
    DOCC [     8,    0,    2,    2 ]
    SOCC [     1,    0,    2,    2 ]
    NA   [     9,    0,    4,    4 ]
    NB   [     8,    0,    2,    2 ]

  @DF-UKS Final Energy:  -630.67488403138339

   => Energetics <=

    Nuclear Repulsion Energy =             41.5232431711871826
    One-Electron Energy =                -954.9947502434357602
    Two-Electron Energy =                 318.2666149271826157
    DFT Exchange-Correlation Energy =     -35.4699918863174872
    Empirical Dispersion Energy =           0.0000000000000000
    VV10 Nonlocal Energy =                  0.0000000000000000
    Total Energy =                       -630.6748840313834990

  UHF NO Occupations:
  HONO-2 :    4 B1 1.0000000
  HONO-1 :    9 A1 1.0000000
  HONO-0 :    4 B2 1.0000000
  LUNO+0 :   10 A1 0.0016807
  LUNO+1 :   11 A1 0.0001771
  LUNO+2 :   12 A1 0.0000001
  LUNO+3 :    5 B2 0.0000001

Computation Completed

Properties will be evaluated at   0.000000,   0.000000,   0.000000 [a0]

Properties computed using the SCF density matrix

 Multipole Moments:

 ------------------------------------------------------------------------------------
     Multipole            Electronic (a.u.)      Nuclear  (a.u.)        Total (a.u.)
 ------------------------------------------------------------------------------------

 L = 1.  Multiply by 2.5417464519 to convert [e a0] to [Debye]
 Dipole X            :          0.0000000            0.0000000            0.0000000
 Dipole Y            :          0.0000000            0.0000000            0.0000000
 Dipole Z            :         -1.8125972            1.1992455           -0.6133517
 Magnitude           :                                                    0.6133517

 ------------------------------------------------------------------------------------

*** tstop() called on Joses-MacBook-Pro-2.local at Wed Jul 16 20:15:20 2025
Module time:
	user time   =       7.25 seconds =       0.12 minutes
	system time =       1.49 seconds =       0.02 minutes
	total time  =          1 seconds =       0.02 minutes
Total time:
	user time   =     196.88 seconds =       3.28 minutes
	system time =      55.66 seconds =       0.93 minutes
	total time  =         24 seconds =       0.40 minutes

*** tstart() called on Joses-MacBook-Pro-2.local
*** at Wed Jul 16 20:15:20 2025

         ------------------------------------------------------------
                                   SCF GRAD
                          Rob Parrish, Justin Turney,
                       Andy Simmonett, and Alex Sokolov
         ------------------------------------------------------------

  ==> Geometry <==

    Molecular point group: c2v
    Full point group: C_inf_v

    Geometry (in Angstrom), charge = 0, multiplicity = 6:

       Center              X                  Y                   Z               Mass
    ------------   -----------------  -----------------  -----------------  -----------------
         SI           0.000000000000     0.000000000000     1.406158368302    27.976926534650
         P            0.000000000000     0.000000000000    -1.270106917205    30.973761998420

  Nuclear repulsion =   41.523243171187183

  ==> Basis Set <==

  Basis Set: CC-PVDZ
    Blend: CC-PVDZ
    Number of shells: 16
    Number of basis functions: 36
    Number of Cartesian functions: 38
    Spherical Harmonics?: true
    Max angular momentum: 2

  ==> DFJKGrad: Density-Fitted SCF Gradients <==

    Gradient:                    1
    J tasked:                  Yes
    K tasked:                  Yes
    wK tasked:                  No
    OpenMP threads:              1
    Integrals threads:           1
    Memory [MiB]:              375
    Schwarz Cutoff:          1E-12
    Fitting Condition:       1E-10

   => Auxiliary Basis Set <=

  Basis Set: (CC-PVDZ AUX)
    Blend: CC-PVDZ-JKFIT
    Number of shells: 72
    Number of basis functions: 224
    Number of Cartesian functions: 260
    Spherical Harmonics?: true
    Max angular momentum: 3

  ==> DFT Potential <==

   => LibXC <=

    Version 6.2.2
    S. Lehtola, C. Steigemann, M. J.T. Oliveira, and M. A.L. Marques.,  SoftwareX 7, 1â€“5 (2018) (10.1016/j.softx.2017.11.002)

   => Composite Functional: B3LYP <=

    B3LYP Hyb-GGA Exchange-Correlation Functional

    P. J. Stephens, F. J. Devlin, C. F. Chabalowski, and M. J. Frisch.,  J. Phys. Chem. 98, 11623 (1994) (10.1021/j100096a001)

    Deriv               =              1
    GGA                 =           TRUE
    Meta                =          FALSE

    Exchange Hybrid     =           TRUE
    MP2 Hybrid          =          FALSE

   => Exchange Functionals <=

    0.0800   Slater exchange
    0.7200         Becke 88

   => Exact (HF) Exchange <=

    0.2000               HF

   => Correlation Functionals <=

    0.1900   Vosko, Wilk & Nusair (VWN5_RPA)
    0.8100   Lee, Yang & Parr

   => LibXC Density Thresholds  <==

    XC_HYB_GGA_XC_B3LYP:  1.00E-15

   => Molecular Quadrature <=

    Radial Scheme          =       TREUTLER
    Pruning Scheme         =           NONE
    Nuclear Scheme         =       TREUTLER

    Blocking Scheme        =         OCTREE
    BS radius alpha        =              1
    Pruning alpha          =              1
    Radial Points          =             75
    Spherical Points       =            302
    Total Points           =          41655
    Total Blocks           =            384
    Max Points             =            256
    Max Functions          =             36
    Weights Tolerance      =       1.00E-15

  -Total Gradient:
     Atom            X                  Y                   Z
    ------   -----------------  -----------------  -----------------
       1        0.000000000000     0.000000000000    -0.000015411300
       2       -0.000000000000    -0.000000000000     0.000027566314

*** tstop() called on Joses-MacBook-Pro-2.local at Wed Jul 16 20:15:21 2025
Module time:
	user time   =       2.56 seconds =       0.04 minutes
	system time =       0.85 seconds =       0.01 minutes
	total time  =          1 seconds =       0.02 minutes
Total time:
	user time   =     199.44 seconds =       3.32 minutes
	system time =      56.51 seconds =       0.94 minutes
	total time  =         25 seconds =       0.42 minutes

    			-----------------------------------------

    			 OPTKING 3.0: for geometry optimizations

    			     By R.A. King, Bethel University

    			        with contributions from

    			    A.V. Copan, J. Cayton, A. Heide

    			-----------------------------------------

	                            ===> Fragment 1 <==

	 Z (Atomic Numbers)          Masses                          Geom
	      14.000000            27.976927          0.00000000  0.00000000  2.65725421
	      15.000000            30.973762          0.00000000  0.00000000 -2.40015422

	 - Coordinate -           - BOHR/RAD -       - ANG/DEG -
	 R(1,2)           =         5.057408           2.676265

	        --- Internal Coordinate Step in ANG or DEG, aJ/ANG or AJ/DEG ---
	-------------------------------------------------------------------------------
	           Coordinate      Previous         Force          Change          New
	           ----------      --------        ------          ------        ------
	               R(1,2)       2.67627        0.00018        0.00053       2.67680
	-------------------------------------------------------------------------------

	                                 ==> Convergence Check <==

	Measures of convergence in internal coordinates in au.

	Criteria marked as inactive (o), active & met (*), and active & unmet ( ).

	----------------------------------------------------------------------------------------------
	   Step    Total Energy     Delta E     Max Force     RMS Force      Max Disp      RMS Disp
	----------------------------------------------------------------------------------------------
	  Convergence Criteria     1.00e-06 *    3.00e-04 *             o    1.20e-03 *             o
	----------------------------------------------------------------------------------------------
	    18    -630.67488403   -2.10e-07 *    2.15e-05 *    2.15e-05 o    1.01e-03 *    1.01e-03 o  ~
	----------------------------------------------------------------------------------------------

Next Geometry in Ang
	Fragment 1 (Ang)

	   Si   0.0000000000   0.0000000000   1.4064251809
	    P   0.0000000000   0.0000000000  -1.2703737298

    Final optimized geometry and variables:
    Molecular point group: c2v
    Full point group: C_inf_v

    Geometry (in Angstrom), charge = 0, multiplicity = 6:

    SI           0.000000000000     0.000000000000     1.406158368302
    P            0.000000000000     0.000000000000    -1.270106917205

    Psi4 stopped on: Wednesday, 16 July 2025 08:15PM
    Psi4 wall time for execution: 0:00:24.80

*** Psi4 exiting successfully. Buy a developer a beer!
