                               Psi4 1.9.1 release

  ==> Input File <==

--------------------------------------------------------------------------
molecule {
0 6
F   0.00000        0.60000        0.00000
Si   0.00000       -0.60000        0.00000
}

set {
basis              cc-pvdz
reference          uks
maxiter            500
geom_maxiter       500
DAMPING_PERCENTAGE 1
guess              SAP
}

optimize('b3lyp')
--------------------------------------------------------------------------

    Molecular point group: c2v
  Charge       = 0
  Multiplicity = 6
  Basis Set: CC-PVDZ
    Blend: CC-PVDZ
  Basis Set: (CC-PVDZ AUX)
    Blend: CC-PVDZ-JKFIT
  @DF-UKS Final Energy:  -388.28170857896981
    Total Energy =                       -388.2817085789698126
 Dipole X            :          0.0000000            0.0000000            0.0000000
 Dipole Y            :          0.0000000            0.0000000            0.0000000
 Dipole Z            :          1.7882997           -0.6847767            1.1035230
 Magnitude           :                                                    1.1035230
    Molecular point group: c2v
  Basis Set: CC-PVDZ
    Blend: CC-PVDZ
  Basis Set: (CC-PVDZ AUX)
    Blend: CC-PVDZ-JKFIT
  Basis Set: CC-PVDZ
    Blend: CC-PVDZ
  Basis Set: (CC-PVDZ AUX)
    Blend: CC-PVDZ-JKFIT
  @DF-UKS Final Energy:  -388.50251785397359
    Total Energy =                       -388.5025178539735862
  Basis Set: CC-PVDZ
    Blend: CC-PVDZ
  Basis Set: (CC-PVDZ AUX)
    Blend: CC-PVDZ-JKFIT
  Basis Set: CC-PVDZ
    Blend: CC-PVDZ
  @DF-UKS Final Energy:  -388.64654766685635
    Total Energy =                       -388.6465476668563497
  @DF-UKS Final Energy:  -388.74910508096792
    Total Energy =                       -388.7491050809679223
  @DF-UKS Final Energy:  -388.83819077002676
    Total Energy =                       -388.8381907700266993
  @DF-UKS Final Energy:  -388.89327106688188
    Total Energy =                       -388.8932710668818800
  @DF-UKS Final Energy:  -388.92063060655028
    Total Energy =                       -388.9206306065502190
  @DF-UKS Final Energy:  -388.93445044220641
    Total Energy =                       -388.9344504422064119
  @DF-UKS Final Energy:  -388.94165489390394
    Total Energy =                       -388.9416548939039444
  @DF-UKS Final Energy:  -388.94541604542189
    Total Energy =                       -388.9454160454218368
  @DF-UKS Final Energy:  -388.94735559682425
    Total Energy =                       -388.9473555968242522
  @DF-UKS Final Energy:  -388.94833821580522
    Total Energy =                       -388.9483382158052223
  @DF-UKS Final Energy:  -388.94882837034567
    Total Energy =                       -388.9488283703456659
  @DF-UKS Final Energy:  -388.94906935722673
    Total Energy =                       -388.9490693572267332
  @DF-UKS Final Energy:  -388.94918601800850
    Total Energy =                       -388.9491860180085041
  @DF-UKS Final Energy:  -388.94924171349447
    Total Energy =                       -388.9492417134944731
  @DF-UKS Final Energy:  -388.94926738703384
    Total Energy =                       -388.9492673870338422
  @DF-UKS Final Energy:  -388.94927859414963
    Total Energy =                       -388.9492785941496322
  @DF-UKS Final Energy:  -388.94928383649005
    Total Energy =                       -388.9492838364900535
  @DF-UKS Final Energy:  -388.94928652657671
    Total Energy =                       -388.9492865265767136
  Basis Set: (CC-PVDZ AUX)
    Blend: CC-PVDZ-JKFIT
  Basis Set: CC-PVDZ
    Blend: CC-PVDZ
  Basis Set: (CC-PVDZ AUX)
    Blend: CC-PVDZ-JKFIT
  @DF-UKS Final Energy:  -388.94928957891256
    Total Energy =                       -388.9492895789125555
  Basis Set: CC-PVDZ
    Blend: CC-PVDZ
  Basis Set: (CC-PVDZ AUX)
    Blend: CC-PVDZ-JKFIT
  Charge       = 0
  Multiplicity = 6
  Basis Set: CC-PVDZ
    Blend: CC-PVDZ
  Basis Set: (CC-PVDZ AUX)
    Blend: CC-PVDZ-JKFIT

    Orbital Energies [Eh]
    ---------------------

    Alpha Occupied:

       1A1   -66.209955     2A1   -24.780748     3A1    -5.354090
       4A1    -3.713993     1B2    -3.713985     1B1    -3.713985
       5A1    -1.210796     6A1    -0.538132     7A1    -0.507526
       2B1    -0.448834     2B2    -0.448834     8A1    -0.225385
       3B2    -0.225193     3B1    -0.225193

    Alpha Virtual:

       9A1     0.217494    10A1     0.277321     4B2     0.277730
       4B1     0.277730    11A1     0.303088     5B2     0.303159
       5B1     0.303159     1A2     0.303267    12A1     0.303267
      13A1     1.036849     6B1     1.091617     6B2     1.091617
      14A1     1.423956    15A1     3.439616     7B1     3.461575
       7B2     3.461575     2A2     3.531009    16A1     3.531052

    Beta Occupied:

       1A1   -66.193872     2A1   -24.750099     3A1    -5.333068
       4A1    -3.691437     1B2    -3.691422     1B1    -3.691422
       5A1    -1.119947     2B1    -0.417481     2B2    -0.417481

    Beta Virtual:

       6A1    -0.278655     7A1    -0.244066     8A1    -0.038142
       3B2    -0.038001     3B1    -0.038001     9A1     0.293184
      10A1     0.354094     4B2     0.354260     4B1     0.354260
      11A1     0.446670     5B1     0.446732     5B2     0.446732
       1A2     0.446837    12A1     0.446838     6B1     1.109602
       6B2     1.109602    13A1     1.148236    14A1     1.471216
       2A2     3.546159    15A1     3.546199     7B1     3.556650
       7B2     3.556650    16A1     3.576115

    Final Occupation by Irrep:
             A1    A2    B1    B2
    DOCC [     5,    0,    2,    2 ]
    SOCC [     3,    0,    1,    1 ]
    NA   [     8,    0,    3,    3 ]
    NB   [     5,    0,    2,    2 ]

  @DF-UKS Final Energy:  -388.94929397968349

   => Energetics <=

    Nuclear Repulsion Energy =             13.1526936084099191
    One-Electron Energy =                -565.6006278675313297
    Two-Electron Energy =                 188.6832785653900544
    DFT Exchange-Correlation Energy =     -25.1846382859521363
    Empirical Dispersion Energy =           0.0000000000000000
    VV10 Nonlocal Energy =                  0.0000000000000000
    Total Energy =                       -388.9492939796834889

  UHF NO Occupations:
  HONO-2 :    3 B1 1.0000000
  HONO-1 :    7 A1 1.0000000
  HONO-0 :    8 A1 1.0000000
  LUNO+0 :    9 A1 0.0003066
  LUNO+1 :    4 B2 0.0000546
  LUNO+2 :    4 B1 0.0000546
  LUNO+3 :   10 A1 0.0000001

Computation Completed

Properties will be evaluated at   0.000000,   0.000000,   0.000000 [a0]

Properties computed using the SCF density matrix

 Multipole Moments:

 ------------------------------------------------------------------------------------
     Multipole            Electronic (a.u.)      Nuclear  (a.u.)        Total (a.u.)
 ------------------------------------------------------------------------------------

 L = 1.  Multiply by 2.5417464519 to convert [e a0] to [Debye]
 Dipole X            :          0.0000000            0.0000000            0.0000000
 Dipole Y            :          0.0000000            0.0000000            0.0000000
 Dipole Z            :          2.8896127           -2.8928419           -0.0032292
 Magnitude           :                                                    0.0032292

 ------------------------------------------------------------------------------------

*** tstop() called on Joses-MacBook-Pro-2.local at Wed Jul 16 19:28:52 2025
Module time:
	user time   =       3.53 seconds =       0.06 minutes
	system time =       2.37 seconds =       0.04 minutes
	total time  =          0 seconds =       0.00 minutes
Total time:
	user time   =     102.95 seconds =       1.72 minutes
	system time =      99.29 seconds =       1.65 minutes
	total time  =         19 seconds =       0.32 minutes

*** tstart() called on Joses-MacBook-Pro-2.local
*** at Wed Jul 16 19:28:52 2025

         ------------------------------------------------------------
                                   SCF GRAD
                          Rob Parrish, Justin Turney,
                       Andy Simmonett, and Alex Sokolov
         ------------------------------------------------------------

  ==> Geometry <==

    Molecular point group: c2v
    Full point group: C_inf_v

    Geometry (in Angstrom), charge = 0, multiplicity = 6:

       Center              X                  Y                   Z               Mass
    ------------   -----------------  -----------------  -----------------  -----------------
         F            0.000000000000     0.000000000000     3.019167028709    18.998403162730
         SI           0.000000000000     0.000000000000    -2.050237804213    27.976926534650

  Nuclear repulsion =   13.152693608409919

  ==> Basis Set <==

  Basis Set: CC-PVDZ
    Blend: CC-PVDZ
    Number of shells: 14
    Number of basis functions: 32
    Number of Cartesian functions: 34
    Spherical Harmonics?: true
    Max angular momentum: 2

  ==> DFJKGrad: Density-Fitted SCF Gradients <==

    Gradient:                    1
    J tasked:                  Yes
    K tasked:                  Yes
    wK tasked:                  No
    OpenMP threads:              1
    Integrals threads:           1
    Memory [MiB]:              375
    Schwarz Cutoff:          1E-12
    Fitting Condition:       1E-10

   => Auxiliary Basis Set <=

  Basis Set: (CC-PVDZ AUX)
    Blend: CC-PVDZ-JKFIT
    Number of shells: 60
    Number of basis functions: 182
    Number of Cartesian functions: 211
    Spherical Harmonics?: true
    Max angular momentum: 3

  ==> DFT Potential <==

   => LibXC <=

    Version 6.2.2
    S. Lehtola, C. Steigemann, M. J.T. Oliveira, and M. A.L. Marques.,  SoftwareX 7, 1â€“5 (2018) (10.1016/j.softx.2017.11.002)

   => Composite Functional: B3LYP <=

    B3LYP Hyb-GGA Exchange-Correlation Functional

    P. J. Stephens, F. J. Devlin, C. F. Chabalowski, and M. J. Frisch.,  J. Phys. Chem. 98, 11623 (1994) (10.1021/j100096a001)

    Deriv               =              1
    GGA                 =           TRUE
    Meta                =          FALSE

    Exchange Hybrid     =           TRUE
    MP2 Hybrid          =          FALSE

   => Exchange Functionals <=

    0.0800   Slater exchange
    0.7200         Becke 88

   => Exact (HF) Exchange <=

    0.2000               HF

   => Correlation Functionals <=

    0.1900   Vosko, Wilk & Nusair (VWN5_RPA)
    0.8100   Lee, Yang & Parr

   => LibXC Density Thresholds  <==

    XC_HYB_GGA_XC_B3LYP:  1.00E-15

   => Molecular Quadrature <=

    Radial Scheme          =       TREUTLER
    Pruning Scheme         =           NONE
    Nuclear Scheme         =       TREUTLER

    Blocking Scheme        =         OCTREE
    BS radius alpha        =              1
    Pruning alpha          =              1
    Radial Points          =             75
    Spherical Points       =            302
    Total Points           =          43106
    Total Blocks           =            442
    Max Points             =            256
    Max Functions          =             32
    Weights Tolerance      =       1.00E-15

  -Total Gradient:
     Atom            X                  Y                   Z
    ------   -----------------  -----------------  -----------------
       1        0.000000000000     0.000000000000    -0.000019471231
       2       -0.000000000000     0.000000000000     0.000015300396

*** tstop() called on Joses-MacBook-Pro-2.local at Wed Jul 16 19:28:53 2025
Module time:
	user time   =       0.91 seconds =       0.02 minutes
	system time =       1.36 seconds =       0.02 minutes
	total time  =          1 seconds =       0.02 minutes
Total time:
	user time   =     103.87 seconds =       1.73 minutes
	system time =     100.65 seconds =       1.68 minutes
	total time  =         20 seconds =       0.33 minutes

    			-----------------------------------------

    			 OPTKING 3.0: for geometry optimizations

    			     By R.A. King, Bethel University

    			        with contributions from

    			    A.V. Copan, J. Cayton, A. Heide

    			-----------------------------------------

	                            ===> Fragment 1 <==

	 Z (Atomic Numbers)          Masses                          Geom
	       9.000000            18.998403          0.00000000  0.00000000  5.70539881
	      14.000000            27.976927          0.00000000  0.00000000 -3.87438794

	 - Coordinate -           - BOHR/RAD -       - ANG/DEG -
	 R(1,2)           =         9.579787           5.069405

	        --- Internal Coordinate Step in ANG or DEG, aJ/ANG or AJ/DEG ---
	-------------------------------------------------------------------------------
	           Coordinate      Previous         Force          Change          New
	           ----------      --------        ------          ------        ------
	               R(1,2)       5.06940        0.00014        0.00006       5.06946
	-------------------------------------------------------------------------------

	                                 ==> Convergence Check <==

	Measures of convergence in internal coordinates in au.

	Criteria marked as inactive (o), active & met (*), and active & unmet ( ).

	----------------------------------------------------------------------------------------------
	   Step    Total Energy     Delta E     Max Force     RMS Force      Max Disp      RMS Disp
	----------------------------------------------------------------------------------------------
	  Convergence Criteria     1.00e-06 *    3.00e-04 *             o    1.20e-03 *             o
	----------------------------------------------------------------------------------------------
	    22    -388.94929398   -4.40e-06      1.74e-05 *    1.74e-05 o    1.12e-04 *    1.12e-04 o  ~
	----------------------------------------------------------------------------------------------

Next Geometry in Ang
	Fragment 1 (Ang)

	    F   0.0000000000   0.0000000000   3.0191965647
	   Si   0.0000000000   0.0000000000  -2.0502673402

    Final optimized geometry and variables:
    Molecular point group: c2v
    Full point group: C_inf_v

    Geometry (in Angstrom), charge = 0, multiplicity = 6:

    F            0.000000000000     0.000000000000     3.019167028709
    SI           0.000000000000     0.000000000000    -2.050237804213

    Psi4 stopped on: Wednesday, 16 July 2025 07:28PM
    Psi4 wall time for execution: 0:00:20.43

*** Psi4 exiting successfully. Buy a developer a beer!
