                               Psi4 1.9.1 release

  ==> Input File <==

--------------------------------------------------------------------------
molecule {
0 6
Li   0.00000        0.60000        0.00000
Si   0.00000       -0.60000        0.00000
}

set {
basis              cc-pvdz
reference          uks
maxiter            500
geom_maxiter       500
DAMPING_PERCENTAGE 1
guess              SAP
}

optimize('b3lyp')
--------------------------------------------------------------------------

    Molecular point group: c2v
  Charge       = 0
  Multiplicity = 6
  Basis Set: CC-PVDZ
    Blend: CC-PVDZ
  Basis Set: (CC-PVDZ AUX)
    Blend: CC-PVDZ-JKFIT + DEF2-UNIVERSAL-JKFIT
  @DF-UKS Final Energy:  -296.22259967073512
    Total Energy =                       -296.2225996707351214
 Dipole X            :          0.0000000            0.0000000            0.0000000
 Dipole Y            :          0.0000000            0.0000000            0.0000000
 Dipole Z            :         -0.7735559           -0.9262567           -1.6998126
 Magnitude           :                                                    1.6998126
    Molecular point group: c2v
  Basis Set: CC-PVDZ
    Blend: CC-PVDZ
  Basis Set: (CC-PVDZ AUX)
    Blend: CC-PVDZ-JKFIT + DEF2-UNIVERSAL-JKFIT
  Basis Set: CC-PVDZ
    Blend: CC-PVDZ
  Basis Set: (CC-PVDZ AUX)
    Blend: CC-PVDZ-JKFIT + DEF2-UNIVERSAL-JKFIT
  @DF-UKS Final Energy:  -296.32271198223134
    Total Energy =                       -296.3227119822313398
  Basis Set: CC-PVDZ
    Blend: CC-PVDZ
  Basis Set: (CC-PVDZ AUX)
    Blend: CC-PVDZ-JKFIT + DEF2-UNIVERSAL-JKFIT
  Basis Set: CC-PVDZ
    Blend: CC-PVDZ
  @DF-UKS Final Energy:  -296.43735216654090
    Total Energy =                       -296.4373521665409044
  @DF-UKS Final Energy:  -296.56100558232538
    Total Energy =                       -296.5610055823253788
  @DF-UKS Final Energy:  -296.62669320742663
    Total Energy =                       -296.6266932074266265
  @DF-UKS Final Energy:  -296.66147718805354
    Total Energy =                       -296.6614771880534818
  @DF-UKS Final Energy:  -296.68067399875332
    Total Energy =                       -296.6806739987533206
  @DF-UKS Final Energy:  -296.69161353198854
    Total Energy =                       -296.6916135319885939
  @DF-UKS Final Energy:  -296.69836777610527
    Total Energy =                       -296.6983677761052149
  @DF-UKS Final Energy:  -296.70304931066448
    Total Energy =                       -296.7030493106644826
  @DF-UKS Final Energy:  -296.70332330869439
    Total Energy =                       -296.7033233086943937
  @DF-UKS Final Energy:  -296.70722091634815
    Total Energy =                       -296.7072209163481489
  @DF-UKS Final Energy:  -296.70734460501058
    Total Energy =                       -296.7073446050105758
  @DF-UKS Final Energy:  -296.70999299509060
    Total Energy =                       -296.7099929950906017
  @DF-UKS Final Energy:  -296.71005101671011
    Total Energy =                       -296.7100510167101675
  @DF-UKS Final Energy:  -296.71170374053975
    Total Energy =                       -296.7117037405397468
  @DF-UKS Final Energy:  -296.71172862474094
    Total Energy =                       -296.7117286247409425
  @DF-UKS Final Energy:  -296.71270032884689
    Total Energy =                       -296.7127003288468927
  @DF-UKS Final Energy:  -296.71271029381478
    Total Energy =                       -296.7127102938147232
  @DF-UKS Final Energy:  -296.71272013542068
    Total Energy =                       -296.7127201354206818
  @DF-UKS Final Energy:  -296.71327955732551
    Total Energy =                       -296.7132795573255066
  @DF-UKS Final Energy:  -296.71328345592320
    Total Energy =                       -296.7132834559232606
  @DF-UKS Final Energy:  -296.71328732192092
    Total Energy =                       -296.7132873219209728
  @DF-UKS Final Energy:  -296.71329115563913
    Total Energy =                       -296.7132911556391264
  @DF-UKS Final Energy:  -296.71362416048561
    Total Energy =                       -296.7136241604856082
  @DF-UKS Final Energy:  -296.71362567004456
    Total Energy =                       -296.7136256700445642
  @DF-UKS Final Energy:  -296.71362717158490
    Total Energy =                       -296.7136271715849034
  @DF-UKS Final Energy:  -296.71362866482139
    Total Energy =                       -296.7136286648213854
  @DF-UKS Final Energy:  -296.71363014985042
    Total Energy =                       -296.7136301498504736
  @DF-UKS Final Energy:  -296.71363162674271
    Total Energy =                       -296.7136316267427674
  Basis Set: (CC-PVDZ AUX)
    Blend: CC-PVDZ-JKFIT + DEF2-UNIVERSAL-JKFIT
  Basis Set: CC-PVDZ
    Blend: CC-PVDZ
  Basis Set: (CC-PVDZ AUX)
    Blend: CC-PVDZ-JKFIT + DEF2-UNIVERSAL-JKFIT
  @DF-UKS Final Energy:  -296.71382970086717
    Total Energy =                       -296.7138297008671657
  Basis Set: CC-PVDZ
    Blend: CC-PVDZ
  Basis Set: (CC-PVDZ AUX)
    Blend: CC-PVDZ-JKFIT + DEF2-UNIVERSAL-JKFIT
  Charge       = 0
  Multiplicity = 6
  Basis Set: CC-PVDZ
    Blend: CC-PVDZ
  Basis Set: (CC-PVDZ AUX)
    Blend: CC-PVDZ-JKFIT + DEF2-UNIVERSAL-JKFIT

    Orbital Energies [Eh]
    ---------------------

    Alpha Occupied:

       1A1   -66.210359     2A1    -5.354396     3A1    -3.714304
       1B2    -3.714288     1B1    -3.714288     4A1    -2.032285
       5A1    -0.507713     6A1    -0.225695     2B1    -0.225377
       2B2    -0.225377     7A1    -0.134020

    Alpha Virtual:

       3B1    -0.031862     3B2    -0.031862     8A1    -0.030425
       4B1     0.071366     4B2     0.071366     9A1     0.072836
      10A1     0.084659    11A1     0.208390     5B1     0.217836
       5B2     0.217836    12A1     0.218117     1A2     0.218118
      13A1     0.238037     6B2     0.280169     6B1     0.280169
      14A1     0.299736    15A1     0.303057     2A2     0.303082
       7B2     0.303549     7B1     0.303549    16A1     0.323492

    Beta Occupied:

       1A1   -66.194272     2A1    -5.333369     3A1    -3.691745
       1B2    -3.691722     1B1    -3.691722     4A1    -2.025001

    Beta Virtual:

       5A1    -0.278818     6A1    -0.056706     2B1    -0.038569
       2B2    -0.038569     7A1    -0.038304     3B1     0.003663
       3B2     0.003663     8A1     0.009130     4B1     0.089958
       4B2     0.089958     9A1     0.093270    10A1     0.110638
      11A1     0.256630     5B1     0.263401     5B2     0.263401
       1A2     0.264046    12A1     0.264062    13A1     0.313302
       6B1     0.356293     6B2     0.356293    14A1     0.388432
      15A1     0.446618     2A2     0.446660     7B2     0.447024
       7B1     0.447024    16A1     0.449415

    Final Occupation by Irrep:
             A1    A2    B1    B2
    DOCC [     4,    0,    1,    1 ]
    SOCC [     3,    0,    1,    1 ]
    NA   [     7,    0,    2,    2 ]
    NB   [     4,    0,    1,    1 ]

  @DF-UKS Final Energy:  -296.71383027852607

   => Energetics <=

    Nuclear Repulsion Energy =              3.8830028939967023
    One-Electron Energy =                -417.4767043125103783
    Two-Electron Energy =                 135.1550892196730445
    DFT Exchange-Correlation Energy =     -18.2752180796854482
    Empirical Dispersion Energy =           0.0000000000000000
    VV10 Nonlocal Energy =                  0.0000000000000000
    Total Energy =                       -296.7138302785260180

  UHF NO Occupations:
  HONO-2 :    5 A1 1.0000000
  HONO-1 :    6 A1 1.0000000
  HONO-0 :    7 A1 1.0000000
  LUNO+0 :    8 A1 0.0000002
  LUNO+1 :    3 B2 0.0000002
  LUNO+2 :    3 B1 0.0000002
  LUNO+3 :    9 A1 0.0000001

Computation Completed

Properties will be evaluated at   0.000000,   0.000000,   0.000000 [a0]

Properties computed using the SCF density matrix

 Multipole Moments:

 ------------------------------------------------------------------------------------
     Multipole            Electronic (a.u.)      Nuclear  (a.u.)        Total (a.u.)
 ------------------------------------------------------------------------------------

 L = 1.  Multiply by 2.5417464519 to convert [e a0] to [Debye]
 Dipole X            :          0.0000000            0.0000000            0.0000000
 Dipole Y            :          0.0000000            0.0000000            0.0000000
 Dipole Z            :          4.3533400           -4.4180723           -0.0647323
 Magnitude           :                                                    0.0647323

 ------------------------------------------------------------------------------------

*** tstop() called on Joses-MacBook-Pro-2.local at Wed Jul 16 18:35:12 2025
Module time:
	user time   =       2.90 seconds =       0.05 minutes
	system time =       1.64 seconds =       0.03 minutes
	total time  =          0 seconds =       0.00 minutes
Total time:
	user time   =     120.03 seconds =       2.00 minutes
	system time =     155.48 seconds =       2.59 minutes
	total time  =         27 seconds =       0.45 minutes

*** tstart() called on Joses-MacBook-Pro-2.local
*** at Wed Jul 16 18:35:12 2025

         ------------------------------------------------------------
                                   SCF GRAD
                          Rob Parrish, Justin Turney,
                       Andy Simmonett, and Alex Sokolov
         ------------------------------------------------------------

  ==> Geometry <==

    Molecular point group: c2v
    Full point group: C_inf_v

    Geometry (in Angstrom), charge = 0, multiplicity = 6:

       Center              X                  Y                   Z               Mass
    ------------   -----------------  -----------------  -----------------  -----------------
         LI           0.000000000000     0.000000000000     4.576172676840     7.016003436600
         SI           0.000000000000     0.000000000000    -1.147604372747    27.976926534650

  Nuclear repulsion =    3.883002893996702

  ==> Basis Set <==

  Basis Set: CC-PVDZ
    Blend: CC-PVDZ
    Number of shells: 14
    Number of basis functions: 32
    Number of Cartesian functions: 34
    Spherical Harmonics?: true
    Max angular momentum: 2

  ==> DFJKGrad: Density-Fitted SCF Gradients <==

    Gradient:                    1
    J tasked:                  Yes
    K tasked:                  Yes
    wK tasked:                  No
    OpenMP threads:              1
    Integrals threads:           1
    Memory [MiB]:              375
    Schwarz Cutoff:          1E-12
    Fitting Condition:       1E-10

   => Auxiliary Basis Set <=

  Basis Set: (CC-PVDZ AUX)
    Blend: CC-PVDZ-JKFIT + DEF2-UNIVERSAL-JKFIT
    Number of shells: 53
    Number of basis functions: 163
    Number of Cartesian functions: 190
    Spherical Harmonics?: true
    Max angular momentum: 3

  ==> DFT Potential <==

   => LibXC <=

    Version 6.2.2
    S. Lehtola, C. Steigemann, M. J.T. Oliveira, and M. A.L. Marques.,  SoftwareX 7, 1â€“5 (2018) (10.1016/j.softx.2017.11.002)

   => Composite Functional: B3LYP <=

    B3LYP Hyb-GGA Exchange-Correlation Functional

    P. J. Stephens, F. J. Devlin, C. F. Chabalowski, and M. J. Frisch.,  J. Phys. Chem. 98, 11623 (1994) (10.1021/j100096a001)

    Deriv               =              1
    GGA                 =           TRUE
    Meta                =          FALSE

    Exchange Hybrid     =           TRUE
    MP2 Hybrid          =          FALSE

   => Exchange Functionals <=

    0.0800   Slater exchange
    0.7200         Becke 88

   => Exact (HF) Exchange <=

    0.2000               HF

   => Correlation Functionals <=

    0.1900   Vosko, Wilk & Nusair (VWN5_RPA)
    0.8100   Lee, Yang & Parr

   => LibXC Density Thresholds  <==

    XC_HYB_GGA_XC_B3LYP:  1.00E-15

   => Molecular Quadrature <=

    Radial Scheme          =       TREUTLER
    Pruning Scheme         =           NONE
    Nuclear Scheme         =       TREUTLER

    Blocking Scheme        =         OCTREE
    BS radius alpha        =              1
    Pruning alpha          =              1
    Radial Points          =             75
    Spherical Points       =            302
    Total Points           =          44221
    Total Blocks           =            470
    Max Points             =            256
    Max Functions          =             32
    Weights Tolerance      =       1.00E-15

  -Total Gradient:
     Atom            X                  Y                   Z
    ------   -----------------  -----------------  -----------------
       1        0.000000000000    -0.000000000000    -0.000215828143
       2       -0.000000000000     0.000000000000     0.000218884855

*** tstop() called on Joses-MacBook-Pro-2.local at Wed Jul 16 18:35:12 2025
Module time:
	user time   =       1.01 seconds =       0.02 minutes
	system time =       1.37 seconds =       0.02 minutes
	total time  =          0 seconds =       0.00 minutes
Total time:
	user time   =     121.05 seconds =       2.02 minutes
	system time =     156.87 seconds =       2.61 minutes
	total time  =         27 seconds =       0.45 minutes

    			-----------------------------------------

    			 OPTKING 3.0: for geometry optimizations

    			     By R.A. King, Bethel University

    			        with contributions from

    			    A.V. Copan, J. Cayton, A. Heide

    			-----------------------------------------

	                            ===> Fragment 1 <==

	 Z (Atomic Numbers)          Masses                          Geom
	       3.000000             7.016003          0.00000000  0.00000000  8.64771306
	      14.000000            27.976927          0.00000000  0.00000000 -2.16865796

	 - Coordinate -           - BOHR/RAD -       - ANG/DEG -
	 R(1,2)           =        10.816371           5.723777

	        --- Internal Coordinate Step in ANG or DEG, aJ/ANG or AJ/DEG ---
	-------------------------------------------------------------------------------
	           Coordinate      Previous         Force          Change          New
	           ----------      --------        ------          ------        ------
	               R(1,2)       5.72378        0.00179        0.00142       5.72519
	-------------------------------------------------------------------------------

	                                 ==> Convergence Check <==

	Measures of convergence in internal coordinates in au.

	Criteria marked as inactive (o), active & met (*), and active & unmet ( ).

	----------------------------------------------------------------------------------------------
	   Step    Total Energy     Delta E     Max Force     RMS Force      Max Disp      RMS Disp
	----------------------------------------------------------------------------------------------
	  Convergence Criteria     1.00e-06 *    3.00e-04 *             o    1.20e-03 *             o
	----------------------------------------------------------------------------------------------
	    32    -296.71383028   -5.78e-07 *    2.17e-04 *    2.17e-04 o    2.68e-03      2.68e-03 o  ~
	----------------------------------------------------------------------------------------------

Next Geometry in Ang
	Fragment 1 (Ang)

	   Li   0.0000000000   0.0000000000   4.5768805144
	   Si   0.0000000000   0.0000000000  -1.1483122103

    Final optimized geometry and variables:
    Molecular point group: c2v
    Full point group: C_inf_v

    Geometry (in Angstrom), charge = 0, multiplicity = 6:

    LI           0.000000000000     0.000000000000     4.576172676840
    SI           0.000000000000     0.000000000000    -1.147604372747

    Psi4 stopped on: Wednesday, 16 July 2025 06:35PM
    Psi4 wall time for execution: 0:00:27.61

*** Psi4 exiting successfully. Buy a developer a beer!
