                               Psi4 1.9.1 release

  ==> Input File <==

--------------------------------------------------------------------------
molecule {
0 6
N   0.00000        0.60000        0.00000
Mg   0.00000       -0.60000        0.00000
}

set {
basis              cc-pvdz
reference          uks
maxiter            500
geom_maxiter       500
DAMPING_PERCENTAGE 1
guess              SAP
}

optimize('b3lyp')
--------------------------------------------------------------------------

    Molecular point group: c2v
  Charge       = 0
  Multiplicity = 6
  Basis Set: CC-PVDZ
    Blend: CC-PVDZ
  Basis Set: (CC-PVDZ AUX)
    Blend: CC-PVDZ-JKFIT + DEF2-UNIVERSAL-JKFIT
  @DF-UKS Final Energy:  -253.95100165413194
    Total Energy =                       -253.9510016541319430
 Dipole X            :          0.0000000            0.0000000            0.0000000
 Dipole Y            :          0.0000000            0.0000000            0.0000000
 Dipole Z            :          1.2614758           -0.0084525            1.2530233
 Magnitude           :                                                    1.2530233
    Molecular point group: c2v
  Basis Set: CC-PVDZ
    Blend: CC-PVDZ
  Basis Set: (CC-PVDZ AUX)
    Blend: CC-PVDZ-JKFIT + DEF2-UNIVERSAL-JKFIT
  Basis Set: CC-PVDZ
    Blend: CC-PVDZ
  Basis Set: (CC-PVDZ AUX)
    Blend: CC-PVDZ-JKFIT + DEF2-UNIVERSAL-JKFIT
  @DF-UKS Final Energy:  -254.22323971796555
    Total Energy =                       -254.2232397179655550
  Basis Set: CC-PVDZ
    Blend: CC-PVDZ
  Basis Set: (CC-PVDZ AUX)
    Blend: CC-PVDZ-JKFIT + DEF2-UNIVERSAL-JKFIT
  Basis Set: CC-PVDZ
    Blend: CC-PVDZ
  @DF-UKS Final Energy:  -254.38446702550488
    Total Energy =                       -254.3844670255048754
  @DF-UKS Final Energy:  -254.46780237168321
    Total Energy =                       -254.4678023716832058
  @DF-UKS Final Energy:  -254.51423849475921
    Total Energy =                       -254.5142384947592120
  @DF-UKS Final Energy:  -254.54097490562452
    Total Energy =                       -254.5409749056245232
  @DF-UKS Final Energy:  -254.55602741549399
    Total Energy =                       -254.5560274154939862
  @DF-UKS Final Energy:  -254.56486564924069
    Total Energy =                       -254.5648656492406872
  @DF-UKS Final Energy:  -254.57027576810245
    Total Energy =                       -254.5702757681024480
  @DF-UKS Final Energy:  -254.57362458966310
    Total Energy =                       -254.5736245896630976
  @DF-UKS Final Energy:  -254.57563333678871
    Total Energy =                       -254.5756333367887123
  @DF-UKS Final Energy:  -254.57676861216623
    Total Energy =                       -254.5767686121662337
  @DF-UKS Final Energy:  -254.57736976173351
    Total Energy =                       -254.5773697617335074
  @DF-UKS Final Energy:  -254.57767066157243
    Total Energy =                       -254.5776706615724265
  @DF-UKS Final Energy:  -254.57781389194639
    Total Energy =                       -254.5778138919464197
  @DF-UKS Final Energy:  -254.57787659182100
    Total Energy =                       -254.5778765918209956
  @DF-UKS Final Energy:  -254.57789892395297
    Total Energy =                       -254.5778989239529722
  Basis Set: (CC-PVDZ AUX)
    Blend: CC-PVDZ-JKFIT + DEF2-UNIVERSAL-JKFIT
  Basis Set: CC-PVDZ
    Blend: CC-PVDZ
  Basis Set: (CC-PVDZ AUX)
    Blend: CC-PVDZ-JKFIT + DEF2-UNIVERSAL-JKFIT
  @DF-UKS Final Energy:  -254.57790480497738
    Total Energy =                       -254.5779048049773792
  Basis Set: CC-PVDZ
    Blend: CC-PVDZ
  Basis Set: (CC-PVDZ AUX)
    Blend: CC-PVDZ-JKFIT + DEF2-UNIVERSAL-JKFIT
  Charge       = 0
  Multiplicity = 6
  Basis Set: CC-PVDZ
    Blend: CC-PVDZ
  Basis Set: (CC-PVDZ AUX)
    Blend: CC-PVDZ-JKFIT + DEF2-UNIVERSAL-JKFIT

    Orbital Energies [Eh]
    ---------------------

    Alpha Occupied:

       1A1   -46.882795     2A1   -14.444347     3A1    -3.161698
       4A1    -1.905967     1B2    -1.905960     1B1    -1.902943
       5A1    -0.810752     6A1    -0.354074     2B2    -0.353177
       2B1    -0.352980     7A1    -0.243882     3B1    -0.106255

    Alpha Virtual:

       3B2    -0.056887     8A1    -0.054741     9A1     0.082630
       4B1     0.130972     4B2     0.140594    10A1     0.145682
       1A2     0.271053     5B1     0.271106    11A1     0.274296
      12A1     0.281754     5B2     0.282593     6B2     0.651804
       6B1     0.652285    13A1     0.668982    14A1     0.805200
       7B2     1.670184     7B1     1.670353     2A2     1.670527
      15A1     1.670613    16A1     1.670790

    Beta Occupied:

       1A1   -46.878556     2A1   -14.388031     3A1    -3.154580
       4A1    -1.901705     1B2    -1.901698     1B1    -1.894134
       5A1    -0.613874

    Beta Virtual:

       6A1    -0.139153     7A1    -0.103133     2B2    -0.099220
       2B1    -0.098859     3B2    -0.014817     8A1    -0.010935
       3B1     0.004600     9A1     0.111641     4B2     0.163870
      10A1     0.167175     4B1     0.180254    11A1     0.318382
       5B2     0.318576     1A2     0.338963     5B1     0.339471
      12A1     0.345789     6B2     0.759232     6B1     0.759687
      13A1     0.774889    14A1     0.903225     7B2     1.817589
       7B1     1.817789    15A1     1.818003     2A2     1.818273
      16A1     1.818425

    Final Occupation by Irrep:
             A1    A2    B1    B2
    DOCC [     5,    0,    1,    1 ]
    SOCC [     2,    0,    2,    1 ]
    NA   [     7,    0,    3,    2 ]
    NB   [     5,    0,    1,    1 ]

  @DF-UKS Final Energy:  -254.57790517401637

   => Energetics <=

    Nuclear Repulsion Energy =             10.0978009682011134
    One-Electron Energy =                -372.7856086528677224
    Two-Electron Energy =                 126.8490417552556693
    DFT Exchange-Correlation Energy =     -18.7391392446054041
    Empirical Dispersion Energy =           0.0000000000000000
    VV10 Nonlocal Energy =                  0.0000000000000000
    Total Energy =                       -254.5779051740163652

  UHF NO Occupations:
  HONO-2 :    2 B2 1.0000000
  HONO-1 :    7 A1 1.0000000
  HONO-0 :    3 B1 1.0000000
  LUNO+0 :    8 A1 0.0010927
  LUNO+1 :    3 B2 0.0000009
  LUNO+2 :    9 A1 0.0000009
  LUNO+3 :    4 B1 0.0000004

Computation Completed

Properties will be evaluated at   0.000000,   0.000000,   0.000000 [a0]

Properties computed using the SCF density matrix

 Multipole Moments:

 ------------------------------------------------------------------------------------
     Multipole            Electronic (a.u.)      Nuclear  (a.u.)        Total (a.u.)
 ------------------------------------------------------------------------------------

 L = 1.  Multiply by 2.5417464519 to convert [e a0] to [Debye]
 Dipole X            :          0.0000000            0.0000000            0.0000000
 Dipole Y            :          0.0000000            0.0000000            0.0000000
 Dipole Z            :          0.0865320           -0.0310067            0.0555252
 Magnitude           :                                                    0.0555252

 ------------------------------------------------------------------------------------

*** tstop() called on Joses-MacBook-Pro-2.local at Wed Jul 16 19:11:14 2025
Module time:
	user time   =       4.07 seconds =       0.07 minutes
	system time =       2.85 seconds =       0.05 minutes
	total time  =          1 seconds =       0.02 minutes
Total time:
	user time   =     116.95 seconds =       1.95 minutes
	system time =     104.82 seconds =       1.75 minutes
	total time  =         23 seconds =       0.38 minutes

*** tstart() called on Joses-MacBook-Pro-2.local
*** at Wed Jul 16 19:11:14 2025

         ------------------------------------------------------------
                                   SCF GRAD
                          Rob Parrish, Justin Turney,
                       Andy Simmonett, and Alex Sokolov
         ------------------------------------------------------------

  ==> Geometry <==

    Molecular point group: c2v
    Full point group: C_inf_v

    Geometry (in Angstrom), charge = 0, multiplicity = 6:

       Center              X                  Y                   Z               Mass
    ------------   -----------------  -----------------  -----------------  -----------------
         N            0.000000000000     0.000000000000     2.779369825462    14.003074004430
         MG           0.000000000000     0.000000000000    -1.622666403640    23.985041697000

  Nuclear repulsion =   10.097800968201113

  ==> Basis Set <==

  Basis Set: CC-PVDZ
    Blend: CC-PVDZ
    Number of shells: 14
    Number of basis functions: 32
    Number of Cartesian functions: 34
    Spherical Harmonics?: true
    Max angular momentum: 2

  ==> DFJKGrad: Density-Fitted SCF Gradients <==

    Gradient:                    1
    J tasked:                  Yes
    K tasked:                  Yes
    wK tasked:                  No
    OpenMP threads:              1
    Integrals threads:           1
    Memory [MiB]:              375
    Schwarz Cutoff:          1E-12
    Fitting Condition:       1E-10

   => Auxiliary Basis Set <=

  Basis Set: (CC-PVDZ AUX)
    Blend: CC-PVDZ-JKFIT + DEF2-UNIVERSAL-JKFIT
    Number of shells: 58
    Number of basis functions: 182
    Number of Cartesian functions: 218
    Spherical Harmonics?: true
    Max angular momentum: 4

  ==> DFT Potential <==

   => LibXC <=

    Version 6.2.2
    S. Lehtola, C. Steigemann, M. J.T. Oliveira, and M. A.L. Marques.,  SoftwareX 7, 1â€“5 (2018) (10.1016/j.softx.2017.11.002)

   => Composite Functional: B3LYP <=

    B3LYP Hyb-GGA Exchange-Correlation Functional

    P. J. Stephens, F. J. Devlin, C. F. Chabalowski, and M. J. Frisch.,  J. Phys. Chem. 98, 11623 (1994) (10.1021/j100096a001)

    Deriv               =              1
    GGA                 =           TRUE
    Meta                =          FALSE

    Exchange Hybrid     =           TRUE
    MP2 Hybrid          =          FALSE

   => Exchange Functionals <=

    0.0800   Slater exchange
    0.7200         Becke 88

   => Exact (HF) Exchange <=

    0.2000               HF

   => Correlation Functionals <=

    0.1900   Vosko, Wilk & Nusair (VWN5_RPA)
    0.8100   Lee, Yang & Parr

   => LibXC Density Thresholds  <==

    XC_HYB_GGA_XC_B3LYP:  1.00E-15

   => Molecular Quadrature <=

    Radial Scheme          =       TREUTLER
    Pruning Scheme         =           NONE
    Nuclear Scheme         =       TREUTLER

    Blocking Scheme        =         OCTREE
    BS radius alpha        =              1
    Pruning alpha          =              1
    Radial Points          =             75
    Spherical Points       =            302
    Total Points           =          43591
    Total Blocks           =            445
    Max Points             =            256
    Max Functions          =             32
    Weights Tolerance      =       1.00E-15

  -Total Gradient:
     Atom            X                  Y                   Z
    ------   -----------------  -----------------  -----------------
       1       -0.000000000000    -0.000000000000     0.000003879493
       2        0.000000000000     0.000000000000     0.000006736350

*** tstop() called on Joses-MacBook-Pro-2.local at Wed Jul 16 19:11:14 2025
Module time:
	user time   =       1.49 seconds =       0.02 minutes
	system time =       1.57 seconds =       0.03 minutes
	total time  =          0 seconds =       0.00 minutes
Total time:
	user time   =     118.44 seconds =       1.97 minutes
	system time =     106.39 seconds =       1.77 minutes
	total time  =         23 seconds =       0.38 minutes

    			-----------------------------------------

    			 OPTKING 3.0: for geometry optimizations

    			     By R.A. King, Bethel University

    			        with contributions from

    			    A.V. Copan, J. Cayton, A. Heide

    			-----------------------------------------

	                            ===> Fragment 1 <==

	 Z (Atomic Numbers)          Masses                          Geom
	       7.000000            14.003074          0.00000000  0.00000000  5.25224777
	      12.000000            23.985042          0.00000000  0.00000000 -3.06639510

	 - Coordinate -           - BOHR/RAD -       - ANG/DEG -
	 R(1,2)           =         8.318643           4.402036

	        --- Internal Coordinate Step in ANG or DEG, aJ/ANG or AJ/DEG ---
	-------------------------------------------------------------------------------
	           Coordinate      Previous         Force          Change          New
	           ----------      --------        ------          ------        ------
	               R(1,2)       4.40204        0.00001        0.00309       4.40512
	-------------------------------------------------------------------------------

	                                 ==> Convergence Check <==

	Measures of convergence in internal coordinates in au.

	Criteria marked as inactive (o), active & met (*), and active & unmet ( ).

	----------------------------------------------------------------------------------------------
	   Step    Total Energy     Delta E     Max Force     RMS Force      Max Disp      RMS Disp
	----------------------------------------------------------------------------------------------
	  Convergence Criteria     1.00e-06 *    3.00e-04 *             o    1.20e-03 *             o
	----------------------------------------------------------------------------------------------
	    19    -254.57790517   -3.69e-07 *    1.43e-06 *    1.43e-06 o    5.83e-03      5.83e-03 o  ~
	----------------------------------------------------------------------------------------------

Next Geometry in Ang
	Fragment 1 (Ang)

	    N   0.0000000000   0.0000000000   2.7809126246
	   Mg   0.0000000000   0.0000000000  -1.6242092028

    Final optimized geometry and variables:
    Molecular point group: c2v
    Full point group: C_inf_v

    Geometry (in Angstrom), charge = 0, multiplicity = 6:

    N            0.000000000000     0.000000000000     2.779369825462
    MG           0.000000000000     0.000000000000    -1.622666403640

    Psi4 stopped on: Wednesday, 16 July 2025 07:11PM
    Psi4 wall time for execution: 0:00:24.03

*** Psi4 exiting successfully. Buy a developer a beer!
