                               Psi4 1.9.1 release

  ==> Input File <==

--------------------------------------------------------------------------
molecule {
0 6
B   0.00000        0.60000        0.00000
Ar   0.00000       -0.60000        0.00000
}

set {
basis              cc-pvdz
reference          uks
maxiter            500
geom_maxiter       500
DAMPING_PERCENTAGE 1
guess              SAP
}

optimize('b3lyp')
--------------------------------------------------------------------------

    Molecular point group: c2v
  Charge       = 0
  Multiplicity = 6
  Basis Set: CC-PVDZ
    Blend: CC-PVDZ
  Basis Set: (CC-PVDZ AUX)
    Blend: CC-PVDZ-JKFIT
  @DF-UKS Final Energy:  -551.00016933066104
    Total Energy =                       -551.0001693306610377
 Dipole X            :          0.0000000            0.0000000            0.0000000
 Dipole Y            :          0.0000000            0.0000000            0.0000000
 Dipole Z            :         -2.0960025            0.0731583           -2.0228442
 Magnitude           :                                                    2.0228442
    Molecular point group: c2v
  Basis Set: CC-PVDZ
    Blend: CC-PVDZ
  Basis Set: (CC-PVDZ AUX)
    Blend: CC-PVDZ-JKFIT
  Basis Set: CC-PVDZ
    Blend: CC-PVDZ
  Basis Set: (CC-PVDZ AUX)
    Blend: CC-PVDZ-JKFIT
  @DF-UKS Final Energy:  -551.24215098883110
    Total Energy =                       -551.2421509888310993
  Basis Set: CC-PVDZ
    Blend: CC-PVDZ
  Basis Set: (CC-PVDZ AUX)
    Blend: CC-PVDZ-JKFIT
  Basis Set: CC-PVDZ
    Blend: CC-PVDZ
  @DF-UKS Final Energy:  -551.37672904408839
    Total Energy =                       -551.3767290440885063
  @DF-UKS Final Energy:  -551.49352732337547
    Total Energy =                       -551.4935273233754742
  @DF-UKS Final Energy:  -551.59909072695302
    Total Energy =                       -551.5990907269529089
  @DF-UKS Final Energy:  -551.61991864221022
    Total Energy =                       -551.6199186422102230
  @DF-UKS Final Energy:  -551.65431833962953
    Total Energy =                       -551.6543183396295262
  @DF-UKS Final Energy:  -551.66623548003929
    Total Energy =                       -551.6662354800392905
  @DF-UKS Final Energy:  -551.67050689626251
    Total Energy =                       -551.6705068962626228
  @DF-UKS Final Energy:  -551.67143122933737
    Total Energy =                       -551.6714312293373723
  @DF-UKS Final Energy:  -551.67151600670252
    Total Energy =                       -551.6715160067024044
  Basis Set: (CC-PVDZ AUX)
    Blend: CC-PVDZ-JKFIT
  Basis Set: CC-PVDZ
    Blend: CC-PVDZ
  Basis Set: (CC-PVDZ AUX)
    Blend: CC-PVDZ-JKFIT
  @DF-UKS Final Energy:  -551.67152433348042
    Total Energy =                       -551.6715243334804200
  Basis Set: CC-PVDZ
    Blend: CC-PVDZ
  Basis Set: (CC-PVDZ AUX)
    Blend: CC-PVDZ-JKFIT
  Charge       = 0
  Multiplicity = 6
  Basis Set: CC-PVDZ
    Blend: CC-PVDZ
  Basis Set: (CC-PVDZ AUX)
    Blend: CC-PVDZ-JKFIT

    Orbital Energies [Eh]
    ---------------------

    Alpha Occupied:

       1A1  -115.435899     2A1   -11.461688     1B2    -9.034322
       1B1    -9.004440     3A1    -9.004405     4A1    -6.693613
       5A1    -1.260848     2B2    -0.740407     2B1    -0.674637
       6A1    -0.673707     7A1    -0.320373     8A1    -0.087190
       3B2    -0.086665     3B1    -0.085366

    Alpha Virtual:

       9A1     0.330154     4B2     0.331184     4B1     0.343100
       5B2     0.405945    10A1     0.419482     5B1     0.429489
      11A1     0.452071    12A1     0.513716     1A2     0.530780
       6B2     0.540092    13A1     0.566437     6B1     0.586807
      14A1     0.622012     2A2     0.778349    15A1     0.778351
       7B2     0.786487     7B1     0.790322    16A1     1.057777

    Beta Occupied:

       1A1  -115.426314     2A1   -11.452435     1B2    -9.005615
       1B1    -8.998632     3A1    -8.998007     4A1    -6.654598
       5A1    -1.195103     2B1    -0.653275     6A1    -0.648837

    Beta Virtual:

       2B2    -0.547796     7A1    -0.060147     8A1     0.115945
       3B2     0.117786     3B1     0.118610     9A1     0.395007
       4B1     0.405479     4B2     0.407473     5B1     0.487519
       5B2     0.487898    10A1     0.504651    11A1     0.527866
      12A1     0.585115     1A2     0.599329    13A1     0.607139
       6B1     0.607418     6B2     0.612606    14A1     0.714321
       2A2     0.952760    15A1     0.952796     7B2     0.953849
       7B1     0.954656    16A1     1.168050

    Final Occupation by Irrep:
             A1    A2    B1    B2
    DOCC [     6,    0,    2,    1 ]
    SOCC [     2,    0,    1,    2 ]
    NA   [     8,    0,    3,    3 ]
    NB   [     6,    0,    2,    1 ]

  @DF-UKS Final Energy:  -551.67152451458264

   => Energetics <=

    Nuclear Repulsion Energy =             17.4356653707669800
    One-Electron Energy =                -790.7314777662829783
    Two-Electron Energy =                 249.5880956019427117
    DFT Exchange-Correlation Energy =     -27.9638077210092604
    Empirical Dispersion Energy =           0.0000000000000000
    VV10 Nonlocal Energy =                  0.0000000000000000
    Total Energy =                       -551.6715245145826430

  UHF NO Occupations:
  HONO-2 :    3 B1 1.0000000
  HONO-1 :    8 A1 1.0000000
  HONO-0 :    3 B2 1.0000000
  LUNO+0 :    9 A1 0.0008224
  LUNO+1 :   10 A1 0.0000636
  LUNO+2 :    4 B1 0.0000416
  LUNO+3 :   11 A1 0.0000005

Computation Completed

Properties will be evaluated at   0.000000,   0.000000,   0.000000 [a0]

Properties computed using the SCF density matrix

 Multipole Moments:

 ------------------------------------------------------------------------------------
     Multipole            Electronic (a.u.)      Nuclear  (a.u.)        Total (a.u.)
 ------------------------------------------------------------------------------------

 L = 1.  Multiply by 2.5417464519 to convert [e a0] to [Debye]
 Dipole X            :          0.0000000            0.0000000            0.0000000
 Dipole Y            :          0.0000000            0.0000000            0.0000000
 Dipole Z            :         -4.9398196            0.1665281           -4.7732915
 Magnitude           :                                                    4.7732915

 ------------------------------------------------------------------------------------

*** tstop() called on Joses-MacBook-Pro-2.local at Wed Jul 16 18:59:01 2025
Module time:
	user time   =       3.66 seconds =       0.06 minutes
	system time =       3.12 seconds =       0.05 minutes
	total time  =          1 seconds =       0.02 minutes
Total time:
	user time   =      64.64 seconds =       1.08 minutes
	system time =      70.66 seconds =       1.18 minutes
	total time  =         14 seconds =       0.23 minutes

*** tstart() called on Joses-MacBook-Pro-2.local
*** at Wed Jul 16 18:59:01 2025

         ------------------------------------------------------------
                                   SCF GRAD
                          Rob Parrish, Justin Turney,
                       Andy Simmonett, and Alex Sokolov
         ------------------------------------------------------------

  ==> Geometry <==

    Molecular point group: c2v
    Full point group: C_inf_v

    Geometry (in Angstrom), charge = 0, multiplicity = 6:

       Center              X                  Y                   Z               Mass
    ------------   -----------------  -----------------  -----------------  -----------------
         B            0.000000000000     0.000000000000     2.141546337070    11.009305360000
         AR           0.000000000000     0.000000000000    -0.589978267673    39.962383123700

  Nuclear repulsion =   17.435665370766980

  ==> Basis Set <==

  Basis Set: CC-PVDZ
    Blend: CC-PVDZ
    Number of shells: 14
    Number of basis functions: 32
    Number of Cartesian functions: 34
    Spherical Harmonics?: true
    Max angular momentum: 2

  ==> DFJKGrad: Density-Fitted SCF Gradients <==

    Gradient:                    1
    J tasked:                  Yes
    K tasked:                  Yes
    wK tasked:                  No
    OpenMP threads:              1
    Integrals threads:           1
    Memory [MiB]:              375
    Schwarz Cutoff:          1E-12
    Fitting Condition:       1E-10

   => Auxiliary Basis Set <=

  Basis Set: (CC-PVDZ AUX)
    Blend: CC-PVDZ-JKFIT
    Number of shells: 60
    Number of basis functions: 182
    Number of Cartesian functions: 211
    Spherical Harmonics?: true
    Max angular momentum: 3

  ==> DFT Potential <==

   => LibXC <=

    Version 6.2.2
    S. Lehtola, C. Steigemann, M. J.T. Oliveira, and M. A.L. Marques.,  SoftwareX 7, 1â€“5 (2018) (10.1016/j.softx.2017.11.002)

   => Composite Functional: B3LYP <=

    B3LYP Hyb-GGA Exchange-Correlation Functional

    P. J. Stephens, F. J. Devlin, C. F. Chabalowski, and M. J. Frisch.,  J. Phys. Chem. 98, 11623 (1994) (10.1021/j100096a001)

    Deriv               =              1
    GGA                 =           TRUE
    Meta                =          FALSE

    Exchange Hybrid     =           TRUE
    MP2 Hybrid          =          FALSE

   => Exchange Functionals <=

    0.0800   Slater exchange
    0.7200         Becke 88

   => Exact (HF) Exchange <=

    0.2000               HF

   => Correlation Functionals <=

    0.1900   Vosko, Wilk & Nusair (VWN5_RPA)
    0.8100   Lee, Yang & Parr

   => LibXC Density Thresholds  <==

    XC_HYB_GGA_XC_B3LYP:  1.00E-15

   => Molecular Quadrature <=

    Radial Scheme          =       TREUTLER
    Pruning Scheme         =           NONE
    Nuclear Scheme         =       TREUTLER

    Blocking Scheme        =         OCTREE
    BS radius alpha        =              1
    Pruning alpha          =              1
    Radial Points          =             75
    Spherical Points       =            302
    Total Points           =          42065
    Total Blocks           =            384
    Max Points             =            256
    Max Functions          =             32
    Weights Tolerance      =       1.00E-15

  -Total Gradient:
     Atom            X                  Y                   Z
    ------   -----------------  -----------------  -----------------
       1        0.000000000000    -0.000000000000    -0.000015049813
       2       -0.000000000000    -0.000000000000     0.000020308885

*** tstop() called on Joses-MacBook-Pro-2.local at Wed Jul 16 18:59:01 2025
Module time:
	user time   =       1.04 seconds =       0.02 minutes
	system time =       1.43 seconds =       0.02 minutes
	total time  =          0 seconds =       0.00 minutes
Total time:
	user time   =      65.68 seconds =       1.09 minutes
	system time =      72.10 seconds =       1.20 minutes
	total time  =         14 seconds =       0.23 minutes

    			-----------------------------------------

    			 OPTKING 3.0: for geometry optimizations

    			     By R.A. King, Bethel University

    			        with contributions from

    			    A.V. Copan, J. Cayton, A. Heide

    			-----------------------------------------

	                            ===> Fragment 1 <==

	 Z (Atomic Numbers)          Masses                          Geom
	       5.000000            11.009305          0.00000000  0.00000000  4.04693606
	      18.000000            39.962383          0.00000000  0.00000000 -1.11489735

	 - Coordinate -           - BOHR/RAD -       - ANG/DEG -
	 R(1,2)           =         5.161833           2.731525

	        --- Internal Coordinate Step in ANG or DEG, aJ/ANG or AJ/DEG ---
	-------------------------------------------------------------------------------
	           Coordinate      Previous         Force          Change          New
	           ----------      --------        ------          ------        ------
	               R(1,2)       2.73152        0.00015        0.00026       2.73179
	-------------------------------------------------------------------------------

	                                 ==> Convergence Check <==

	Measures of convergence in internal coordinates in au.

	Criteria marked as inactive (o), active & met (*), and active & unmet ( ).

	----------------------------------------------------------------------------------------------
	   Step    Total Energy     Delta E     Max Force     RMS Force      Max Disp      RMS Disp
	----------------------------------------------------------------------------------------------
	  Convergence Criteria     1.00e-06 *    3.00e-04 *             o    1.20e-03 *             o
	----------------------------------------------------------------------------------------------
	    13    -551.67152451   -1.81e-07 *    1.77e-05 *    1.77e-05 o    4.97e-04 *    4.97e-04 o  ~
	----------------------------------------------------------------------------------------------

Next Geometry in Ang
	Fragment 1 (Ang)

	    B   0.0000000000   0.0000000000   2.1416778665
	   Ar   0.0000000000   0.0000000000  -0.5901097971

    Final optimized geometry and variables:
    Molecular point group: c2v
    Full point group: C_inf_v

    Geometry (in Angstrom), charge = 0, multiplicity = 6:

    B            0.000000000000     0.000000000000     2.141546337070
    AR           0.000000000000     0.000000000000    -0.589978267673

    Psi4 stopped on: Wednesday, 16 July 2025 06:59PM
    Psi4 wall time for execution: 0:00:15.50

*** Psi4 exiting successfully. Buy a developer a beer!
