                               Psi4 1.9.1 release

  ==> Input File <==

--------------------------------------------------------------------------
molecule {
0 6
H   0.00000        0.60000        0.00000
Mg   0.00000       -0.60000        0.00000
}

set {
basis              cc-pvdz
reference          uks
maxiter            500
geom_maxiter       500
DAMPING_PERCENTAGE 1
guess              SAP
}

optimize('b3lyp')
--------------------------------------------------------------------------

    Molecular point group: c2v
  Charge       = 0
  Multiplicity = 6
  Basis Set: CC-PVDZ
    Blend: CC-PVDZ
  Basis Set: (CC-PVDZ AUX)
    Blend: CC-PVDZ-JKFIT + DEF2-UNIVERSAL-JKFIT
  @DF-UKS Final Energy:  -198.32314623470626
    Total Energy =                       -198.3231462347062575
 Dipole X            :          0.0000000            0.0000000            0.0000000
 Dipole Y            :          0.0000000            0.0000000            0.0000000
 Dipole Z            :         -0.3608898            1.0789159            0.7180260
 Magnitude           :                                                    0.7180260
    Molecular point group: c2v
  Basis Set: CC-PVDZ
    Blend: CC-PVDZ
  Basis Set: (CC-PVDZ AUX)
    Blend: CC-PVDZ-JKFIT + DEF2-UNIVERSAL-JKFIT
  Basis Set: CC-PVDZ
    Blend: CC-PVDZ
  Basis Set: (CC-PVDZ AUX)
    Blend: CC-PVDZ-JKFIT + DEF2-UNIVERSAL-JKFIT
  @DF-UKS Final Energy:  -198.41245461966815
    Total Energy =                       -198.4124546196681536
  Basis Set: CC-PVDZ
    Blend: CC-PVDZ
  Basis Set: (CC-PVDZ AUX)
    Blend: CC-PVDZ-JKFIT + DEF2-UNIVERSAL-JKFIT
  Basis Set: CC-PVDZ
    Blend: CC-PVDZ
  @DF-UKS Final Energy:  -198.43939540270776
    Total Energy =                       -198.4393954027077598
  @DF-UKS Final Energy:  -198.45785631840599
    Total Energy =                       -198.4578563184059874
  @DF-UKS Final Energy:  -198.46614974900783
    Total Energy =                       -198.4661497490078261
  @DF-UKS Final Energy:  -198.47000422498871
    Total Energy =                       -198.4700042249886849
  @DF-UKS Final Energy:  -198.47171560368150
    Total Energy =                       -198.4717156036815027
  @DF-UKS Final Energy:  -198.47243810720701
    Total Energy =                       -198.4724381072070116
  @DF-UKS Final Energy:  -198.47271347090341
    Total Energy =                       -198.4727134709034431
  @DF-UKS Final Energy:  -198.47278597369211
    Total Energy =                       -198.4727859736920834
  @DF-UKS Final Energy:  -198.47281645111147
    Total Energy =                       -198.4728164511114699
  @DF-UKS Final Energy:  -198.47282372998754
    Total Energy =                       -198.4728237299875389
  Basis Set: (CC-PVDZ AUX)
    Blend: CC-PVDZ-JKFIT + DEF2-UNIVERSAL-JKFIT
  Basis Set: CC-PVDZ
    Blend: CC-PVDZ
  Basis Set: (CC-PVDZ AUX)
    Blend: CC-PVDZ-JKFIT + DEF2-UNIVERSAL-JKFIT
  @DF-UKS Final Energy:  -198.47282576463891
    Total Energy =                       -198.4728257646389125
  Basis Set: CC-PVDZ
    Blend: CC-PVDZ
  Basis Set: (CC-PVDZ AUX)
    Blend: CC-PVDZ-JKFIT + DEF2-UNIVERSAL-JKFIT
  Charge       = 0
  Multiplicity = 6
  Basis Set: CC-PVDZ
    Blend: CC-PVDZ
  Basis Set: (CC-PVDZ AUX)
    Blend: CC-PVDZ-JKFIT + DEF2-UNIVERSAL-JKFIT

    Orbital Energies [Eh]
    ---------------------

    Alpha Occupied:

       1A1   -48.188966     2A1    -3.966362     1B2    -2.826773
       3A1    -2.689431     1B1    -2.684398     4A1    -0.391947
       5A1    -0.327040     2B2    -0.171226     2B1    -0.161332

    Alpha Virtual:

       6A1    -0.088686     7A1     0.064458     3B2     0.089169
       8A1     0.091332     3B1     0.093120     9A1     0.201043
       1A2     0.201203     4B2     0.201598     4B1     0.208000
      10A1     0.242005    11A1     0.478286     5B2     1.174343
       5B1     1.174409    12A1     1.255087

    Beta Occupied:

       1A1   -48.131555     2A1    -3.824301     3A1    -2.632757
       1B1    -2.623309

    Beta Virtual:

       1B2    -2.347959     4A1    -0.200644     5A1    -0.096601
       2B1    -0.021491     2B2    -0.017336     6A1     0.013538
       7A1     0.098803     8A1     0.113745     3B1     0.132913
       3B2     0.137426     4B2     0.293338     4B1     0.294019
       1A2     0.320373     9A1     0.323168    10A1     0.326899
      11A1     0.677800     5B2     1.411036     5B1     1.412430
      12A1     1.471059

    Final Occupation by Irrep:
             A1    A2    B1    B2
    DOCC [     3,    0,    1,    0 ]
    SOCC [     2,    0,    1,    2 ]
    NA   [     5,    0,    2,    2 ]
    NB   [     3,    0,    1,    0 ]

  @DF-UKS Final Energy:  -198.47282653089931

   => Energetics <=

    Nuclear Repulsion Energy =              2.3222928522502486
    One-Electron Energy =                -273.7882090286855714
    Two-Electron Energy =                  85.8295460448561158
    DFT Exchange-Correlation Energy =     -12.8364563993201184
    Empirical Dispersion Energy =           0.0000000000000000
    VV10 Nonlocal Energy =                  0.0000000000000000
    Total Energy =                       -198.4728265308993400

  UHF NO Occupations:
  HONO-2 :    2 B1 1.0000000
  HONO-1 :    5 A1 1.0000000
  HONO-0 :    2 B2 1.0000000
  LUNO+0 :    6 A1 0.0000039
  LUNO+1 :    7 A1 0.0000025
  LUNO+2 :    3 B1 0.0000006
  LUNO+3 :    8 A1 0.0000000

Computation Completed

Properties will be evaluated at   0.000000,   0.000000,   0.000000 [a0]

Properties computed using the SCF density matrix

 Multipole Moments:

 ------------------------------------------------------------------------------------
     Multipole            Electronic (a.u.)      Nuclear  (a.u.)        Total (a.u.)
 ------------------------------------------------------------------------------------

 L = 1.  Multiply by 2.5417464519 to convert [e a0] to [Debye]
 Dipole X            :          0.0000000            0.0000000            0.0000000
 Dipole Y            :          0.0000000            0.0000000            0.0000000
 Dipole Z            :         -2.1671051            2.4585086            0.2914035
 Magnitude           :                                                    0.2914035

 ------------------------------------------------------------------------------------

*** tstop() called on Joses-MacBook-Pro-2.local at Wed Jul 16 18:15:37 2025
Module time:
	user time   =       1.78 seconds =       0.03 minutes
	system time =       3.48 seconds =       0.06 minutes
	total time  =          0 seconds =       0.00 minutes
Total time:
	user time   =      46.97 seconds =       0.78 minutes
	system time =      62.62 seconds =       1.04 minutes
	total time  =         10 seconds =       0.17 minutes

*** tstart() called on Joses-MacBook-Pro-2.local
*** at Wed Jul 16 18:15:37 2025

         ------------------------------------------------------------
                                   SCF GRAD
                          Rob Parrish, Justin Turney,
                       Andy Simmonett, and Alex Sokolov
         ------------------------------------------------------------

  ==> Geometry <==

    Molecular point group: c2v
    Full point group: C_inf_v

    Geometry (in Angstrom), charge = 0, multiplicity = 6:

       Center              X                  Y                   Z               Mass
    ------------   -----------------  -----------------  -----------------  -----------------
         H            0.000000000000     0.000000000000     2.624156897257     1.007825032230
         MG           0.000000000000     0.000000000000    -0.110264182275    23.985041697000

  Nuclear repulsion =    2.322292852250249

  ==> Basis Set <==

  Basis Set: CC-PVDZ
    Blend: CC-PVDZ
    Number of shells: 11
    Number of basis functions: 23
    Number of Cartesian functions: 24
    Spherical Harmonics?: true
    Max angular momentum: 2

  ==> DFJKGrad: Density-Fitted SCF Gradients <==

    Gradient:                    1
    J tasked:                  Yes
    K tasked:                  Yes
    wK tasked:                  No
    OpenMP threads:              1
    Integrals threads:           1
    Memory [MiB]:              375
    Schwarz Cutoff:          1E-12
    Fitting Condition:       1E-10

   => Auxiliary Basis Set <=

  Basis Set: (CC-PVDZ AUX)
    Blend: CC-PVDZ-JKFIT + DEF2-UNIVERSAL-JKFIT
    Number of shells: 43
    Number of basis functions: 135
    Number of Cartesian functions: 162
    Spherical Harmonics?: true
    Max angular momentum: 4

  ==> DFT Potential <==

   => LibXC <=

    Version 6.2.2
    S. Lehtola, C. Steigemann, M. J.T. Oliveira, and M. A.L. Marques.,  SoftwareX 7, 1â€“5 (2018) (10.1016/j.softx.2017.11.002)

   => Composite Functional: B3LYP <=

    B3LYP Hyb-GGA Exchange-Correlation Functional

    P. J. Stephens, F. J. Devlin, C. F. Chabalowski, and M. J. Frisch.,  J. Phys. Chem. 98, 11623 (1994) (10.1021/j100096a001)

    Deriv               =              1
    GGA                 =           TRUE
    Meta                =          FALSE

    Exchange Hybrid     =           TRUE
    MP2 Hybrid          =          FALSE

   => Exchange Functionals <=

    0.0800   Slater exchange
    0.7200         Becke 88

   => Exact (HF) Exchange <=

    0.2000               HF

   => Correlation Functionals <=

    0.1900   Vosko, Wilk & Nusair (VWN5_RPA)
    0.8100   Lee, Yang & Parr

   => LibXC Density Thresholds  <==

    XC_HYB_GGA_XC_B3LYP:  1.00E-15

   => Molecular Quadrature <=

    Radial Scheme          =       TREUTLER
    Pruning Scheme         =           NONE
    Nuclear Scheme         =       TREUTLER

    Blocking Scheme        =         OCTREE
    BS radius alpha        =              1
    Pruning alpha          =              1
    Radial Points          =             75
    Spherical Points       =            302
    Total Points           =          43507
    Total Blocks           =            401
    Max Points             =            255
    Max Functions          =             23
    Weights Tolerance      =       1.00E-15

  -Total Gradient:
     Atom            X                  Y                   Z
    ------   -----------------  -----------------  -----------------
       1        0.000000000000    -0.000000000000    -0.000021075888
       2        0.000000000000     0.000000000000     0.000020928033

*** tstop() called on Joses-MacBook-Pro-2.local at Wed Jul 16 18:15:37 2025
Module time:
	user time   =       0.72 seconds =       0.01 minutes
	system time =       1.19 seconds =       0.02 minutes
	total time  =          0 seconds =       0.00 minutes
Total time:
	user time   =      47.70 seconds =       0.79 minutes
	system time =      63.81 seconds =       1.06 minutes
	total time  =         10 seconds =       0.17 minutes

    			-----------------------------------------

    			 OPTKING 3.0: for geometry optimizations

    			     By R.A. King, Bethel University

    			        with contributions from

    			    A.V. Copan, J. Cayton, A. Heide

    			-----------------------------------------

	                            ===> Fragment 1 <==

	 Z (Atomic Numbers)          Masses                          Geom
	       1.000000             1.007825          0.00000000  0.00000000  4.95893785
	      12.000000            23.985042          0.00000000  0.00000000 -0.20836911

	 - Coordinate -           - BOHR/RAD -       - ANG/DEG -
	 R(1,2)           =         5.167307           2.734421

	        --- Internal Coordinate Step in ANG or DEG, aJ/ANG or AJ/DEG ---
	-------------------------------------------------------------------------------
	           Coordinate      Previous         Force          Change          New
	           ----------      --------        ------          ------        ------
	               R(1,2)       2.73442        0.00017        0.00513       2.73955
	-------------------------------------------------------------------------------

	                                 ==> Convergence Check <==

	Measures of convergence in internal coordinates in au.

	Criteria marked as inactive (o), active & met (*), and active & unmet ( ).

	----------------------------------------------------------------------------------------------
	   Step    Total Energy     Delta E     Max Force     RMS Force      Max Disp      RMS Disp
	----------------------------------------------------------------------------------------------
	  Convergence Criteria     1.00e-06 *    3.00e-04 *             o    1.20e-03 *             o
	----------------------------------------------------------------------------------------------
	    14    -198.47282653   -7.66e-07 *    2.10e-05 *    2.10e-05 o    9.70e-03      9.70e-03 o  ~
	----------------------------------------------------------------------------------------------

Next Geometry in Ang
	Fragment 1 (Ang)

	    H   0.0000000000   0.0000000000   2.6267231868
	   Mg   0.0000000000   0.0000000000  -0.1128304718

    Final optimized geometry and variables:
    Molecular point group: c2v
    Full point group: C_inf_v

    Geometry (in Angstrom), charge = 0, multiplicity = 6:

    H            0.000000000000     0.000000000000     2.624156897257
    MG           0.000000000000     0.000000000000    -0.110264182275

    Psi4 stopped on: Wednesday, 16 July 2025 06:15PM
    Psi4 wall time for execution: 0:00:11.25

*** Psi4 exiting successfully. Buy a developer a beer!
