                               Psi4 1.9.1 release

  ==> Input File <==

--------------------------------------------------------------------------
molecule {
0 6
He   0.00000        0.60000        0.00000
N   0.00000       -0.60000        0.00000
}

set {
basis              cc-pvdz
reference          uks
maxiter            500
geom_maxiter       500
DAMPING_PERCENTAGE 1
guess              SAP
}

optimize('b3lyp')
--------------------------------------------------------------------------

    Molecular point group: c2v
  Charge       = 0
  Multiplicity = 6
  Basis Set: CC-PVDZ
    Blend: CC-PVDZ
  Basis Set: (CC-PVDZ AUX)
    Blend: CC-PVDZ-JKFIT + DEF2-UNIVERSAL-JKFIT
  @DF-UKS Final Energy:   -56.30425576626589
    Total Energy =                        -56.3042557662658893
 Dipole X            :          0.0000000            0.0000000            0.0000000
 Dipole Y            :          0.0000000            0.0000000            0.0000000
 Dipole Z            :          0.4661759           -0.0015207            0.4646552
 Magnitude           :                                                    0.4646552
    Molecular point group: c2v
  Basis Set: CC-PVDZ
    Blend: CC-PVDZ
  Basis Set: (CC-PVDZ AUX)
    Blend: CC-PVDZ-JKFIT + DEF2-UNIVERSAL-JKFIT
  Basis Set: CC-PVDZ
    Blend: CC-PVDZ
  Basis Set: (CC-PVDZ AUX)
    Blend: CC-PVDZ-JKFIT + DEF2-UNIVERSAL-JKFIT
  @DF-UKS Final Energy:   -56.36176919937241
    Total Energy =                        -56.3617691993724108
  Basis Set: CC-PVDZ
    Blend: CC-PVDZ
  Basis Set: (CC-PVDZ AUX)
    Blend: CC-PVDZ-JKFIT + DEF2-UNIVERSAL-JKFIT
  Basis Set: CC-PVDZ
    Blend: CC-PVDZ
  @DF-UKS Final Energy:   -56.36768624466775
    Total Energy =                        -56.3676862446677447
  @DF-UKS Final Energy:   -56.37197993923929
    Total Energy =                        -56.3719799392392815
  @DF-UKS Final Energy:   -56.37316936634649
    Total Energy =                        -56.3731693663464881
  @DF-UKS Final Energy:   -56.37361606474575
    Total Energy =                        -56.3736160647457467
  @DF-UKS Final Energy:   -56.37386416443877
    Total Energy =                        -56.3738641644387712
  @DF-UKS Final Energy:   -56.37396152777495
    Total Energy =                        -56.3739615277749451
  @DF-UKS Final Energy:   -56.37401995440323
    Total Energy =                        -56.3740199544032308
  @DF-UKS Final Energy:   -56.37404010901614
    Total Energy =                        -56.3740401090161356
  Basis Set: (CC-PVDZ AUX)
    Blend: CC-PVDZ-JKFIT + DEF2-UNIVERSAL-JKFIT
  Basis Set: CC-PVDZ
    Blend: CC-PVDZ
  Basis Set: (CC-PVDZ AUX)
    Blend: CC-PVDZ-JKFIT + DEF2-UNIVERSAL-JKFIT
  @DF-UKS Final Energy:   -56.37404463723899
    Total Energy =                        -56.3740446372389883
  Basis Set: CC-PVDZ
    Blend: CC-PVDZ
  Basis Set: (CC-PVDZ AUX)
    Blend: CC-PVDZ-JKFIT + DEF2-UNIVERSAL-JKFIT
  Charge       = 0
  Multiplicity = 6
  Basis Set: CC-PVDZ
    Blend: CC-PVDZ
  Basis Set: (CC-PVDZ AUX)
    Blend: CC-PVDZ-JKFIT + DEF2-UNIVERSAL-JKFIT

    Orbital Energies [Eh]
    ---------------------

    Alpha Occupied:

       1A1   -14.481742     2A1    -0.905050     3A1    -0.720552
       1B2    -0.443754     1B1    -0.436525     4A1    -0.421788
       2B2     0.498539

    Alpha Virtual:

       2B1     0.596019     5A1     0.632984     6A1     0.717198
       7A1     1.154132     3B1     1.577667     8A1     1.579180
       3B2     1.597054     1A2     1.600164     9A1     1.606277
       4B1     2.137118     4B2     2.137635    10A1     2.379372

    Beta Occupied:

       1A1   -14.368553     2A1    -0.706700

    Beta Virtual:

       3A1    -0.457744     1B1    -0.074525     4A1    -0.063131
       1B2    -0.034918     2B1     0.763497     5A1     0.802552
       2B2     0.810101     6A1     0.895773     7A1     1.194393
       8A1     1.782064     3B1     1.820910     3B2     1.843533
       1A2     1.851128     9A1     1.853960     4B1     2.153310
       4B2     2.155715    10A1     2.429637

    Final Occupation by Irrep:
             A1    A2    B1    B2
    DOCC [     2,    0,    0,    0 ]
    SOCC [     2,    0,    1,    2 ]
    NA   [     4,    0,    1,    2 ]
    NB   [     2,    0,    0,    0 ]

  @DF-UKS Final Energy:   -56.37404534518740

   => Energetics <=

    Nuclear Repulsion Energy =              3.9372063600331120
    One-Electron Energy =                 -84.0380091595335017
    Two-Electron Energy =                  30.1366144581489017
    DFT Exchange-Correlation Energy =      -6.4098570038359117
    Empirical Dispersion Energy =           0.0000000000000000
    VV10 Nonlocal Energy =                  0.0000000000000000
    Total Energy =                        -56.3740453451873975

  UHF NO Occupations:
  HONO-2 :    2 B2 1.0000000
  HONO-1 :    4 A1 1.0000000
  HONO-0 :    1 B1 1.0000000
  LUNO+0 :    5 A1 0.0003005
  LUNO+1 :    6 A1 0.0000012
  LUNO+2 :    7 A1 0.0000000
  LUNO+3 :    2 B1 0.0000000

Computation Completed

Properties will be evaluated at   0.000000,   0.000000,   0.000000 [a0]

Properties computed using the SCF density matrix

 Multipole Moments:

 ------------------------------------------------------------------------------------
     Multipole            Electronic (a.u.)      Nuclear  (a.u.)        Total (a.u.)
 ------------------------------------------------------------------------------------

 L = 1.  Multiply by 2.5417464519 to convert [e a0] to [Debye]
 Dipole X            :          0.0000000            0.0000000            0.0000000
 Dipole Y            :          0.0000000            0.0000000            0.0000000
 Dipole Z            :          0.2262632           -0.0023846            0.2238786
 Magnitude           :                                                    0.2238786

 ------------------------------------------------------------------------------------

*** tstop() called on Joses-MacBook-Pro-2.local at Wed Jul 16 18:20:49 2025
Module time:
	user time   =       0.70 seconds =       0.01 minutes
	system time =       3.20 seconds =       0.05 minutes
	total time  =          0 seconds =       0.00 minutes
Total time:
	user time   =      14.44 seconds =       0.24 minutes
	system time =      48.55 seconds =       0.81 minutes
	total time  =          7 seconds =       0.12 minutes

*** tstart() called on Joses-MacBook-Pro-2.local
*** at Wed Jul 16 18:20:49 2025

         ------------------------------------------------------------
                                   SCF GRAD
                          Rob Parrish, Justin Turney,
                       Andy Simmonett, and Alex Sokolov
         ------------------------------------------------------------

  ==> Geometry <==

    Molecular point group: c2v
    Full point group: C_inf_v

    Geometry (in Angstrom), charge = 0, multiplicity = 6:

       Center              X                  Y                   Z               Mass
    ------------   -----------------  -----------------  -----------------  -----------------
         HE           0.000000000000     0.000000000000     1.463372579708     4.002603254130
         N            0.000000000000     0.000000000000    -0.418286716737    14.003074004430

  Nuclear repulsion =    3.937206360033112

  ==> Basis Set <==

  Basis Set: CC-PVDZ
    Blend: CC-PVDZ
    Number of shells: 9
    Number of basis functions: 19
    Number of Cartesian functions: 20
    Spherical Harmonics?: true
    Max angular momentum: 2

  ==> DFJKGrad: Density-Fitted SCF Gradients <==

    Gradient:                    1
    J tasked:                  Yes
    K tasked:                  Yes
    wK tasked:                  No
    OpenMP threads:              1
    Integrals threads:           1
    Memory [MiB]:              375
    Schwarz Cutoff:          1E-12
    Fitting Condition:       1E-10

   => Auxiliary Basis Set <=

  Basis Set: (CC-PVDZ AUX)
    Blend: CC-PVDZ-JKFIT + DEF2-UNIVERSAL-JKFIT
    Number of shells: 33
    Number of basis functions: 93
    Number of Cartesian functions: 106
    Spherical Harmonics?: true
    Max angular momentum: 3

  ==> DFT Potential <==

   => LibXC <=

    Version 6.2.2
    S. Lehtola, C. Steigemann, M. J.T. Oliveira, and M. A.L. Marques.,  SoftwareX 7, 1â€“5 (2018) (10.1016/j.softx.2017.11.002)

   => Composite Functional: B3LYP <=

    B3LYP Hyb-GGA Exchange-Correlation Functional

    P. J. Stephens, F. J. Devlin, C. F. Chabalowski, and M. J. Frisch.,  J. Phys. Chem. 98, 11623 (1994) (10.1021/j100096a001)

    Deriv               =              1
    GGA                 =           TRUE
    Meta                =          FALSE

    Exchange Hybrid     =           TRUE
    MP2 Hybrid          =          FALSE

   => Exchange Functionals <=

    0.0800   Slater exchange
    0.7200         Becke 88

   => Exact (HF) Exchange <=

    0.2000               HF

   => Correlation Functionals <=

    0.1900   Vosko, Wilk & Nusair (VWN5_RPA)
    0.8100   Lee, Yang & Parr

   => LibXC Density Thresholds  <==

    XC_HYB_GGA_XC_B3LYP:  1.00E-15

   => Molecular Quadrature <=

    Radial Scheme          =       TREUTLER
    Pruning Scheme         =           NONE
    Nuclear Scheme         =       TREUTLER

    Blocking Scheme        =         OCTREE
    BS radius alpha        =              1
    Pruning alpha          =              1
    Radial Points          =             75
    Spherical Points       =            302
    Total Points           =          43315
    Total Blocks           =            382
    Max Points             =            256
    Max Functions          =             19
    Weights Tolerance      =       1.00E-15

  -Total Gradient:
     Atom            X                  Y                   Z
    ------   -----------------  -----------------  -----------------
       1        0.000000000000    -0.000000000000    -0.000036167195
       2       -0.000000000000     0.000000000000     0.000038224231

*** tstop() called on Joses-MacBook-Pro-2.local at Wed Jul 16 18:20:49 2025
Module time:
	user time   =       0.22 seconds =       0.00 minutes
	system time =       0.80 seconds =       0.01 minutes
	total time  =          0 seconds =       0.00 minutes
Total time:
	user time   =      14.66 seconds =       0.24 minutes
	system time =      49.35 seconds =       0.82 minutes
	total time  =          7 seconds =       0.12 minutes

    			-----------------------------------------

    			 OPTKING 3.0: for geometry optimizations

    			     By R.A. King, Bethel University

    			        with contributions from

    			    A.V. Copan, J. Cayton, A. Heide

    			-----------------------------------------

	                            ===> Fragment 1 <==

	 Z (Atomic Numbers)          Masses                          Geom
	       2.000000             4.002603          0.00000000  0.00000000  2.76537340
	       7.000000            14.003074          0.00000000  0.00000000 -0.79044734

	 - Coordinate -           - BOHR/RAD -       - ANG/DEG -
	 R(1,2)           =         3.555821           1.881659

	        --- Internal Coordinate Step in ANG or DEG, aJ/ANG or AJ/DEG ---
	-------------------------------------------------------------------------------
	           Coordinate      Previous         Force          Change          New
	           ----------      --------        ------          ------        ------
	               R(1,2)       1.88166        0.00031        0.00130       1.88296
	-------------------------------------------------------------------------------

	                                 ==> Convergence Check <==

	Measures of convergence in internal coordinates in au.

	Criteria marked as inactive (o), active & met (*), and active & unmet ( ).

	----------------------------------------------------------------------------------------------
	   Step    Total Energy     Delta E     Max Force     RMS Force      Max Disp      RMS Disp
	----------------------------------------------------------------------------------------------
	  Convergence Criteria     1.00e-06 *    3.00e-04 *             o    1.20e-03 *             o
	----------------------------------------------------------------------------------------------
	    12     -56.37404535   -7.08e-07 *    3.72e-05 *    3.72e-05 o    2.46e-03      2.46e-03 o  ~
	----------------------------------------------------------------------------------------------

Next Geometry in Ang
	Fragment 1 (Ang)

	   He   0.0000000000   0.0000000000   1.4640225395
	    N   0.0000000000   0.0000000000  -0.4189366765

    Final optimized geometry and variables:
    Molecular point group: c2v
    Full point group: C_inf_v

    Geometry (in Angstrom), charge = 0, multiplicity = 6:

    HE           0.000000000000     0.000000000000     1.463372579708
    N            0.000000000000     0.000000000000    -0.418286716737

    Psi4 stopped on: Wednesday, 16 July 2025 06:20PM
    Psi4 wall time for execution: 0:00:07.45

*** Psi4 exiting successfully. Buy a developer a beer!
