                               Psi4 1.9.1 release

  ==> Input File <==

--------------------------------------------------------------------------
molecule {
0 6
Be   0.00000        0.60000        0.00000
F   0.00000       -0.60000        0.00000
}

set {
basis              cc-pvdz
reference          uks
maxiter            500
geom_maxiter       500
DAMPING_PERCENTAGE 1
guess              SAP
}

optimize('b3lyp')
--------------------------------------------------------------------------

    Molecular point group: c2v
  Charge       = 0
  Multiplicity = 6
  Basis Set: CC-PVDZ
    Blend: CC-PVDZ
  Basis Set: (CC-PVDZ AUX)
    Blend: CC-PVDZ-JKFIT + DEF2-UNIVERSAL-JKFIT
  @DF-UKS Final Energy:  -113.52978695565758
    Total Energy =                       -113.5297869556575847
 Dipole X            :          0.0000000            0.0000000            0.0000000
 Dipole Y            :          0.0000000            0.0000000            0.0000000
 Dipole Z            :         -1.8283264           -0.4141822           -2.2425086
 Magnitude           :                                                    2.2425086
    Molecular point group: c2v
  Basis Set: CC-PVDZ
    Blend: CC-PVDZ
  Basis Set: (CC-PVDZ AUX)
    Blend: CC-PVDZ-JKFIT + DEF2-UNIVERSAL-JKFIT
  Basis Set: CC-PVDZ
    Blend: CC-PVDZ
  Basis Set: (CC-PVDZ AUX)
    Blend: CC-PVDZ-JKFIT + DEF2-UNIVERSAL-JKFIT
  @DF-UKS Final Energy:  -113.69473713144740
    Total Energy =                       -113.6947371314473969
  Basis Set: CC-PVDZ
    Blend: CC-PVDZ
  Basis Set: (CC-PVDZ AUX)
    Blend: CC-PVDZ-JKFIT + DEF2-UNIVERSAL-JKFIT
  Basis Set: CC-PVDZ
    Blend: CC-PVDZ
  @DF-UKS Final Energy:  -113.74584223240015
    Total Energy =                       -113.7458422324001504
  @DF-UKS Final Energy:  -113.78634214797569
    Total Energy =                       -113.7863421479756880
  @DF-UKS Final Energy:  -113.80851667864039
    Total Energy =                       -113.8085166786403875
  @DF-UKS Final Energy:  -113.81870141858538
    Total Energy =                       -113.8187014185853769
  @DF-UKS Final Energy:  -113.82176788657438
    Total Energy =                       -113.8217678865743636
  @DF-UKS Final Energy:  -113.82228373128535
    Total Energy =                       -113.8222837312853670
  @DF-UKS Final Energy:  -113.82231460892633
    Total Energy =                       -113.8223146089263338
  Basis Set: (CC-PVDZ AUX)
    Blend: CC-PVDZ-JKFIT + DEF2-UNIVERSAL-JKFIT
  Basis Set: CC-PVDZ
    Blend: CC-PVDZ
  Basis Set: (CC-PVDZ AUX)
    Blend: CC-PVDZ-JKFIT + DEF2-UNIVERSAL-JKFIT
  @DF-UKS Final Energy:  -113.82231639714712
    Total Energy =                       -113.8223163971471195
  Basis Set: CC-PVDZ
    Blend: CC-PVDZ
  Basis Set: (CC-PVDZ AUX)
    Blend: CC-PVDZ-JKFIT + DEF2-UNIVERSAL-JKFIT
  Charge       = 0
  Multiplicity = 6
  Basis Set: CC-PVDZ
    Blend: CC-PVDZ
  Basis Set: (CC-PVDZ AUX)
    Blend: CC-PVDZ-JKFIT + DEF2-UNIVERSAL-JKFIT

    Orbital Energies [Eh]
    ---------------------

    Alpha Occupied:

       1A1   -25.385135     2A1    -4.017853     3A1    -1.727268
       1B1    -1.019779     1B2    -1.019779     4A1    -0.925936
       5A1    -0.231443     2B1    -0.087354     2B2    -0.087354

    Alpha Virtual:

       6A1    -0.027519     7A1     0.160896     3B2     0.209499
       3B1     0.209499     8A1     0.239130     4B1     0.459856
       4B2     0.459856     9A1     0.495998     1A2     0.495998
      10A1     0.506402     5B1     0.762634     5B2     0.762634
      11A1     0.837178    12A1     1.393979    13A1     2.929222
       2A2     2.929413     6B1     3.004893     6B2     3.004893
      14A1     3.049284

    Beta Occupied:

       1A1   -25.314924     2A1    -3.999362     3A1    -1.531545
       4A1    -0.855378

    Beta Virtual:

       1B1    -0.660247     1B2    -0.660247     5A1    -0.068994
       6A1     0.025749     2B2     0.059755     2B1     0.059755
       7A1     0.216900     8A1     0.279678     3B1     0.284486
       3B2     0.284486     4B2     0.556553     4B1     0.556553
       9A1     0.575742    10A1     0.627327     1A2     0.627330
       5B1     0.875900     5B2     0.875900    11A1     0.878951
      12A1     1.481575     6B1     3.118742     6B2     3.118742
      13A1     3.143713     2A2     3.143898    14A1     3.148464

    Final Occupation by Irrep:
             A1    A2    B1    B2
    DOCC [     4,    0,    0,    0 ]
    SOCC [     1,    0,    2,    2 ]
    NA   [     5,    0,    2,    2 ]
    NB   [     4,    0,    0,    0 ]

  @DF-UKS Final Energy:  -113.82231648744933

   => Energetics <=

    Nuclear Repulsion Energy =              7.8984391514818979
    One-Electron Energy =                -169.7504186322825603
    Two-Electron Energy =                  58.4489068182249625
    DFT Exchange-Correlation Energy =     -10.4192438248736270
    Empirical Dispersion Energy =           0.0000000000000000
    VV10 Nonlocal Energy =                  0.0000000000000000
    Total Energy =                       -113.8223164874493136

  UHF NO Occupations:
  HONO-2 :    2 B1 1.0000000
  HONO-1 :    1 B2 1.0000000
  HONO-0 :    2 B2 1.0000000
  LUNO+0 :    6 A1 0.0006719
  LUNO+1 :    7 A1 0.0002372
  LUNO+2 :    8 A1 0.0000005
  LUNO+3 :    9 A1 0.0000001

Computation Completed

Properties will be evaluated at   0.000000,   0.000000,   0.000000 [a0]

Properties computed using the SCF density matrix

 Multipole Moments:

 ------------------------------------------------------------------------------------
     Multipole            Electronic (a.u.)      Nuclear  (a.u.)        Total (a.u.)
 ------------------------------------------------------------------------------------

 L = 1.  Multiply by 2.5417464519 to convert [e a0] to [Debye]
 Dipole X            :          0.0000000            0.0000000            0.0000000
 Dipole Y            :          0.0000000            0.0000000            0.0000000
 Dipole Z            :         -2.7670049           -0.8324775           -3.5994824
 Magnitude           :                                                    3.5994824

 ------------------------------------------------------------------------------------

*** tstop() called on Joses-MacBook-Pro-2.local at Wed Jul 16 18:41:43 2025
Module time:
	user time   =       2.22 seconds =       0.04 minutes
	system time =       2.75 seconds =       0.05 minutes
	total time  =          1 seconds =       0.02 minutes
Total time:
	user time   =      40.05 seconds =       0.67 minutes
	system time =      46.80 seconds =       0.78 minutes
	total time  =          8 seconds =       0.13 minutes

*** tstart() called on Joses-MacBook-Pro-2.local
*** at Wed Jul 16 18:41:43 2025

         ------------------------------------------------------------
                                   SCF GRAD
                          Rob Parrish, Justin Turney,
                       Andy Simmonett, and Alex Sokolov
         ------------------------------------------------------------

  ==> Geometry <==

    Molecular point group: c2v
    Full point group: C_inf_v

    Geometry (in Angstrom), charge = 0, multiplicity = 6:

       Center              X                  Y                   Z               Mass
    ------------   -----------------  -----------------  -----------------  -----------------
         BE           0.000000000000     0.000000000000     1.635901905049     9.012183065000
         F            0.000000000000     0.000000000000    -0.776015084973    18.998403162730

  Nuclear repulsion =    7.898439151481898

  ==> Basis Set <==

  Basis Set: CC-PVDZ
    Blend: CC-PVDZ
    Number of shells: 12
    Number of basis functions: 28
    Number of Cartesian functions: 30
    Spherical Harmonics?: true
    Max angular momentum: 2

  ==> DFJKGrad: Density-Fitted SCF Gradients <==

    Gradient:                    1
    J tasked:                  Yes
    K tasked:                  Yes
    wK tasked:                  No
    OpenMP threads:              1
    Integrals threads:           1
    Memory [MiB]:              375
    Schwarz Cutoff:          1E-12
    Fitting Condition:       1E-10

   => Auxiliary Basis Set <=

  Basis Set: (CC-PVDZ AUX)
    Blend: CC-PVDZ-JKFIT + DEF2-UNIVERSAL-JKFIT
    Number of shells: 41
    Number of basis functions: 121
    Number of Cartesian functions: 141
    Spherical Harmonics?: true
    Max angular momentum: 3

  ==> DFT Potential <==

   => LibXC <=

    Version 6.2.2
    S. Lehtola, C. Steigemann, M. J.T. Oliveira, and M. A.L. Marques.,  SoftwareX 7, 1â€“5 (2018) (10.1016/j.softx.2017.11.002)

   => Composite Functional: B3LYP <=

    B3LYP Hyb-GGA Exchange-Correlation Functional

    P. J. Stephens, F. J. Devlin, C. F. Chabalowski, and M. J. Frisch.,  J. Phys. Chem. 98, 11623 (1994) (10.1021/j100096a001)

    Deriv               =              1
    GGA                 =           TRUE
    Meta                =          FALSE

    Exchange Hybrid     =           TRUE
    MP2 Hybrid          =          FALSE

   => Exchange Functionals <=

    0.0800   Slater exchange
    0.7200         Becke 88

   => Exact (HF) Exchange <=

    0.2000               HF

   => Correlation Functionals <=

    0.1900   Vosko, Wilk & Nusair (VWN5_RPA)
    0.8100   Lee, Yang & Parr

   => LibXC Density Thresholds  <==

    XC_HYB_GGA_XC_B3LYP:  1.00E-15

   => Molecular Quadrature <=

    Radial Scheme          =       TREUTLER
    Pruning Scheme         =           NONE
    Nuclear Scheme         =       TREUTLER

    Blocking Scheme        =         OCTREE
    BS radius alpha        =              1
    Pruning alpha          =              1
    Radial Points          =             75
    Spherical Points       =            302
    Total Points           =          43627
    Total Blocks           =            398
    Max Points             =            256
    Max Functions          =             28
    Weights Tolerance      =       1.00E-15

  -Total Gradient:
     Atom            X                  Y                   Z
    ------   -----------------  -----------------  -----------------
       1        0.000000000000    -0.000000000000    -0.000028360430
       2        0.000000000000     0.000000000000     0.000014904851

*** tstop() called on Joses-MacBook-Pro-2.local at Wed Jul 16 18:41:43 2025
Module time:
	user time   =       0.53 seconds =       0.01 minutes
	system time =       0.98 seconds =       0.02 minutes
	total time  =          0 seconds =       0.00 minutes
Total time:
	user time   =      40.61 seconds =       0.68 minutes
	system time =      47.78 seconds =       0.80 minutes
	total time  =          8 seconds =       0.13 minutes

    			-----------------------------------------

    			 OPTKING 3.0: for geometry optimizations

    			     By R.A. King, Bethel University

    			        with contributions from

    			    A.V. Copan, J. Cayton, A. Heide

    			-----------------------------------------

	                            ===> Fragment 1 <==

	 Z (Atomic Numbers)          Masses                          Geom
	       4.000000             9.012183          0.00000000  0.00000000  3.09140657
	       9.000000            18.998403          0.00000000  0.00000000 -1.46645598

	 - Coordinate -           - BOHR/RAD -       - ANG/DEG -
	 R(1,2)           =         4.557863           2.411917

	        --- Internal Coordinate Step in ANG or DEG, aJ/ANG or AJ/DEG ---
	-------------------------------------------------------------------------------
	           Coordinate      Previous         Force          Change          New
	           ----------      --------        ------          ------        ------
	               R(1,2)       2.41192        0.00018        0.00034       2.41226
	-------------------------------------------------------------------------------

	                                 ==> Convergence Check <==

	Measures of convergence in internal coordinates in au.

	Criteria marked as inactive (o), active & met (*), and active & unmet ( ).

	----------------------------------------------------------------------------------------------
	   Step    Total Energy     Delta E     Max Force     RMS Force      Max Disp      RMS Disp
	----------------------------------------------------------------------------------------------
	  Convergence Criteria     1.00e-06 *    3.00e-04 *             o    1.20e-03 *             o
	----------------------------------------------------------------------------------------------
	    11    -113.82231649   -9.03e-08 *    2.16e-05 *    2.16e-05 o    6.46e-04 *    6.46e-04 o  ~
	----------------------------------------------------------------------------------------------

Next Geometry in Ang
	Fragment 1 (Ang)

	   Be   0.0000000000   0.0000000000   1.6360729290
	    F   0.0000000000   0.0000000000  -0.7761861089

    Final optimized geometry and variables:
    Molecular point group: c2v
    Full point group: C_inf_v

    Geometry (in Angstrom), charge = 0, multiplicity = 6:

    BE           0.000000000000     0.000000000000     1.635901905049
    F            0.000000000000     0.000000000000    -0.776015084973

    Psi4 stopped on: Wednesday, 16 July 2025 06:41PM
    Psi4 wall time for execution: 0:00:08.94

*** Psi4 exiting successfully. Buy a developer a beer!
