                               Psi4 1.9.1 release

  ==> Input File <==

--------------------------------------------------------------------------
molecule {
0 6
C   0.00000        0.60000        0.00000
Al   0.00000       -0.60000        0.00000
}

set {
basis              cc-pvdz
reference          uks
maxiter            500
geom_maxiter       500
DAMPING_PERCENTAGE 1
guess              SAP
}

optimize('b3lyp')
--------------------------------------------------------------------------

    Molecular point group: c2v
  Charge       = 0
  Multiplicity = 6
  Basis Set: CC-PVDZ
    Blend: CC-PVDZ
  Basis Set: (CC-PVDZ AUX)
    Blend: CC-PVDZ-JKFIT
  @DF-UKS Final Energy:  -279.66264566864459
    Total Energy =                       -279.6626456686445863
 Dipole X            :          0.0000000            0.0000000            0.0000000
 Dipole Y            :          0.0000000            0.0000000            0.0000000
 Dipole Z            :          0.2227236            0.3425940            0.5653176
 Magnitude           :                                                    0.5653176
    Molecular point group: c2v
  Basis Set: CC-PVDZ
    Blend: CC-PVDZ
  Basis Set: (CC-PVDZ AUX)
    Blend: CC-PVDZ-JKFIT
  Basis Set: CC-PVDZ
    Blend: CC-PVDZ
  Basis Set: (CC-PVDZ AUX)
    Blend: CC-PVDZ-JKFIT
  @DF-UKS Final Energy:  -279.94685979262420
    Total Energy =                       -279.9468597926241955
  Basis Set: CC-PVDZ
    Blend: CC-PVDZ
  Basis Set: (CC-PVDZ AUX)
    Blend: CC-PVDZ-JKFIT
  Basis Set: CC-PVDZ
    Blend: CC-PVDZ
  @DF-UKS Final Energy:  -280.10193431434254
    Total Energy =                       -280.1019343143425431
  @DF-UKS Final Energy:  -280.16936951486400
    Total Energy =                       -280.1693695148640018
  @DF-UKS Final Energy:  -280.19830762933810
    Total Energy =                       -280.1983076293380464
  @DF-UKS Final Energy:  -280.20811761587760
    Total Energy =                       -280.2081176158775975
  @DF-UKS Final Energy:  -280.21005424592084
    Total Energy =                       -280.2100542459208441
  @DF-UKS Final Energy:  -280.21056981091942
    Total Energy =                       -280.2105698109193668
  @DF-UKS Final Energy:  -280.21062696414845
    Total Energy =                       -280.2106269641484459
  Basis Set: (CC-PVDZ AUX)
    Blend: CC-PVDZ-JKFIT
  Basis Set: CC-PVDZ
    Blend: CC-PVDZ
  Basis Set: (CC-PVDZ AUX)
    Blend: CC-PVDZ-JKFIT
  @DF-UKS Final Energy:  -280.21063369601717
    Total Energy =                       -280.2106336960171689
  Basis Set: CC-PVDZ
    Blend: CC-PVDZ
  Basis Set: (CC-PVDZ AUX)
    Blend: CC-PVDZ-JKFIT
  Charge       = 0
  Multiplicity = 6
  Basis Set: CC-PVDZ
    Blend: CC-PVDZ
  Basis Set: (CC-PVDZ AUX)
    Blend: CC-PVDZ-JKFIT

    Orbital Energies [Eh]
    ---------------------

    Alpha Occupied:

       1A1   -56.119089     2A1   -10.248047     3A1    -4.198764
       1B1    -2.753850     4A1    -2.750761     1B2    -2.750419
       5A1    -0.622425     6A1    -0.371331     2B2    -0.269889
       2B1    -0.263163     7A1    -0.258410     3B2    -0.131102

    Alpha Virtual:

       3B1    -0.076902     8A1     0.020531     9A1     0.145887
       4B2     0.187695     4B1     0.193135    10A1     0.222513
       1A2     0.223501    11A1     0.228495     5B2     0.276296
       5B1     0.279989    12A1     0.381044     6B2     0.515966
       6B1     0.516946    13A1     0.590292    14A1     0.833645
       2A2     1.132283    15A1     1.132531     7B1     1.244458
       7B2     1.245470    16A1     1.532160

    Beta Occupied:

       1A1   -56.111857     2A1   -10.208184     3A1    -4.188311
       1B1    -2.746459     4A1    -2.740935     1B2    -2.736921
       5A1    -0.485740

    Beta Virtual:

       6A1    -0.198117     2B1    -0.107938     2B2    -0.091608
       7A1    -0.082941     3B1     0.006046     3B2     0.025705
       8A1     0.064610     9A1     0.186555     4B1     0.220700
       4B2     0.239442    10A1     0.283771     1A2     0.297445
      11A1     0.300614     5B1     0.345268     5B2     0.366809
      12A1     0.437412     6B1     0.590148     6B2     0.599329
      13A1     0.672803    14A1     0.910486     2A2     1.251629
      15A1     1.251651     7B1     1.352640     7B2     1.363394
      16A1     1.631148

    Final Occupation by Irrep:
             A1    A2    B1    B2
    DOCC [     5,    0,    1,    1 ]
    SOCC [     2,    0,    1,    2 ]
    NA   [     7,    0,    2,    3 ]
    NB   [     5,    0,    1,    1 ]

  @DF-UKS Final Energy:  -280.21063457989095

   => Energetics <=

    Nuclear Repulsion Energy =             20.8144461265615597
    One-Electron Energy =                -428.3001805284442298
    Two-Electron Energy =                 146.5781393124484282
    DFT Exchange-Correlation Energy =     -19.3030394904566585
    Empirical Dispersion Energy =           0.0000000000000000
    VV10 Nonlocal Energy =                  0.0000000000000000
    Total Energy =                       -280.2106345798909501

  UHF NO Occupations:
  HONO-2 :    3 B2 1.0000000
  HONO-1 :    2 B1 1.0000000
  HONO-0 :    7 A1 1.0000000
  LUNO+0 :    8 A1 0.0012322
  LUNO+1 :    3 B1 0.0000007
  LUNO+2 :    9 A1 0.0000004
  LUNO+3 :    4 B2 0.0000003

Computation Completed

Properties will be evaluated at   0.000000,   0.000000,   0.000000 [a0]

Properties computed using the SCF density matrix

 Multipole Moments:

 ------------------------------------------------------------------------------------
     Multipole            Electronic (a.u.)      Nuclear  (a.u.)        Total (a.u.)
 ------------------------------------------------------------------------------------

 L = 1.  Multiply by 2.5417464519 to convert [e a0] to [Debye]
 Dipole X            :          0.0000000            0.0000000            0.0000000
 Dipole Y            :          0.0000000            0.0000000            0.0000000
 Dipole Z            :         -1.0135283            0.5661472           -0.4473811
 Magnitude           :                                                    0.4473811

 ------------------------------------------------------------------------------------

*** tstop() called on Joses-MacBook-Pro-2.local at Wed Jul 16 19:03:30 2025
Module time:
	user time   =       3.51 seconds =       0.06 minutes
	system time =       2.56 seconds =       0.04 minutes
	total time  =          0 seconds =       0.00 minutes
Total time:
	user time   =      55.00 seconds =       0.92 minutes
	system time =      57.47 seconds =       0.96 minutes
	total time  =         11 seconds =       0.18 minutes

*** tstart() called on Joses-MacBook-Pro-2.local
*** at Wed Jul 16 19:03:30 2025

         ------------------------------------------------------------
                                   SCF GRAD
                          Rob Parrish, Justin Turney,
                       Andy Simmonett, and Alex Sokolov
         ------------------------------------------------------------

  ==> Geometry <==

    Molecular point group: c2v
    Full point group: C_inf_v

    Geometry (in Angstrom), charge = 0, multiplicity = 6:

       Center              X                  Y                   Z               Mass
    ------------   -----------------  -----------------  -----------------  -----------------
         C            0.000000000000     0.000000000000     1.372582985078    12.000000000000
         AL           0.000000000000     0.000000000000    -0.610454285349    26.981538530000

  Nuclear repulsion =   20.814446126561560

  ==> Basis Set <==

  Basis Set: CC-PVDZ
    Blend: CC-PVDZ
    Number of shells: 14
    Number of basis functions: 32
    Number of Cartesian functions: 34
    Spherical Harmonics?: true
    Max angular momentum: 2

  ==> DFJKGrad: Density-Fitted SCF Gradients <==

    Gradient:                    1
    J tasked:                  Yes
    K tasked:                  Yes
    wK tasked:                  No
    OpenMP threads:              1
    Integrals threads:           1
    Memory [MiB]:              375
    Schwarz Cutoff:          1E-12
    Fitting Condition:       1E-10

   => Auxiliary Basis Set <=

  Basis Set: (CC-PVDZ AUX)
    Blend: CC-PVDZ-JKFIT
    Number of shells: 60
    Number of basis functions: 182
    Number of Cartesian functions: 211
    Spherical Harmonics?: true
    Max angular momentum: 3

  ==> DFT Potential <==

   => LibXC <=

    Version 6.2.2
    S. Lehtola, C. Steigemann, M. J.T. Oliveira, and M. A.L. Marques.,  SoftwareX 7, 1â€“5 (2018) (10.1016/j.softx.2017.11.002)

   => Composite Functional: B3LYP <=

    B3LYP Hyb-GGA Exchange-Correlation Functional

    P. J. Stephens, F. J. Devlin, C. F. Chabalowski, and M. J. Frisch.,  J. Phys. Chem. 98, 11623 (1994) (10.1021/j100096a001)

    Deriv               =              1
    GGA                 =           TRUE
    Meta                =          FALSE

    Exchange Hybrid     =           TRUE
    MP2 Hybrid          =          FALSE

   => Exchange Functionals <=

    0.0800   Slater exchange
    0.7200         Becke 88

   => Exact (HF) Exchange <=

    0.2000               HF

   => Correlation Functionals <=

    0.1900   Vosko, Wilk & Nusair (VWN5_RPA)
    0.8100   Lee, Yang & Parr

   => LibXC Density Thresholds  <==

    XC_HYB_GGA_XC_B3LYP:  1.00E-15

   => Molecular Quadrature <=

    Radial Scheme          =       TREUTLER
    Pruning Scheme         =           NONE
    Nuclear Scheme         =       TREUTLER

    Blocking Scheme        =         OCTREE
    BS radius alpha        =              1
    Pruning alpha          =              1
    Radial Points          =             75
    Spherical Points       =            302
    Total Points           =          43271
    Total Blocks           =            401
    Max Points             =            255
    Max Functions          =             32
    Weights Tolerance      =       1.00E-15

  -Total Gradient:
     Atom            X                  Y                   Z
    ------   -----------------  -----------------  -----------------
       1        0.000000000000    -0.000000000000    -0.000102636604
       2        0.000000000000    -0.000000000000     0.000082917731

*** tstop() called on Joses-MacBook-Pro-2.local at Wed Jul 16 19:03:30 2025
Module time:
	user time   =       0.83 seconds =       0.01 minutes
	system time =       1.55 seconds =       0.03 minutes
	total time  =          0 seconds =       0.00 minutes
Total time:
	user time   =      55.83 seconds =       0.93 minutes
	system time =      59.02 seconds =       0.98 minutes
	total time  =         11 seconds =       0.18 minutes

    			-----------------------------------------

    			 OPTKING 3.0: for geometry optimizations

    			     By R.A. King, Bethel University

    			        with contributions from

    			    A.V. Copan, J. Cayton, A. Heide

    			-----------------------------------------

	                            ===> Fragment 1 <==

	 Z (Atomic Numbers)          Masses                          Geom
	       6.000000            12.000000          0.00000000  0.00000000  2.59380593
	      13.000000            26.981539          0.00000000  0.00000000 -1.15359141

	 - Coordinate -           - BOHR/RAD -       - ANG/DEG -
	 R(1,2)           =         3.747397           1.983037

	        --- Internal Coordinate Step in ANG or DEG, aJ/ANG or AJ/DEG ---
	-------------------------------------------------------------------------------
	           Coordinate      Previous         Force          Change          New
	           ----------      --------        ------          ------        ------
	               R(1,2)       1.98304        0.00076        0.00033       1.98337
	-------------------------------------------------------------------------------

	                                 ==> Convergence Check <==

	Measures of convergence in internal coordinates in au.

	Criteria marked as inactive (o), active & met (*), and active & unmet ( ).

	----------------------------------------------------------------------------------------------
	   Step    Total Energy     Delta E     Max Force     RMS Force      Max Disp      RMS Disp
	----------------------------------------------------------------------------------------------
	  Convergence Criteria     1.00e-06 *    3.00e-04 *             o    1.20e-03 *             o
	----------------------------------------------------------------------------------------------
	    11    -280.21063458   -8.84e-07 *    9.28e-05 *    9.28e-05 o    6.32e-04 *    6.32e-04 o  ~
	----------------------------------------------------------------------------------------------

Next Geometry in Ang
	Fragment 1 (Ang)

	    C   0.0000000000   0.0000000000   1.3727502682
	   Al   0.0000000000   0.0000000000  -0.6106215684

    Final optimized geometry and variables:
    Molecular point group: c2v
    Full point group: C_inf_v

    Geometry (in Angstrom), charge = 0, multiplicity = 6:

    C            0.000000000000     0.000000000000     1.372582985078
    AL           0.000000000000     0.000000000000    -0.610454285349

    Psi4 stopped on: Wednesday, 16 July 2025 07:03PM
    Psi4 wall time for execution: 0:00:11.59

*** Psi4 exiting successfully. Buy a developer a beer!
