                               Psi4 1.9.1 release

  ==> Input File <==

--------------------------------------------------------------------------
molecule {
0 6
F   0.00000        0.60000        0.00000
S   0.00000       -0.60000        0.00000
}

set {
basis              cc-pvdz
reference          uks
maxiter            500
geom_maxiter       500
DAMPING_PERCENTAGE 1
guess              SAP
}

optimize('b3lyp')
--------------------------------------------------------------------------

    Molecular point group: c2v
  Charge       = 0
  Multiplicity = 6
  Basis Set: CC-PVDZ
    Blend: CC-PVDZ
  Basis Set: (CC-PVDZ AUX)
    Blend: CC-PVDZ-JKFIT
  @DF-UKS Final Energy:  -496.72645518738886
    Total Energy =                       -496.7264551873888649
 Dipole X            :          0.0000000            0.0000000            0.0000000
 Dipole Y            :          0.0000000            0.0000000            0.0000000
 Dipole Z            :          1.0109371           -0.7218847            0.2890524
 Magnitude           :                                                    0.2890524
    Molecular point group: c2v
  Basis Set: CC-PVDZ
    Blend: CC-PVDZ
  Basis Set: (CC-PVDZ AUX)
    Blend: CC-PVDZ-JKFIT
  Basis Set: CC-PVDZ
    Blend: CC-PVDZ
  Basis Set: (CC-PVDZ AUX)
    Blend: CC-PVDZ-JKFIT
  @DF-UKS Final Energy:  -496.88258402015606
    Total Energy =                       -496.8825840201560595
  Basis Set: CC-PVDZ
    Blend: CC-PVDZ
  Basis Set: (CC-PVDZ AUX)
    Blend: CC-PVDZ-JKFIT
  Basis Set: CC-PVDZ
    Blend: CC-PVDZ
  @DF-UKS Final Energy:  -496.98426157724543
    Total Energy =                       -496.9842615772454337
  @DF-UKS Final Energy:  -497.04613935503727
    Total Energy =                       -497.0461393550372691
  @DF-UKS Final Energy:  -497.10563974399088
    Total Energy =                       -497.1056397439908778
  @DF-UKS Final Energy:  -497.16410612141021
    Total Energy =                       -497.1641061214102137
  @DF-UKS Final Energy:  -497.19641841304298
    Total Energy =                       -497.1964184130429771
  @DF-UKS Final Energy:  -497.21113247624334
    Total Energy =                       -497.2111324762433355
  @DF-UKS Final Energy:  -497.21727328865160
    Total Energy =                       -497.2172732886515973
  @DF-UKS Final Energy:  -497.22014477452251
    Total Energy =                       -497.2201447745225664
  @DF-UKS Final Energy:  -497.22149350236310
    Total Energy =                       -497.2214935023631028
  @DF-UKS Final Energy:  -497.22215030127097
    Total Energy =                       -497.2221503012709718
  @DF-UKS Final Energy:  -497.22249041608075
    Total Energy =                       -497.2224904160807455
  @DF-UKS Final Energy:  -497.22268823886913
    Total Energy =                       -497.2226882388690683
  @DF-UKS Final Energy:  -497.22282422147157
    Total Energy =                       -497.2228242214715692
  Basis Set: (CC-PVDZ AUX)
    Blend: CC-PVDZ-JKFIT
  Basis Set: CC-PVDZ
    Blend: CC-PVDZ
  Basis Set: (CC-PVDZ AUX)
    Blend: CC-PVDZ-JKFIT
  @DF-UKS Final Energy:  -497.22293483267231
    Total Energy =                       -497.2229348326723084
  Basis Set: CC-PVDZ
    Blend: CC-PVDZ
  Basis Set: (CC-PVDZ AUX)
    Blend: CC-PVDZ-JKFIT
  Charge       = 0
  Multiplicity = 6
  Basis Set: CC-PVDZ
    Blend: CC-PVDZ
  Basis Set: (CC-PVDZ AUX)
    Blend: CC-PVDZ-JKFIT

    Orbital Energies [Eh]
    ---------------------

    Alpha Occupied:

       1A1   -88.936598     2A1   -24.784235     3A1    -8.019035
       4A1    -5.983677     1B2    -5.983667     1B1    -5.980595
       5A1    -1.214329     6A1    -0.790465     7A1    -0.541851
       2B2    -0.452320     2B1    -0.452224     8A1    -0.378171
       3B2    -0.377923     3B1    -0.373807     4B1     0.348216

    Alpha Virtual:

       9A1     0.385715    10A1     0.414548     4B2     0.415700
      11A1     0.474656     5B2     0.474690     5B1     0.487843
       1A2     0.487987    12A1     0.493850    13A1     1.034516
       6B2     1.088180     6B1     1.088393    14A1     1.420690
      15A1     3.436022     7B2     3.457932     7B1     3.457989
       2A2     3.527535    16A1     3.527644

    Beta Occupied:

       1A1   -88.913242     2A1   -24.753593     3A1    -7.995541
       4A1    -5.954632     1B2    -5.954613     1B1    -5.933843
       5A1    -1.123489     6A1    -0.638036     2B2    -0.420972
       2B1    -0.420874

    Beta Virtual:

       7A1    -0.248159     8A1    -0.201865     3B2    -0.201792
       3B1    -0.171769     9A1     0.463956    10A1     0.480138
       4B2     0.481119     4B1     0.510645    11A1     0.587544
       5B2     0.587578     5B1     0.609156     1A2     0.609317
      12A1     0.617236     6B2     1.106142     6B1     1.106349
      13A1     1.145581    14A1     1.467921     2A2     3.542689
      15A1     3.542790     7B2     3.553001     7B1     3.553058
      16A1     3.572488

    Final Occupation by Irrep:
             A1    A2    B1    B2
    DOCC [     6,    0,    2,    2 ]
    SOCC [     2,    0,    2,    1 ]
    NA   [     8,    0,    4,    3 ]
    NB   [     6,    0,    2,    2 ]

  @DF-UKS Final Energy:  -497.22303229292373

   => Energetics <=

    Nuclear Repulsion Energy =             18.1591674660603921
    One-Electron Energy =                -724.0197925660284000
    Two-Electron Energy =                 237.6929206756109068
    DFT Exchange-Correlation Energy =     -29.0553278685666356
    Empirical Dispersion Energy =           0.0000000000000000
    VV10 Nonlocal Energy =                  0.0000000000000000
    Total Energy =                       -497.2230322929237332

  UHF NO Occupations:
  HONO-2 :    7 A1 1.0000000
  HONO-1 :    4 B1 1.0000000
  HONO-0 :    8 A1 1.0000000
  LUNO+0 :    9 A1 0.0003772
  LUNO+1 :   10 A1 0.0003065
  LUNO+2 :    5 B1 0.0000547
  LUNO+3 :    4 B2 0.0000546

Computation Completed

Properties will be evaluated at   0.000000,   0.000000,   0.000000 [a0]

Properties computed using the SCF density matrix

 Multipole Moments:

 ------------------------------------------------------------------------------------
     Multipole            Electronic (a.u.)      Nuclear  (a.u.)        Total (a.u.)
 ------------------------------------------------------------------------------------

 L = 1.  Multiply by 2.5417464519 to convert [e a0] to [Debye]
 Dipole X            :          0.0000000            0.0000000            0.0000000
 Dipole Y            :          0.0000000            0.0000000            0.0000000
 Dipole Z            :          2.5221994           -2.5243773           -0.0021779
 Magnitude           :                                                    0.0021779

 ------------------------------------------------------------------------------------

*** tstop() called on Joses-MacBook-Pro-2.local at Wed Jul 16 19:30:29 2025
Module time:
	user time   =       3.35 seconds =       0.06 minutes
	system time =       2.73 seconds =       0.05 minutes
	total time  =          1 seconds =       0.02 minutes
Total time:
	user time   =     101.16 seconds =       1.69 minutes
	system time =      82.54 seconds =       1.38 minutes
	total time  =         18 seconds =       0.30 minutes

*** tstart() called on Joses-MacBook-Pro-2.local
*** at Wed Jul 16 19:30:29 2025

         ------------------------------------------------------------
                                   SCF GRAD
                          Rob Parrish, Justin Turney,
                       Andy Simmonett, and Alex Sokolov
         ------------------------------------------------------------

  ==> Geometry <==

    Molecular point group: c2v
    Full point group: C_inf_v

    Geometry (in Angstrom), charge = 0, multiplicity = 6:

       Center              X                  Y                   Z               Mass
    ------------   -----------------  -----------------  -----------------  -----------------
         F            0.000000000000     0.000000000000     2.632205468158    18.998403162730
         S            0.000000000000     0.000000000000    -1.564105760256    31.972071174400

  Nuclear repulsion =   18.159167466060392

  ==> Basis Set <==

  Basis Set: CC-PVDZ
    Blend: CC-PVDZ
    Number of shells: 14
    Number of basis functions: 32
    Number of Cartesian functions: 34
    Spherical Harmonics?: true
    Max angular momentum: 2

  ==> DFJKGrad: Density-Fitted SCF Gradients <==

    Gradient:                    1
    J tasked:                  Yes
    K tasked:                  Yes
    wK tasked:                  No
    OpenMP threads:              1
    Integrals threads:           1
    Memory [MiB]:              375
    Schwarz Cutoff:          1E-12
    Fitting Condition:       1E-10

   => Auxiliary Basis Set <=

  Basis Set: (CC-PVDZ AUX)
    Blend: CC-PVDZ-JKFIT
    Number of shells: 60
    Number of basis functions: 182
    Number of Cartesian functions: 211
    Spherical Harmonics?: true
    Max angular momentum: 3

  ==> DFT Potential <==

   => LibXC <=

    Version 6.2.2
    S. Lehtola, C. Steigemann, M. J.T. Oliveira, and M. A.L. Marques.,  SoftwareX 7, 1â€“5 (2018) (10.1016/j.softx.2017.11.002)

   => Composite Functional: B3LYP <=

    B3LYP Hyb-GGA Exchange-Correlation Functional

    P. J. Stephens, F. J. Devlin, C. F. Chabalowski, and M. J. Frisch.,  J. Phys. Chem. 98, 11623 (1994) (10.1021/j100096a001)

    Deriv               =              1
    GGA                 =           TRUE
    Meta                =          FALSE

    Exchange Hybrid     =           TRUE
    MP2 Hybrid          =          FALSE

   => Exchange Functionals <=

    0.0800   Slater exchange
    0.7200         Becke 88

   => Exact (HF) Exchange <=

    0.2000               HF

   => Correlation Functionals <=

    0.1900   Vosko, Wilk & Nusair (VWN5_RPA)
    0.8100   Lee, Yang & Parr

   => LibXC Density Thresholds  <==

    XC_HYB_GGA_XC_B3LYP:  1.00E-15

   => Molecular Quadrature <=

    Radial Scheme          =       TREUTLER
    Pruning Scheme         =           NONE
    Nuclear Scheme         =       TREUTLER

    Blocking Scheme        =         OCTREE
    BS radius alpha        =              1
    Pruning alpha          =              1
    Radial Points          =             75
    Spherical Points       =            302
    Total Points           =          42343
    Total Blocks           =            408
    Max Points             =            251
    Max Functions          =             32
    Weights Tolerance      =       1.00E-15

  -Total Gradient:
     Atom            X                  Y                   Z
    ------   -----------------  -----------------  -----------------
       1       -0.000000000000     0.000000000000    -0.000101830418
       2        0.000000000000    -0.000000000000     0.000150518722

*** tstop() called on Joses-MacBook-Pro-2.local at Wed Jul 16 19:30:29 2025
Module time:
	user time   =       0.92 seconds =       0.02 minutes
	system time =       1.07 seconds =       0.02 minutes
	total time  =          0 seconds =       0.00 minutes
Total time:
	user time   =     102.09 seconds =       1.70 minutes
	system time =      83.61 seconds =       1.39 minutes
	total time  =         18 seconds =       0.30 minutes

    			-----------------------------------------

    			 OPTKING 3.0: for geometry optimizations

    			     By R.A. King, Bethel University

    			        with contributions from

    			    A.V. Copan, J. Cayton, A. Heide

    			-----------------------------------------

	                            ===> Fragment 1 <==

	 Z (Atomic Numbers)          Masses                          Geom
	       9.000000            18.998403          0.00000000  0.00000000  4.97414744
	      16.000000            31.972071          0.00000000  0.00000000 -2.95573152

	 - Coordinate -           - BOHR/RAD -       - ANG/DEG -
	 R(1,2)           =         7.929879           4.196311

	        --- Internal Coordinate Step in ANG or DEG, aJ/ANG or AJ/DEG ---
	-------------------------------------------------------------------------------
	           Coordinate      Previous         Force          Change          New
	           ----------      --------        ------          ------        ------
	               R(1,2)       4.19631        0.00104        0.00040       4.19671
	-------------------------------------------------------------------------------

	                                 ==> Convergence Check <==

	Measures of convergence in internal coordinates in au.

	Criteria marked as inactive (o), active & met (*), and active & unmet ( ).

	----------------------------------------------------------------------------------------------
	   Step    Total Energy     Delta E     Max Force     RMS Force      Max Disp      RMS Disp
	----------------------------------------------------------------------------------------------
	  Convergence Criteria     1.00e-06 *    3.00e-04 *             o    1.20e-03 *             o
	----------------------------------------------------------------------------------------------
	    17    -497.22303229   -9.75e-05      1.26e-04 *    1.26e-04 o    7.52e-04 *    7.52e-04 o  ~
	----------------------------------------------------------------------------------------------

Next Geometry in Ang
	Fragment 1 (Ang)

	    F   0.0000000000   0.0000000000   2.6324044792
	    S   0.0000000000   0.0000000000  -1.5643047713

    Final optimized geometry and variables:
    Molecular point group: c2v
    Full point group: C_inf_v

    Geometry (in Angstrom), charge = 0, multiplicity = 6:

    F            0.000000000000     0.000000000000     2.632205468158
    S            0.000000000000     0.000000000000    -1.564105760256

    Psi4 stopped on: Wednesday, 16 July 2025 07:30PM
    Psi4 wall time for execution: 0:00:18.97

*** Psi4 exiting successfully. Buy a developer a beer!
