                               Psi4 1.9.1 release

  ==> Input File <==

--------------------------------------------------------------------------
molecule {
0 6
P   0.00000        0.60000        0.00000
S   0.00000       -0.60000        0.00000
}

set {
basis              cc-pvdz
reference          uks
maxiter            500
geom_maxiter       500
DAMPING_PERCENTAGE 1
guess              SAP
}

optimize('b3lyp')
--------------------------------------------------------------------------

    Molecular point group: c2v
  Charge       = 0
  Multiplicity = 6
  Basis Set: CC-PVDZ
    Blend: CC-PVDZ
  Basis Set: (CC-PVDZ AUX)
    Blend: CC-PVDZ-JKFIT
  @DF-UKS Final Energy:  -737.73529063346086
    Total Energy =                       -737.7352906334609770
 Dipole X            :          0.0000000            0.0000000            0.0000000
 Dipole Y            :          0.0000000            0.0000000            0.0000000
 Dipole Z            :         -0.3903405           -0.5763806           -0.9667210
 Magnitude           :                                                    0.9667210
    Molecular point group: c2v
  Basis Set: CC-PVDZ
    Blend: CC-PVDZ
  Basis Set: (CC-PVDZ AUX)
    Blend: CC-PVDZ-JKFIT
  Basis Set: CC-PVDZ
    Blend: CC-PVDZ
  Basis Set: (CC-PVDZ AUX)
    Blend: CC-PVDZ-JKFIT
  @DF-UKS Final Energy:  -737.77345274584820
    Total Energy =                       -737.7734527458482034
  Basis Set: CC-PVDZ
    Blend: CC-PVDZ
  Basis Set: (CC-PVDZ AUX)
    Blend: CC-PVDZ-JKFIT
  Basis Set: CC-PVDZ
    Blend: CC-PVDZ
  @DF-UKS Final Energy:  -737.84466547727777
    Total Energy =                       -737.8446654772777720
  @DF-UKS Final Energy:  -738.07962517522787
    Total Energy =                       -738.0796251752279886
  @DF-UKS Final Energy:  -738.68223955590020
    Total Energy =                       -738.6822395559001961
  @DF-UKS Final Energy:  -738.94423115738653
    Total Energy =                       -738.9442311573865254
  @DF-UKS Final Energy:  -739.11256443422394
    Total Energy =                       -739.1125644342239411
  @DF-UKS Final Energy:  -739.22577229730950
    Total Energy =                       -739.2257722973096179
  @DF-UKS Final Energy:  -739.29680312023766
    Total Energy =                       -739.2968031202376551
  @DF-UKS Final Energy:  -739.34226312062663
    Total Energy =                       -739.3422631206266260
  @DF-UKS Final Energy:  -739.36946430553223
    Total Energy =                       -739.3694643055322331
  @DF-UKS Final Energy:  -739.38459688535045
    Total Energy =                       -739.3845968853503337
  @DF-UKS Final Energy:  -739.39258440023343
    Total Energy =                       -739.3925844002334316
  @DF-UKS Final Energy:  -739.39671798407221
    Total Energy =                       -739.3967179840722110
  @DF-UKS Final Energy:  -739.39887893969762
    Total Energy =                       -739.3988789396976244
  @DF-UKS Final Energy:  -739.40003029938021
    Total Energy =                       -739.4000302993802052
  @DF-UKS Final Energy:  -739.40065651444979
    Total Energy =                       -739.4006565144499064
  @DF-UKS Final Energy:  -739.40100647192276
    Total Energy =                       -739.4010064719227557
  @DF-UKS Final Energy:  -739.40120853759140
    Total Energy =                       -739.4012085375914012
  @DF-UKS Final Energy:  -739.40132908945100
    Total Energy =                       -739.4013290894509964
  Basis Set: (CC-PVDZ AUX)
    Blend: CC-PVDZ-JKFIT
  Basis Set: CC-PVDZ
    Blend: CC-PVDZ
  Basis Set: (CC-PVDZ AUX)
    Blend: CC-PVDZ-JKFIT
  @DF-UKS Final Energy:  -739.40140395025514
    Total Energy =                       -739.4014039502551441
  Basis Set: CC-PVDZ
    Blend: CC-PVDZ
  Basis Set: (CC-PVDZ AUX)
    Blend: CC-PVDZ-JKFIT
  Charge       = 0
  Multiplicity = 6
  Basis Set: CC-PVDZ
    Blend: CC-PVDZ
  Basis Set: (CC-PVDZ AUX)
    Blend: CC-PVDZ-JKFIT

    Orbital Energies [Eh]
    ---------------------

    Alpha Occupied:

       1A1   -88.930330     2A1   -77.117443     3A1    -7.988648
       4A1    -6.585613     1B1    -5.957881     5A1    -5.957881
       1B2    -5.938102     6A1    -4.749031     2B1    -4.749027
       2B2    -4.749025     7A1    -0.720026     8A1    -0.596389
       9A1    -0.328906     3B1    -0.328888     3B2    -0.280334
      10A1    -0.257096     4B1    -0.256998     4B2    -0.256932

    Alpha Virtual:

      11A1     0.329794    12A1     0.393664     5B1     0.400245
       5B2     0.400383    13A1     0.431870     6B1     0.432002
       6B2     0.432045    14A1     0.432111     1A2     0.432121
      15A1     0.445872     7B1     0.454554    16A1     0.462487
       7B2     0.485494     8B1     0.522190    17A1     0.522229
       2A2     0.560834     8B2     0.560835    18A1     0.575080

    Beta Occupied:

       1A1   -88.919541     2A1   -77.105217     3A1    -7.977639
       4A1    -6.572685     1B1    -5.936516     5A1    -5.936512
       1B2    -5.931595     6A1    -4.729920     2B1    -4.729911
       2B2    -4.729906     7A1    -0.627150     8A1    -0.479609
       3B2    -0.253530

    Beta Virtual:

       9A1    -0.171535     3B1    -0.171401    10A1    -0.110069
       4B1    -0.109980     4B2    -0.109899    11A1     0.373763
      12A1     0.443236     5B1     0.450051     5B2     0.450161
      13A1     0.482048     6B2     0.498435     6B1     0.504582
      14A1     0.511579     7B1     0.529001     7B2     0.529048
      15A1     0.529109     1A2     0.529134    16A1     0.529149
       2A2     0.618044     8B2     0.618046    17A1     0.621195
       8B1     0.630184    18A1     0.630210

    Final Occupation by Irrep:
             A1    A2    B1    B2
    DOCC [     8,    0,    2,    3 ]
    SOCC [     2,    0,    2,    1 ]
    NA   [    10,    0,    4,    4 ]
    NB   [     8,    0,    2,    3 ]

  @DF-UKS Final Energy:  -739.40145248867623

   => Energetics <=

    Nuclear Repulsion Energy =             23.7311608633845523
    One-Electron Energy =               -1068.6045353362399055
    Two-Electron Energy =                 344.7967269359403986
    DFT Exchange-Correlation Energy =     -39.3248049517611591
    Empirical Dispersion Energy =           0.0000000000000000
    VV10 Nonlocal Energy =                  0.0000000000000000
    Total Energy =                       -739.4014524886762274

  UHF NO Occupations:
  HONO-2 :   10 A1 1.0000000
  HONO-1 :    4 B1 1.0000000
  HONO-0 :    4 B2 1.0000000
  LUNO+0 :   11 A1 0.0010182
  LUNO+1 :    5 B2 0.0000985
  LUNO+2 :   12 A1 0.0000888
  LUNO+3 :   13 A1 0.0000000

Computation Completed

Properties will be evaluated at   0.000000,   0.000000,   0.000000 [a0]

Properties computed using the SCF density matrix

 Multipole Moments:

 ------------------------------------------------------------------------------------
     Multipole            Electronic (a.u.)      Nuclear  (a.u.)        Total (a.u.)
 ------------------------------------------------------------------------------------

 L = 1.  Multiply by 2.5417464519 to convert [e a0] to [Debye]
 Dipole X            :          0.0000000            0.0000000            0.0000000
 Dipole Y            :          0.0000000            0.0000000            0.0000000
 Dipole Z            :          2.5744107           -2.5705230            0.0038877
 Magnitude           :                                                    0.0038877

 ------------------------------------------------------------------------------------

*** tstop() called on Joses-MacBook-Pro-2.local at Wed Jul 16 20:23:42 2025
Module time:
	user time   =       2.45 seconds =       0.04 minutes
	system time =       2.75 seconds =       0.05 minutes
	total time  =          1 seconds =       0.02 minutes
Total time:
	user time   =     229.59 seconds =       3.83 minutes
	system time =      84.13 seconds =       1.40 minutes
	total time  =         31 seconds =       0.52 minutes

*** tstart() called on Joses-MacBook-Pro-2.local
*** at Wed Jul 16 20:23:42 2025

         ------------------------------------------------------------
                                   SCF GRAD
                          Rob Parrish, Justin Turney,
                       Andy Simmonett, and Alex Sokolov
         ------------------------------------------------------------

  ==> Geometry <==

    Molecular point group: c2v
    Full point group: C_inf_v

    Geometry (in Angstrom), charge = 0, multiplicity = 6:

       Center              X                  Y                   Z               Mass
    ------------   -----------------  -----------------  -----------------  -----------------
         P            0.000000000000     0.000000000000     2.718298690797    30.973761998420
         S            0.000000000000     0.000000000000    -2.633421408019    31.972071174400

  Nuclear repulsion =   23.731160863384552

  ==> Basis Set <==

  Basis Set: CC-PVDZ
    Blend: CC-PVDZ
    Number of shells: 16
    Number of basis functions: 36
    Number of Cartesian functions: 38
    Spherical Harmonics?: true
    Max angular momentum: 2

  ==> DFJKGrad: Density-Fitted SCF Gradients <==

    Gradient:                    1
    J tasked:                  Yes
    K tasked:                  Yes
    wK tasked:                  No
    OpenMP threads:              1
    Integrals threads:           1
    Memory [MiB]:              375
    Schwarz Cutoff:          1E-12
    Fitting Condition:       1E-10

   => Auxiliary Basis Set <=

  Basis Set: (CC-PVDZ AUX)
    Blend: CC-PVDZ-JKFIT
    Number of shells: 72
    Number of basis functions: 224
    Number of Cartesian functions: 260
    Spherical Harmonics?: true
    Max angular momentum: 3

  ==> DFT Potential <==

   => LibXC <=

    Version 6.2.2
    S. Lehtola, C. Steigemann, M. J.T. Oliveira, and M. A.L. Marques.,  SoftwareX 7, 1â€“5 (2018) (10.1016/j.softx.2017.11.002)

   => Composite Functional: B3LYP <=

    B3LYP Hyb-GGA Exchange-Correlation Functional

    P. J. Stephens, F. J. Devlin, C. F. Chabalowski, and M. J. Frisch.,  J. Phys. Chem. 98, 11623 (1994) (10.1021/j100096a001)

    Deriv               =              1
    GGA                 =           TRUE
    Meta                =          FALSE

    Exchange Hybrid     =           TRUE
    MP2 Hybrid          =          FALSE

   => Exchange Functionals <=

    0.0800   Slater exchange
    0.7200         Becke 88

   => Exact (HF) Exchange <=

    0.2000               HF

   => Correlation Functionals <=

    0.1900   Vosko, Wilk & Nusair (VWN5_RPA)
    0.8100   Lee, Yang & Parr

   => LibXC Density Thresholds  <==

    XC_HYB_GGA_XC_B3LYP:  1.00E-15

   => Molecular Quadrature <=

    Radial Scheme          =       TREUTLER
    Pruning Scheme         =           NONE
    Nuclear Scheme         =       TREUTLER

    Blocking Scheme        =         OCTREE
    BS radius alpha        =              1
    Pruning alpha          =              1
    Radial Points          =             75
    Spherical Points       =            302
    Total Points           =          41072
    Total Blocks           =            442
    Max Points             =            246
    Max Functions          =             36
    Weights Tolerance      =       1.00E-15

  -Total Gradient:
     Atom            X                  Y                   Z
    ------   -----------------  -----------------  -----------------
       1        0.000000000000     0.000000000000    -0.000072631902
       2        0.000000000000     0.000000000000     0.000072939683

*** tstop() called on Joses-MacBook-Pro-2.local at Wed Jul 16 20:23:42 2025
Module time:
	user time   =       0.61 seconds =       0.01 minutes
	system time =       2.29 seconds =       0.04 minutes
	total time  =          0 seconds =       0.00 minutes
Total time:
	user time   =     230.21 seconds =       3.84 minutes
	system time =      86.42 seconds =       1.44 minutes
	total time  =         31 seconds =       0.52 minutes

    			-----------------------------------------

    			 OPTKING 3.0: for geometry optimizations

    			     By R.A. King, Bethel University

    			        with contributions from

    			    A.V. Copan, J. Cayton, A. Heide

    			-----------------------------------------

	                            ===> Fragment 1 <==

	 Z (Atomic Numbers)          Masses                          Geom
	      15.000000            30.973762          0.00000000  0.00000000  5.13684005
	      16.000000            31.972071          0.00000000  0.00000000 -4.97644523

	 - Coordinate -           - BOHR/RAD -       - ANG/DEG -
	 R(1,2)           =        10.113285           5.351720

	        --- Internal Coordinate Step in ANG or DEG, aJ/ANG or AJ/DEG ---
	-------------------------------------------------------------------------------
	           Coordinate      Previous         Force          Change          New
	           ----------      --------        ------          ------        ------
	               R(1,2)       5.35172        0.00060        0.00010       5.35182
	-------------------------------------------------------------------------------

	                                 ==> Convergence Check <==

	Measures of convergence in internal coordinates in au.

	Criteria marked as inactive (o), active & met (*), and active & unmet ( ).

	----------------------------------------------------------------------------------------------
	   Step    Total Energy     Delta E     Max Force     RMS Force      Max Disp      RMS Disp
	----------------------------------------------------------------------------------------------
	  Convergence Criteria     1.00e-06 *    3.00e-04 *             o    1.20e-03 *             o
	----------------------------------------------------------------------------------------------
	    22    -739.40145249   -4.85e-05      7.28e-05 *    7.28e-05 o    1.97e-04 *    1.97e-04 o  ~
	----------------------------------------------------------------------------------------------

Next Geometry in Ang
	Fragment 1 (Ang)

	    P   0.0000000000   0.0000000000   2.7183507309
	    S   0.0000000000   0.0000000000  -2.6334734481

    Final optimized geometry and variables:
    Molecular point group: c2v
    Full point group: C_inf_v

    Geometry (in Angstrom), charge = 0, multiplicity = 6:

    P            0.000000000000     0.000000000000     2.718298690797
    S            0.000000000000     0.000000000000    -2.633421408019

    Psi4 stopped on: Wednesday, 16 July 2025 08:23PM
    Psi4 wall time for execution: 0:00:31.28

*** Psi4 exiting successfully. Buy a developer a beer!
