                               Psi4 1.9.1 release

  ==> Input File <==

--------------------------------------------------------------------------
molecule {
0 6
F   0.00000        0.60000        0.00000
Ne   0.00000       -0.60000        0.00000
}

set {
basis              cc-pvdz
reference          uks
maxiter            500
geom_maxiter       500
DAMPING_PERCENTAGE 1
guess              SAP
}

optimize('b3lyp')
--------------------------------------------------------------------------

    Molecular point group: c2v
  Charge       = 0
  Multiplicity = 6
  Basis Set: CC-PVDZ
    Blend: CC-PVDZ
  Basis Set: (CC-PVDZ AUX)
    Blend: CC-PVDZ-JKFIT
  @DF-UKS Final Energy:  -225.73852339614720
    Total Energy =                       -225.7385233961472011
 Dipole X            :          0.0000000            0.0000000            0.0000000
 Dipole Y            :          0.0000000            0.0000000            0.0000000
 Dipole Z            :         -0.2710515           -0.5846191           -0.8556705
 Magnitude           :                                                    0.8556705
    Molecular point group: c2v
  Basis Set: CC-PVDZ
    Blend: CC-PVDZ
  Basis Set: (CC-PVDZ AUX)
    Blend: CC-PVDZ-JKFIT
  Basis Set: CC-PVDZ
    Blend: CC-PVDZ
  Basis Set: (CC-PVDZ AUX)
    Blend: CC-PVDZ-JKFIT
  @DF-UKS Final Energy:  -225.99205094194693
    Total Energy =                       -225.9920509419469283
  Basis Set: CC-PVDZ
    Blend: CC-PVDZ
  Basis Set: (CC-PVDZ AUX)
    Blend: CC-PVDZ-JKFIT
  Basis Set: CC-PVDZ
    Blend: CC-PVDZ
  @DF-UKS Final Energy:  -226.03052907351676
    Total Energy =                       -226.0305290735167603
  @DF-UKS Final Energy:  -226.05037917650083
    Total Energy =                       -226.0503791765008259
  @DF-UKS Final Energy:  -226.05468073697455
    Total Energy =                       -226.0546807369745466
  @DF-UKS Final Energy:  -226.05611899432097
    Total Energy =                       -226.0561189943209683
  @DF-UKS Final Energy:  -226.05643034090457
    Total Energy =                       -226.0564303409045692
  @DF-UKS Final Energy:  -226.05650800801109
    Total Energy =                       -226.0565080080110931
  @DF-UKS Final Energy:  -226.05653340974277
    Total Energy =                       -226.0565334097427694
  Basis Set: (CC-PVDZ AUX)
    Blend: CC-PVDZ-JKFIT
  Basis Set: CC-PVDZ
    Blend: CC-PVDZ
  Basis Set: (CC-PVDZ AUX)
    Blend: CC-PVDZ-JKFIT
  @DF-UKS Final Energy:  -226.05653680101969
    Total Energy =                       -226.0565368010196892
  Basis Set: CC-PVDZ
    Blend: CC-PVDZ
  Basis Set: (CC-PVDZ AUX)
    Blend: CC-PVDZ-JKFIT
  Charge       = 0
  Multiplicity = 6
  Basis Set: CC-PVDZ
    Blend: CC-PVDZ
  Basis Set: (CC-PVDZ AUX)
    Blend: CC-PVDZ-JKFIT

    Orbital Energies [Eh]
    ---------------------

    Alpha Occupied:

       1A1   -31.056980     2A1   -25.000236     3A1    -1.535508
       4A1    -1.481547     5A1    -0.777694     1B1    -0.775691
       1B2    -0.775691     2B2    -0.618097     2B1    -0.618097
       6A1    -0.610201     3B1     0.767544     3B2     0.767544

    Alpha Virtual:

       7A1     0.943466     8A1     1.119733     4B2     1.325828
       4B1     1.325828     9A1     1.470916    10A1     2.044985
       5B1     3.218823     5B2     3.218823     1A2     3.229139
      11A1     3.229155    12A1     3.311050     6B1     4.633406
       6B2     4.633406    13A1     4.648730     2A2     4.648739
      14A1     4.670418

    Beta Occupied:

       1A1   -31.044950     2A1   -24.858335     3A1    -1.500203
       4A1    -1.191899     5A1    -0.614897     1B2    -0.604987
       1B1    -0.604987

    Beta Virtual:

       6A1    -0.360917     2B1    -0.328796     2B2    -0.328796
       3B1     1.080339     3B2     1.080339     7A1     1.088130
       8A1     1.276264     4B1     1.358388     4B2     1.358388
       9A1     1.530144    10A1     2.114750     5B1     3.429222
       5B2     3.429222     1A2     3.462804    11A1     3.462814
      12A1     3.505788     6B1     4.656923     6B2     4.656923
      13A1     4.657678     2A2     4.657687    14A1     4.700004

    Final Occupation by Irrep:
             A1    A2    B1    B2
    DOCC [     5,    0,    1,    1 ]
    SOCC [     1,    0,    2,    2 ]
    NA   [     6,    0,    3,    3 ]
    NB   [     5,    0,    1,    1 ]

  @DF-UKS Final Energy:  -226.05653700944544

   => Energetics <=

    Nuclear Repulsion Energy =             26.0590764511631434
    One-Electron Energy =                -368.8654728762425066
    Two-Electron Energy =                 135.2343298397036619
    DFT Exchange-Correlation Energy =     -18.4844704240697375
    Empirical Dispersion Energy =           0.0000000000000000
    VV10 Nonlocal Energy =                  0.0000000000000000
    Total Energy =                       -226.0565370094454352

  UHF NO Occupations:
  HONO-2 :    3 B1 1.0000000
  HONO-1 :    2 B2 1.0000000
  HONO-0 :    3 B2 1.0000000
  LUNO+0 :    7 A1 0.0008984
  LUNO+1 :    8 A1 0.0005550
  LUNO+2 :    4 B1 0.0000135
  LUNO+3 :    4 B2 0.0000135

Computation Completed

Properties will be evaluated at   0.000000,   0.000000,   0.000000 [a0]

Properties computed using the SCF density matrix

 Multipole Moments:

 ------------------------------------------------------------------------------------
     Multipole            Electronic (a.u.)      Nuclear  (a.u.)        Total (a.u.)
 ------------------------------------------------------------------------------------

 L = 1.  Multiply by 2.5417464519 to convert [e a0] to [Debye]
 Dipole X            :          0.0000000            0.0000000            0.0000000
 Dipole Y            :          0.0000000            0.0000000            0.0000000
 Dipole Z            :          0.5063122           -0.8903820           -0.3840698
 Magnitude           :                                                    0.3840698

 ------------------------------------------------------------------------------------

*** tstop() called on Joses-MacBook-Pro-2.local at Wed Jul 16 19:25:47 2025
Module time:
	user time   =       2.55 seconds =       0.04 minutes
	system time =       2.32 seconds =       0.04 minutes
	total time  =          1 seconds =       0.02 minutes
Total time:
	user time   =      44.34 seconds =       0.74 minutes
	system time =      46.48 seconds =       0.77 minutes
	total time  =          9 seconds =       0.15 minutes

*** tstart() called on Joses-MacBook-Pro-2.local
*** at Wed Jul 16 19:25:47 2025

         ------------------------------------------------------------
                                   SCF GRAD
                          Rob Parrish, Justin Turney,
                       Andy Simmonett, and Alex Sokolov
         ------------------------------------------------------------

  ==> Geometry <==

    Molecular point group: c2v
    Full point group: C_inf_v

    Geometry (in Angstrom), charge = 0, multiplicity = 6:

       Center              X                  Y                   Z               Mass
    ------------   -----------------  -----------------  -----------------  -----------------
         F            0.000000000000     0.000000000000     0.937104015069    18.998403162730
         NE           0.000000000000     0.000000000000    -0.890510599346    19.992440176200

  Nuclear repulsion =   26.059076451163143

  ==> Basis Set <==

  Basis Set: CC-PVDZ
    Blend: CC-PVDZ
    Number of shells: 12
    Number of basis functions: 28
    Number of Cartesian functions: 30
    Spherical Harmonics?: true
    Max angular momentum: 2

  ==> DFJKGrad: Density-Fitted SCF Gradients <==

    Gradient:                    1
    J tasked:                  Yes
    K tasked:                  Yes
    wK tasked:                  No
    OpenMP threads:              1
    Integrals threads:           1
    Memory [MiB]:              375
    Schwarz Cutoff:          1E-12
    Fitting Condition:       1E-10

   => Auxiliary Basis Set <=

  Basis Set: (CC-PVDZ AUX)
    Blend: CC-PVDZ-JKFIT
    Number of shells: 48
    Number of basis functions: 140
    Number of Cartesian functions: 162
    Spherical Harmonics?: true
    Max angular momentum: 3

  ==> DFT Potential <==

   => LibXC <=

    Version 6.2.2
    S. Lehtola, C. Steigemann, M. J.T. Oliveira, and M. A.L. Marques.,  SoftwareX 7, 1â€“5 (2018) (10.1016/j.softx.2017.11.002)

   => Composite Functional: B3LYP <=

    B3LYP Hyb-GGA Exchange-Correlation Functional

    P. J. Stephens, F. J. Devlin, C. F. Chabalowski, and M. J. Frisch.,  J. Phys. Chem. 98, 11623 (1994) (10.1021/j100096a001)

    Deriv               =              1
    GGA                 =           TRUE
    Meta                =          FALSE

    Exchange Hybrid     =           TRUE
    MP2 Hybrid          =          FALSE

   => Exchange Functionals <=

    0.0800   Slater exchange
    0.7200         Becke 88

   => Exact (HF) Exchange <=

    0.2000               HF

   => Correlation Functionals <=

    0.1900   Vosko, Wilk & Nusair (VWN5_RPA)
    0.8100   Lee, Yang & Parr

   => LibXC Density Thresholds  <==

    XC_HYB_GGA_XC_B3LYP:  1.00E-15

   => Molecular Quadrature <=

    Radial Scheme          =       TREUTLER
    Pruning Scheme         =           NONE
    Nuclear Scheme         =       TREUTLER

    Blocking Scheme        =         OCTREE
    BS radius alpha        =              1
    Pruning alpha          =              1
    Radial Points          =             75
    Spherical Points       =            302
    Total Points           =          42321
    Total Blocks           =            371
    Max Points             =            252
    Max Functions          =             28
    Weights Tolerance      =       1.00E-15

  -Total Gradient:
     Atom            X                  Y                   Z
    ------   -----------------  -----------------  -----------------
       1        0.000000000000    -0.000000000000    -0.000036319658
       2        0.000000000000    -0.000000000000     0.000017492210

*** tstop() called on Joses-MacBook-Pro-2.local at Wed Jul 16 19:25:47 2025
Module time:
	user time   =       0.56 seconds =       0.01 minutes
	system time =       1.08 seconds =       0.02 minutes
	total time  =          0 seconds =       0.00 minutes
Total time:
	user time   =      44.90 seconds =       0.75 minutes
	system time =      47.57 seconds =       0.79 minutes
	total time  =          9 seconds =       0.15 minutes

    			-----------------------------------------

    			 OPTKING 3.0: for geometry optimizations

    			     By R.A. King, Bethel University

    			        with contributions from

    			    A.V. Copan, J. Cayton, A. Heide

    			-----------------------------------------

	                            ===> Fragment 1 <==

	 Z (Atomic Numbers)          Masses                          Geom
	       9.000000            18.998403          0.00000000  0.00000000  1.77086994
	      10.000000            19.992440          0.00000000  0.00000000 -1.68282114

	 - Coordinate -           - BOHR/RAD -       - ANG/DEG -
	 R(1,2)           =         3.453691           1.827615

	        --- Internal Coordinate Step in ANG or DEG, aJ/ANG or AJ/DEG ---
	-------------------------------------------------------------------------------
	           Coordinate      Previous         Force          Change          New
	           ----------      --------        ------          ------        ------
	               R(1,2)       1.82761        0.00022        0.00010       1.82772
	-------------------------------------------------------------------------------

	                                 ==> Convergence Check <==

	Measures of convergence in internal coordinates in au.

	Criteria marked as inactive (o), active & met (*), and active & unmet ( ).

	----------------------------------------------------------------------------------------------
	   Step    Total Energy     Delta E     Max Force     RMS Force      Max Disp      RMS Disp
	----------------------------------------------------------------------------------------------
	  Convergence Criteria     1.00e-06 *    3.00e-04 *             o    1.20e-03 *             o
	----------------------------------------------------------------------------------------------
	    11    -226.05653701   -2.08e-07 *    2.69e-05 *    2.69e-05 o    1.94e-04 *    1.94e-04 o  ~
	----------------------------------------------------------------------------------------------

Next Geometry in Ang
	Fragment 1 (Ang)

	    F   0.0000000000   0.0000000000   0.9371554400
	   Ne   0.0000000000   0.0000000000  -0.8905620243

    Final optimized geometry and variables:
    Molecular point group: c2v
    Full point group: C_inf_v

    Geometry (in Angstrom), charge = 0, multiplicity = 6:

    F            0.000000000000     0.000000000000     0.937104015069
    NE           0.000000000000     0.000000000000    -0.890510599346

    Psi4 stopped on: Wednesday, 16 July 2025 07:25PM
    Psi4 wall time for execution: 0:00:09.33

*** Psi4 exiting successfully. Buy a developer a beer!
