                               Psi4 1.9.1 release

  ==> Input File <==

--------------------------------------------------------------------------
molecule {
0 6
Mg   0.00000        0.60000        0.00000
Al   0.00000       -0.60000        0.00000
}

set {
basis              cc-pvdz
reference          uks
maxiter            500
geom_maxiter       500
DAMPING_PERCENTAGE 1
guess              SAP
}

optimize('b3lyp')
--------------------------------------------------------------------------

    Molecular point group: c2v
  Charge       = 0
  Multiplicity = 6
  Basis Set: CC-PVDZ
    Blend: CC-PVDZ
  Basis Set: (CC-PVDZ AUX)
    Blend: CC-PVDZ-JKFIT + DEF2-UNIVERSAL-JKFIT
  @DF-UKS Final Energy:  -441.35000788556925
    Total Energy =                       -441.3500078855692550
 Dipole X            :          0.0000000            0.0000000            0.0000000
 Dipole Y            :          0.0000000            0.0000000            0.0000000
 Dipole Z            :         -1.1377971            0.5327147           -0.6050824
 Magnitude           :                                                    0.6050824
    Molecular point group: c2v
  Basis Set: CC-PVDZ
    Blend: CC-PVDZ
  Basis Set: (CC-PVDZ AUX)
    Blend: CC-PVDZ-JKFIT + DEF2-UNIVERSAL-JKFIT
  Basis Set: CC-PVDZ
    Blend: CC-PVDZ
  Basis Set: (CC-PVDZ AUX)
    Blend: CC-PVDZ-JKFIT + DEF2-UNIVERSAL-JKFIT
  @DF-UKS Final Energy:  -441.35954216685104
    Total Energy =                       -441.3595421668510426
  Basis Set: CC-PVDZ
    Blend: CC-PVDZ
  Basis Set: (CC-PVDZ AUX)
    Blend: CC-PVDZ-JKFIT + DEF2-UNIVERSAL-JKFIT
  Basis Set: CC-PVDZ
    Blend: CC-PVDZ
  @DF-UKS Final Energy:  -441.37801314800402
    Total Energy =                       -441.3780131480040154
  @DF-UKS Final Energy:  -441.44571944690063
    Total Energy =                       -441.4457194469006254
  @DF-UKS Final Energy:  -441.76835606822027
    Total Energy =                       -441.7683560682202710
  @DF-UKS Final Energy:  -441.98806979287770
    Total Energy =                       -441.9880697928775817
  @DF-UKS Final Energy:  -442.14733241203248
    Total Energy =                       -442.1473324120325401
  @DF-UKS Final Energy:  -442.22846774237797
    Total Energy =                       -442.2284677423779726
  @DF-UKS Final Energy:  -442.26678404333290
    Total Energy =                       -442.2667840433329616
  @DF-UKS Final Energy:  -442.28382950289085
    Total Energy =                       -442.2838295028908533
  @DF-UKS Final Energy:  -442.29034928002244
    Total Energy =                       -442.2903492800224967
  @DF-UKS Final Energy:  -442.29219146396304
    Total Energy =                       -442.2921914639630359
  @DF-UKS Final Energy:  -442.29248281276926
    Total Energy =                       -442.2924828127692649
  Basis Set: (CC-PVDZ AUX)
    Blend: CC-PVDZ-JKFIT + DEF2-UNIVERSAL-JKFIT
  Basis Set: CC-PVDZ
    Blend: CC-PVDZ
  Basis Set: (CC-PVDZ AUX)
    Blend: CC-PVDZ-JKFIT + DEF2-UNIVERSAL-JKFIT
  @DF-UKS Final Energy:  -442.29249857971973
    Total Energy =                       -442.2924985797197905
  Basis Set: CC-PVDZ
    Blend: CC-PVDZ
  Basis Set: (CC-PVDZ AUX)
    Blend: CC-PVDZ-JKFIT + DEF2-UNIVERSAL-JKFIT
  Charge       = 0
  Multiplicity = 6
  Basis Set: CC-PVDZ
    Blend: CC-PVDZ
  Basis Set: (CC-PVDZ AUX)
    Blend: CC-PVDZ-JKFIT + DEF2-UNIVERSAL-JKFIT

    Orbital Energies [Eh]
    ---------------------

    Alpha Occupied:

       1A1   -56.091432     2A1   -46.893278     3A1    -4.173674
       4A1    -3.172406     5A1    -2.727072     1B1    -2.726519
       1B2    -2.726519     2B2    -1.916025     2B1    -1.916025
       6A1    -1.915325     7A1    -0.389969     8A1    -0.253896
       3B2    -0.164029     3B1    -0.164029     9A1    -0.163206

    Alpha Virtual:

       4B2    -0.051974     4B1    -0.051974    10A1     0.007291
      11A1     0.064723    12A1     0.110531     5B2     0.122058
       5B1     0.122058    13A1     0.177023     6B2     0.187854
       6B1     0.187854     7B1     0.214670     7B2     0.214670
       1A2     0.217808    14A1     0.217809    15A1     0.262493
       2A2     0.286327    16A1     0.286327    17A1     0.351633
       8B2     0.395210     8B1     0.395210    18A1     0.564358

    Beta Occupied:

       1A1   -56.081983     2A1   -46.888930     3A1    -4.160096
       4A1    -3.165199     5A1    -2.713428     1B1    -2.713257
       1B2    -2.713257     2B2    -1.910785     2B1    -1.910785
       6A1    -1.907782

    Beta Virtual:

       7A1    -0.216277     8A1    -0.130119     3B2    -0.040698
       3B1    -0.040698     9A1    -0.028355     4B2     0.017210
       4B1     0.017210    10A1     0.055918    11A1     0.106690
       5B2     0.155293     5B1     0.155293    12A1     0.167859
      13A1     0.238997     6B1     0.266320     6B2     0.266320
       7B2     0.281662     7B1     0.281662    14A1     0.297791
       1A2     0.297808    15A1     0.321424    16A1     0.357178
       2A2     0.357207    17A1     0.421776     8B2     0.467498
       8B1     0.467498    18A1     0.626005

    Final Occupation by Irrep:
             A1    A2    B1    B2
    DOCC [     6,    0,    2,    2 ]
    SOCC [     3,    0,    1,    1 ]
    NA   [     9,    0,    3,    3 ]
    NB   [     6,    0,    2,    2 ]

  @DF-UKS Final Energy:  -442.29249944544705

   => Energetics <=

    Nuclear Repulsion Energy =             29.1042030718561655
    One-Electron Energy =                -673.0728150806736494
    Two-Electron Energy =                 229.9415411394076045
    DFT Exchange-Correlation Energy =     -28.2654285760371842
    Empirical Dispersion Energy =           0.0000000000000000
    VV10 Nonlocal Energy =                  0.0000000000000000
    Total Energy =                       -442.2924994454470493

  UHF NO Occupations:
  HONO-2 :    3 B1 1.0000000
  HONO-1 :    8 A1 1.0000000
  HONO-0 :    9 A1 1.0000000
  LUNO+0 :    4 B2 0.0000008
  LUNO+1 :    4 B1 0.0000008
  LUNO+2 :   10 A1 0.0000005
  LUNO+3 :   11 A1 0.0000002

Computation Completed

Properties will be evaluated at   0.000000,   0.000000,   0.000000 [a0]

Properties computed using the SCF density matrix

 Multipole Moments:

 ------------------------------------------------------------------------------------
     Multipole            Electronic (a.u.)      Nuclear  (a.u.)        Total (a.u.)
 ------------------------------------------------------------------------------------

 L = 1.  Multiply by 2.5417464519 to convert [e a0] to [Debye]
 Dipole X            :          0.0000000            0.0000000            0.0000000
 Dipole Y            :          0.0000000            0.0000000            0.0000000
 Dipole Z            :         -0.5127000            1.2591674            0.7464674
 Magnitude           :                                                    0.7464674

 ------------------------------------------------------------------------------------

*** tstop() called on Joses-MacBook-Pro-2.local at Wed Jul 16 19:55:56 2025
Module time:
	user time   =       6.58 seconds =       0.11 minutes
	system time =       2.32 seconds =       0.04 minutes
	total time  =          1 seconds =       0.02 minutes
Total time:
	user time   =     176.48 seconds =       2.94 minutes
	system time =      54.95 seconds =       0.92 minutes
	total time  =         22 seconds =       0.37 minutes

*** tstart() called on Joses-MacBook-Pro-2.local
*** at Wed Jul 16 19:55:56 2025

         ------------------------------------------------------------
                                   SCF GRAD
                          Rob Parrish, Justin Turney,
                       Andy Simmonett, and Alex Sokolov
         ------------------------------------------------------------

  ==> Geometry <==

    Molecular point group: c2v
    Full point group: C_inf_v

    Geometry (in Angstrom), charge = 0, multiplicity = 6:

       Center              X                  Y                   Z               Mass
    ------------   -----------------  -----------------  -----------------  -----------------
         MG           0.000000000000     0.000000000000     1.501589543002    23.985041697000
         AL           0.000000000000     0.000000000000    -1.334827061868    26.981538530000

  Nuclear repulsion =   29.104203071856166

  ==> Basis Set <==

  Basis Set: CC-PVDZ
    Blend: CC-PVDZ
    Number of shells: 16
    Number of basis functions: 36
    Number of Cartesian functions: 38
    Spherical Harmonics?: true
    Max angular momentum: 2

  ==> DFJKGrad: Density-Fitted SCF Gradients <==

    Gradient:                    1
    J tasked:                  Yes
    K tasked:                  Yes
    wK tasked:                  No
    OpenMP threads:              1
    Integrals threads:           1
    Memory [MiB]:              375
    Schwarz Cutoff:          1E-12
    Fitting Condition:       1E-10

   => Auxiliary Basis Set <=

  Basis Set: (CC-PVDZ AUX)
    Blend: CC-PVDZ-JKFIT + DEF2-UNIVERSAL-JKFIT
    Number of shells: 70
    Number of basis functions: 224
    Number of Cartesian functions: 267
    Spherical Harmonics?: true
    Max angular momentum: 4

  ==> DFT Potential <==

   => LibXC <=

    Version 6.2.2
    S. Lehtola, C. Steigemann, M. J.T. Oliveira, and M. A.L. Marques.,  SoftwareX 7, 1â€“5 (2018) (10.1016/j.softx.2017.11.002)

   => Composite Functional: B3LYP <=

    B3LYP Hyb-GGA Exchange-Correlation Functional

    P. J. Stephens, F. J. Devlin, C. F. Chabalowski, and M. J. Frisch.,  J. Phys. Chem. 98, 11623 (1994) (10.1021/j100096a001)

    Deriv               =              1
    GGA                 =           TRUE
    Meta                =          FALSE

    Exchange Hybrid     =           TRUE
    MP2 Hybrid          =          FALSE

   => Exchange Functionals <=

    0.0800   Slater exchange
    0.7200         Becke 88

   => Exact (HF) Exchange <=

    0.2000               HF

   => Correlation Functionals <=

    0.1900   Vosko, Wilk & Nusair (VWN5_RPA)
    0.8100   Lee, Yang & Parr

   => LibXC Density Thresholds  <==

    XC_HYB_GGA_XC_B3LYP:  1.00E-15

   => Molecular Quadrature <=

    Radial Scheme          =       TREUTLER
    Pruning Scheme         =           NONE
    Nuclear Scheme         =       TREUTLER

    Blocking Scheme        =         OCTREE
    BS radius alpha        =              1
    Pruning alpha          =              1
    Radial Points          =             75
    Spherical Points       =            302
    Total Points           =          42939
    Total Blocks           =            420
    Max Points             =            256
    Max Functions          =             36
    Weights Tolerance      =       1.00E-15

  -Total Gradient:
     Atom            X                  Y                   Z
    ------   -----------------  -----------------  -----------------
       1        0.000000000000     0.000000000000    -0.000051737351
       2        0.000000000000     0.000000000000     0.000059126710

*** tstop() called on Joses-MacBook-Pro-2.local at Wed Jul 16 19:55:56 2025
Module time:
	user time   =       2.92 seconds =       0.05 minutes
	system time =       0.91 seconds =       0.02 minutes
	total time  =          0 seconds =       0.00 minutes
Total time:
	user time   =     179.40 seconds =       2.99 minutes
	system time =      55.86 seconds =       0.93 minutes
	total time  =         22 seconds =       0.37 minutes

    			-----------------------------------------

    			 OPTKING 3.0: for geometry optimizations

    			     By R.A. King, Bethel University

    			        with contributions from

    			    A.V. Copan, J. Cayton, A. Heide

    			-----------------------------------------

	                            ===> Fragment 1 <==

	 Z (Atomic Numbers)          Masses                          Geom
	      12.000000            23.985042          0.00000000  0.00000000  2.83759299
	      13.000000            26.981539          0.00000000  0.00000000 -2.52245757

	 - Coordinate -           - BOHR/RAD -       - ANG/DEG -
	 R(1,2)           =         5.360051           2.836417

	        --- Internal Coordinate Step in ANG or DEG, aJ/ANG or AJ/DEG ---
	-------------------------------------------------------------------------------
	           Coordinate      Previous         Force          Change          New
	           ----------      --------        ------          ------        ------
	               R(1,2)       2.83642        0.00046        0.00077       2.83719
	-------------------------------------------------------------------------------

	                                 ==> Convergence Check <==

	Measures of convergence in internal coordinates in au.

	Criteria marked as inactive (o), active & met (*), and active & unmet ( ).

	----------------------------------------------------------------------------------------------
	   Step    Total Energy     Delta E     Max Force     RMS Force      Max Disp      RMS Disp
	----------------------------------------------------------------------------------------------
	  Convergence Criteria     1.00e-06 *    3.00e-04 *             o    1.20e-03 *             o
	----------------------------------------------------------------------------------------------
	    15    -442.29249945   -8.66e-07 *    5.54e-05 *    5.54e-05 o    1.46e-03      1.46e-03 o  ~
	----------------------------------------------------------------------------------------------

Next Geometry in Ang
	Fragment 1 (Ang)

	   Mg   0.0000000000   0.0000000000   1.5019767868
	   Al   0.0000000000   0.0000000000  -1.3352143057

    Final optimized geometry and variables:
    Molecular point group: c2v
    Full point group: C_inf_v

    Geometry (in Angstrom), charge = 0, multiplicity = 6:

    MG           0.000000000000     0.000000000000     1.501589543002
    AL           0.000000000000     0.000000000000    -1.334827061868

    Psi4 stopped on: Wednesday, 16 July 2025 07:55PM
    Psi4 wall time for execution: 0:00:23.58

*** Psi4 exiting successfully. Buy a developer a beer!
