                               Psi4 1.9.1 release

  ==> Input File <==

--------------------------------------------------------------------------
molecule {
0 6
C   0.00000        0.60000        0.00000
Cl   0.00000       -0.60000        0.00000
}

set {
basis              cc-pvdz
reference          uks
maxiter            500
geom_maxiter       500
DAMPING_PERCENTAGE 1
guess              SAP
}

optimize('b3lyp')
--------------------------------------------------------------------------

    Molecular point group: c2v
  Charge       = 0
  Multiplicity = 6
  Basis Set: CC-PVDZ
    Blend: CC-PVDZ
  Basis Set: (CC-PVDZ AUX)
    Blend: CC-PVDZ-JKFIT
  @DF-UKS Final Energy:  -497.15894368412557
    Total Energy =                       -497.1589436841255747
 Dipole X            :          0.0000000            0.0000000            0.0000000
 Dipole Y            :          0.0000000            0.0000000            0.0000000
 Dipole Z            :          0.6132433            0.2806591            0.8939025
 Magnitude           :                                                    0.8939025
    Molecular point group: c2v
  Basis Set: CC-PVDZ
    Blend: CC-PVDZ
  Basis Set: (CC-PVDZ AUX)
    Blend: CC-PVDZ-JKFIT
  Basis Set: CC-PVDZ
    Blend: CC-PVDZ
  Basis Set: (CC-PVDZ AUX)
    Blend: CC-PVDZ-JKFIT
  @DF-UKS Final Energy:  -497.46199356181592
    Total Energy =                       -497.4619935618159730
  Basis Set: CC-PVDZ
    Blend: CC-PVDZ
  Basis Set: (CC-PVDZ AUX)
    Blend: CC-PVDZ-JKFIT
  Basis Set: CC-PVDZ
    Blend: CC-PVDZ
  @DF-UKS Final Energy:  -497.62635427303206
    Total Energy =                       -497.6263542730320637
  @DF-UKS Final Energy:  -497.73557958598155
    Total Energy =                       -497.7355795859815544
  @DF-UKS Final Energy:  -497.80386280413791
    Total Energy =                       -497.8038628041379070
  @DF-UKS Final Energy:  -497.83337188491515
    Total Energy =                       -497.8333718849150955
  @DF-UKS Final Energy:  -497.84519572934209
    Total Energy =                       -497.8451957293420946
  @DF-UKS Final Energy:  -497.84950588322317
    Total Energy =                       -497.8495058832232303
  @DF-UKS Final Energy:  -497.85079875897407
    Total Energy =                       -497.8507987589740651
  @DF-UKS Final Energy:  -497.85102408794489
    Total Energy =                       -497.8510240879448929
  @DF-UKS Final Energy:  -497.85107023946296
    Total Energy =                       -497.8510702394629561
  @DF-UKS Final Energy:  -497.85108234274622
    Total Energy =                       -497.8510823427461673
  Basis Set: (CC-PVDZ AUX)
    Blend: CC-PVDZ-JKFIT
  Basis Set: CC-PVDZ
    Blend: CC-PVDZ
  Basis Set: (CC-PVDZ AUX)
    Blend: CC-PVDZ-JKFIT
  @DF-UKS Final Energy:  -497.85108351465777
    Total Energy =                       -497.8510835146577733
  Basis Set: CC-PVDZ
    Blend: CC-PVDZ
  Basis Set: (CC-PVDZ AUX)
    Blend: CC-PVDZ-JKFIT
  Charge       = 0
  Multiplicity = 6
  Basis Set: CC-PVDZ
    Blend: CC-PVDZ
  Basis Set: (CC-PVDZ AUX)
    Blend: CC-PVDZ-JKFIT

    Orbital Energies [Eh]
    ---------------------

    Alpha Occupied:

       1A1  -101.665875     2A1   -10.229023     3A1    -9.577676
       1B2    -7.349987     4A1    -7.333673     1B1    -7.325866
       5A1    -0.910965     6A1    -0.572587     2B2    -0.461297
       7A1    -0.419061     2B1    -0.405496     3B2    -0.222793
       3B1    -0.221191     8A1    -0.200729

    Alpha Virtual:

       4B2     0.431339     9A1     0.445934     4B1     0.449087
       5B2     0.501522     5B1     0.524254    10A1     0.525894
      11A1     0.562601    12A1     0.579856     1A2     0.611408
      13A1     0.622856     6B2     0.627657     6B1     0.665151
      14A1     0.828570    15A1     1.147130     2A2     1.147135
       7B2     1.159640     7B1     1.161684    16A1     1.364825

    Beta Occupied:

       1A1  -101.655925     2A1   -10.169396     3A1    -9.567827
       1B2    -7.325475     4A1    -7.320752     1B1    -7.319713
       5A1    -0.838332     6A1    -0.398142     2B1    -0.381850

    Beta Virtual:

       2B2    -0.289700     7A1    -0.248117     3B2     0.017702
       3B1     0.018598     8A1     0.035763     9A1     0.491641
       4B1     0.495753     4B2     0.500108     5B1     0.590836
       5B2     0.592527    10A1     0.610508    11A1     0.636630
      12A1     0.651209     1A2     0.674376    13A1     0.680656
       6B1     0.705391     6B2     0.710385    14A1     0.916493
      15A1     1.309350     2A2     1.309365     7B2     1.316907
       7B1     1.318009    16A1     1.494200

    Final Occupation by Irrep:
             A1    A2    B1    B2
    DOCC [     6,    0,    2,    1 ]
    SOCC [     2,    0,    1,    2 ]
    NA   [     8,    0,    3,    3 ]
    NB   [     6,    0,    2,    1 ]

  @DF-UKS Final Energy:  -497.85108363897541

   => Energetics <=

    Nuclear Repulsion Energy =             21.3914594354140277
    One-Electron Energy =                -727.3949058505975245
    Two-Electron Energy =                 235.1427622605140471
    DFT Exchange-Correlation Energy =     -26.9903994843059962
    Empirical Dispersion Energy =           0.0000000000000000
    VV10 Nonlocal Energy =                  0.0000000000000000
    Total Energy =                       -497.8510836389754672

  UHF NO Occupations:
  HONO-2 :    8 A1 1.0000000
  HONO-1 :    2 B2 1.0000000
  HONO-0 :    3 B2 1.0000000
  LUNO+0 :    9 A1 0.0014126
  LUNO+1 :   10 A1 0.0006679
  LUNO+2 :    4 B1 0.0000902
  LUNO+3 :   11 A1 0.0000004

Computation Completed

Properties will be evaluated at   0.000000,   0.000000,   0.000000 [a0]

Properties computed using the SCF density matrix

 Multipole Moments:

 ------------------------------------------------------------------------------------
     Multipole            Electronic (a.u.)      Nuclear  (a.u.)        Total (a.u.)
 ------------------------------------------------------------------------------------

 L = 1.  Multiply by 2.5417464519 to convert [e a0] to [Debye]
 Dipole X            :          0.0000000            0.0000000            0.0000000
 Dipole Y            :          0.0000000            0.0000000            0.0000000
 Dipole Z            :         -1.7488246            0.5901451           -1.1586795
 Magnitude           :                                                    1.1586795

 ------------------------------------------------------------------------------------

*** tstop() called on Joses-MacBook-Pro-2.local at Wed Jul 16 19:06:11 2025
Module time:
	user time   =       2.50 seconds =       0.04 minutes
	system time =       3.18 seconds =       0.05 minutes
	total time  =          1 seconds =       0.02 minutes
Total time:
	user time   =      71.71 seconds =       1.20 minutes
	system time =      68.17 seconds =       1.14 minutes
	total time  =         14 seconds =       0.23 minutes

*** tstart() called on Joses-MacBook-Pro-2.local
*** at Wed Jul 16 19:06:11 2025

         ------------------------------------------------------------
                                   SCF GRAD
                          Rob Parrish, Justin Turney,
                       Andy Simmonett, and Alex Sokolov
         ------------------------------------------------------------

  ==> Geometry <==

    Molecular point group: c2v
    Full point group: C_inf_v

    Geometry (in Angstrom), charge = 0, multiplicity = 6:

       Center              X                  Y                   Z               Mass
    ------------   -----------------  -----------------  -----------------  -----------------
         C            0.000000000000     0.000000000000     1.878591361290    12.000000000000
         CL           0.000000000000     0.000000000000    -0.644662166657    34.968852682000

  Nuclear repulsion =   21.391459435414028

  ==> Basis Set <==

  Basis Set: CC-PVDZ
    Blend: CC-PVDZ
    Number of shells: 14
    Number of basis functions: 32
    Number of Cartesian functions: 34
    Spherical Harmonics?: true
    Max angular momentum: 2

  ==> DFJKGrad: Density-Fitted SCF Gradients <==

    Gradient:                    1
    J tasked:                  Yes
    K tasked:                  Yes
    wK tasked:                  No
    OpenMP threads:              1
    Integrals threads:           1
    Memory [MiB]:              375
    Schwarz Cutoff:          1E-12
    Fitting Condition:       1E-10

   => Auxiliary Basis Set <=

  Basis Set: (CC-PVDZ AUX)
    Blend: CC-PVDZ-JKFIT
    Number of shells: 60
    Number of basis functions: 182
    Number of Cartesian functions: 211
    Spherical Harmonics?: true
    Max angular momentum: 3

  ==> DFT Potential <==

   => LibXC <=

    Version 6.2.2
    S. Lehtola, C. Steigemann, M. J.T. Oliveira, and M. A.L. Marques.,  SoftwareX 7, 1â€“5 (2018) (10.1016/j.softx.2017.11.002)

   => Composite Functional: B3LYP <=

    B3LYP Hyb-GGA Exchange-Correlation Functional

    P. J. Stephens, F. J. Devlin, C. F. Chabalowski, and M. J. Frisch.,  J. Phys. Chem. 98, 11623 (1994) (10.1021/j100096a001)

    Deriv               =              1
    GGA                 =           TRUE
    Meta                =          FALSE

    Exchange Hybrid     =           TRUE
    MP2 Hybrid          =          FALSE

   => Exchange Functionals <=

    0.0800   Slater exchange
    0.7200         Becke 88

   => Exact (HF) Exchange <=

    0.2000               HF

   => Correlation Functionals <=

    0.1900   Vosko, Wilk & Nusair (VWN5_RPA)
    0.8100   Lee, Yang & Parr

   => LibXC Density Thresholds  <==

    XC_HYB_GGA_XC_B3LYP:  1.00E-15

   => Molecular Quadrature <=

    Radial Scheme          =       TREUTLER
    Pruning Scheme         =           NONE
    Nuclear Scheme         =       TREUTLER

    Blocking Scheme        =         OCTREE
    BS radius alpha        =              1
    Pruning alpha          =              1
    Radial Points          =             75
    Spherical Points       =            302
    Total Points           =          41202
    Total Blocks           =            370
    Max Points             =            255
    Max Functions          =             32
    Weights Tolerance      =       1.00E-15

  -Total Gradient:
     Atom            X                  Y                   Z
    ------   -----------------  -----------------  -----------------
       1        0.000000000000     0.000000000000    -0.000016089990
       2        0.000000000000     0.000000000000     0.000011686496

*** tstop() called on Joses-MacBook-Pro-2.local at Wed Jul 16 19:06:11 2025
Module time:
	user time   =       0.81 seconds =       0.01 minutes
	system time =       1.58 seconds =       0.03 minutes
	total time  =          0 seconds =       0.00 minutes
Total time:
	user time   =      72.53 seconds =       1.21 minutes
	system time =      69.75 seconds =       1.16 minutes
	total time  =         14 seconds =       0.23 minutes

    			-----------------------------------------

    			 OPTKING 3.0: for geometry optimizations

    			     By R.A. King, Bethel University

    			        with contributions from

    			    A.V. Copan, J. Cayton, A. Heide

    			-----------------------------------------

	                            ===> Fragment 1 <==

	 Z (Atomic Numbers)          Masses                          Geom
	       6.000000            12.000000          0.00000000  0.00000000  3.55002317
	      17.000000            34.968853          0.00000000  0.00000000 -1.21823494

	 - Coordinate -           - BOHR/RAD -       - ANG/DEG -
	 R(1,2)           =         4.768258           2.523254

	        --- Internal Coordinate Step in ANG or DEG, aJ/ANG or AJ/DEG ---
	-------------------------------------------------------------------------------
	           Coordinate      Previous         Force          Change          New
	           ----------      --------        ------          ------        ------
	               R(1,2)       2.52325        0.00011        0.00027       2.52353
	-------------------------------------------------------------------------------

	                                 ==> Convergence Check <==

	Measures of convergence in internal coordinates in au.

	Criteria marked as inactive (o), active & met (*), and active & unmet ( ).

	----------------------------------------------------------------------------------------------
	   Step    Total Energy     Delta E     Max Force     RMS Force      Max Disp      RMS Disp
	----------------------------------------------------------------------------------------------
	  Convergence Criteria     1.00e-06 *    3.00e-04 *             o    1.20e-03 *             o
	----------------------------------------------------------------------------------------------
	    14    -497.85108364   -1.24e-07 *    1.39e-05 *    1.39e-05 o    5.18e-04 *    5.18e-04 o  ~
	----------------------------------------------------------------------------------------------

Next Geometry in Ang
	Fragment 1 (Ang)

	    C   0.0000000000   0.0000000000   1.8787282935
	   Cl   0.0000000000   0.0000000000  -0.6447990989

    Final optimized geometry and variables:
    Molecular point group: c2v
    Full point group: C_inf_v

    Geometry (in Angstrom), charge = 0, multiplicity = 6:

    C            0.000000000000     0.000000000000     1.878591361290
    CL           0.000000000000     0.000000000000    -0.644662166657

    Psi4 stopped on: Wednesday, 16 July 2025 07:06PM
    Psi4 wall time for execution: 0:00:14.29

*** Psi4 exiting successfully. Buy a developer a beer!
