                               Psi4 1.9.1 release

  ==> Input File <==

--------------------------------------------------------------------------
molecule {
0 6
O   0.00000        0.60000        0.00000
Al   0.00000       -0.60000        0.00000
}

set {
basis              cc-pvdz
reference          uks
maxiter            500
geom_maxiter       500
DAMPING_PERCENTAGE 1
guess              SAP
}

optimize('b3lyp')
--------------------------------------------------------------------------

    Molecular point group: c2v
  Charge       = 0
  Multiplicity = 6
  Basis Set: CC-PVDZ
    Blend: CC-PVDZ
  Basis Set: (CC-PVDZ AUX)
    Blend: CC-PVDZ-JKFIT
  @DF-UKS Final Energy:  -316.72843638514206
    Total Energy =                       -316.7284363851420039
 Dipole X            :          0.0000000            0.0000000            0.0000000
 Dipole Y            :          0.0000000            0.0000000            0.0000000
 Dipole Z            :          1.1134182            0.4178188            1.5312370
 Magnitude           :                                                    1.5312370
    Molecular point group: c2v
  Basis Set: CC-PVDZ
    Blend: CC-PVDZ
  Basis Set: (CC-PVDZ AUX)
    Blend: CC-PVDZ-JKFIT
  Basis Set: CC-PVDZ
    Blend: CC-PVDZ
  Basis Set: (CC-PVDZ AUX)
    Blend: CC-PVDZ-JKFIT
  @DF-UKS Final Energy:  -316.98013073546070
    Total Energy =                       -316.9801307354607047
  Basis Set: CC-PVDZ
    Blend: CC-PVDZ
  Basis Set: (CC-PVDZ AUX)
    Blend: CC-PVDZ-JKFIT
  Basis Set: CC-PVDZ
    Blend: CC-PVDZ
  @DF-UKS Final Energy:  -317.12097174455630
    Total Energy =                       -317.1209717445563001
  @DF-UKS Final Energy:  -317.20294931615780
    Total Energy =                       -317.2029493161577420
  @DF-UKS Final Energy:  -317.25000755172152
    Total Energy =                       -317.2500075517215805
  @DF-UKS Final Energy:  -317.27689224392384
    Total Energy =                       -317.2768922439238395
  @DF-UKS Final Energy:  -317.29239039349949
    Total Energy =                       -317.2923903934994314
  @DF-UKS Final Energy:  -317.30122003636973
    Total Energy =                       -317.3012200363697275
  @DF-UKS Final Energy:  -317.30613958116328
    Total Energy =                       -317.3061395811632792
  @DF-UKS Final Energy:  -317.30882400883513
    Total Energy =                       -317.3088240088350744
  @DF-UKS Final Energy:  -317.31025769210430
    Total Energy =                       -317.3102576921043010
  @DF-UKS Final Energy:  -317.31100534107844
    Total Energy =                       -317.3110053410784417
  @DF-UKS Final Energy:  -317.31137992032967
    Total Energy =                       -317.3113799203297276
  @DF-UKS Final Energy:  -317.31155563625862
    Total Energy =                       -317.3115556362586176
  @DF-UKS Final Energy:  -317.31163134722306
    Total Energy =                       -317.3116313472230559
  @DF-UKS Final Energy:  -317.31165902479455
    Total Energy =                       -317.3116590247945510
  Basis Set: (CC-PVDZ AUX)
    Blend: CC-PVDZ-JKFIT
  Basis Set: CC-PVDZ
    Blend: CC-PVDZ
  Basis Set: (CC-PVDZ AUX)
    Blend: CC-PVDZ-JKFIT
  @DF-UKS Final Energy:  -317.31166773650381
    Total Energy =                       -317.3116677365038072
  Basis Set: CC-PVDZ
    Blend: CC-PVDZ
  Basis Set: (CC-PVDZ AUX)
    Blend: CC-PVDZ-JKFIT
  Charge       = 0
  Multiplicity = 6
  Basis Set: CC-PVDZ
    Blend: CC-PVDZ
  Basis Set: (CC-PVDZ AUX)
    Blend: CC-PVDZ-JKFIT

    Orbital Energies [Eh]
    ---------------------

    Alpha Occupied:

       1A1   -56.122948     2A1   -19.286680     3A1    -4.203043
       4A1    -2.758588     1B1    -2.754573     1B2    -2.754565
       5A1    -1.016887     6A1    -0.456002     2B1    -0.454565
       2B2    -0.377818     7A1    -0.372305     3B1    -0.163086
       3B2    -0.162848

    Alpha Virtual:

       8A1    -0.104767     9A1     0.141710     4B1     0.188586
       4B2     0.188985    10A1     0.200887    11A1     0.219807
       1A2     0.219807     5B1     0.224006     5B2     0.224250
      12A1     0.232675     6B1     0.808235    13A1     0.837121
       6B2     0.855851    14A1     1.093821     7B1     2.428273
      15A1     2.428960     7B2     2.486698     2A2     2.487199
      16A1     2.508002

    Beta Occupied:

       1A1   -56.113827     2A1   -19.236852     3A1    -4.189777
       4A1    -2.750842     1B1    -2.739386     1B2    -2.739367
       5A1    -0.858863     2B2    -0.326305

    Beta Virtual:

       6A1    -0.213433     7A1    -0.176723     2B1    -0.173049
       8A1    -0.042650     3B2    -0.020088     3B1    -0.016884
       9A1     0.190532    10A1     0.231318     4B2     0.248959
       4B1     0.251369    11A1     0.301742     5B2     0.311119
       5B1     0.312141     1A2     0.334274    12A1     0.334730
       6B2     0.885536     6B1     0.921891    13A1     0.948754
      14A1     1.175208     7B2     2.577336     2A2     2.578164
      15A1     2.585418     7B1     2.601733    16A1     2.602392

    Final Occupation by Irrep:
             A1    A2    B1    B2
    DOCC [     5,    0,    1,    2 ]
    SOCC [     2,    0,    2,    1 ]
    NA   [     7,    0,    3,    3 ]
    NB   [     5,    0,    1,    2 ]

  @DF-UKS Final Energy:  -317.31166872687902

   => Energetics <=

    Nuclear Repulsion Energy =             13.8761601767794893
    One-Electron Energy =                -466.9343558601232189
    Two-Electron Energy =                 157.5706153627254196
    DFT Exchange-Correlation Energy =     -21.8240884062607314
    Empirical Dispersion Energy =           0.0000000000000000
    VV10 Nonlocal Energy =                  0.0000000000000000
    Total Energy =                       -317.3116687268790770

  UHF NO Occupations:
  HONO-2 :    7 A1 1.0000000
  HONO-1 :    3 B1 1.0000000
  HONO-0 :    3 B2 1.0000000
  LUNO+0 :    8 A1 0.0007278
  LUNO+1 :    4 B2 0.0002466
  LUNO+2 :    9 A1 0.0000008
  LUNO+3 :    4 B1 0.0000002

Computation Completed

Properties will be evaluated at   0.000000,   0.000000,   0.000000 [a0]

Properties computed using the SCF density matrix

 Multipole Moments:

 ------------------------------------------------------------------------------------
     Multipole            Electronic (a.u.)      Nuclear  (a.u.)        Total (a.u.)
 ------------------------------------------------------------------------------------

 L = 1.  Multiply by 2.5417464519 to convert [e a0] to [Debye]
 Dipole X            :          0.0000000            0.0000000            0.0000000
 Dipole Y            :          0.0000000            0.0000000            0.0000000
 Dipole Z            :         -1.3505262            1.3809307            0.0304045
 Magnitude           :                                                    0.0304045

 ------------------------------------------------------------------------------------

*** tstop() called on Joses-MacBook-Pro-2.local at Wed Jul 16 19:21:09 2025
Module time:
	user time   =       3.76 seconds =       0.06 minutes
	system time =       3.11 seconds =       0.05 minutes
	total time  =          1 seconds =       0.02 minutes
Total time:
	user time   =      91.08 seconds =       1.52 minutes
	system time =      96.89 seconds =       1.61 minutes
	total time  =         19 seconds =       0.32 minutes

*** tstart() called on Joses-MacBook-Pro-2.local
*** at Wed Jul 16 19:21:09 2025

         ------------------------------------------------------------
                                   SCF GRAD
                          Rob Parrish, Justin Turney,
                       Andy Simmonett, and Alex Sokolov
         ------------------------------------------------------------

  ==> Geometry <==

    Molecular point group: c2v
    Full point group: C_inf_v

    Geometry (in Angstrom), charge = 0, multiplicity = 6:

       Center              X                  Y                   Z               Mass
    ------------   -----------------  -----------------  -----------------  -----------------
         O            0.000000000000     0.000000000000     2.490011240462    15.994914619570
         AL           0.000000000000     0.000000000000    -1.476102526499    26.981538530000

  Nuclear repulsion =   13.876160176779489

  ==> Basis Set <==

  Basis Set: CC-PVDZ
    Blend: CC-PVDZ
    Number of shells: 14
    Number of basis functions: 32
    Number of Cartesian functions: 34
    Spherical Harmonics?: true
    Max angular momentum: 2

  ==> DFJKGrad: Density-Fitted SCF Gradients <==

    Gradient:                    1
    J tasked:                  Yes
    K tasked:                  Yes
    wK tasked:                  No
    OpenMP threads:              1
    Integrals threads:           1
    Memory [MiB]:              375
    Schwarz Cutoff:          1E-12
    Fitting Condition:       1E-10

   => Auxiliary Basis Set <=

  Basis Set: (CC-PVDZ AUX)
    Blend: CC-PVDZ-JKFIT
    Number of shells: 60
    Number of basis functions: 182
    Number of Cartesian functions: 211
    Spherical Harmonics?: true
    Max angular momentum: 3

  ==> DFT Potential <==

   => LibXC <=

    Version 6.2.2
    S. Lehtola, C. Steigemann, M. J.T. Oliveira, and M. A.L. Marques.,  SoftwareX 7, 1â€“5 (2018) (10.1016/j.softx.2017.11.002)

   => Composite Functional: B3LYP <=

    B3LYP Hyb-GGA Exchange-Correlation Functional

    P. J. Stephens, F. J. Devlin, C. F. Chabalowski, and M. J. Frisch.,  J. Phys. Chem. 98, 11623 (1994) (10.1021/j100096a001)

    Deriv               =              1
    GGA                 =           TRUE
    Meta                =          FALSE

    Exchange Hybrid     =           TRUE
    MP2 Hybrid          =          FALSE

   => Exchange Functionals <=

    0.0800   Slater exchange
    0.7200         Becke 88

   => Exact (HF) Exchange <=

    0.2000               HF

   => Correlation Functionals <=

    0.1900   Vosko, Wilk & Nusair (VWN5_RPA)
    0.8100   Lee, Yang & Parr

   => LibXC Density Thresholds  <==

    XC_HYB_GGA_XC_B3LYP:  1.00E-15

   => Molecular Quadrature <=

    Radial Scheme          =       TREUTLER
    Pruning Scheme         =           NONE
    Nuclear Scheme         =       TREUTLER

    Blocking Scheme        =         OCTREE
    BS radius alpha        =              1
    Pruning alpha          =              1
    Radial Points          =             75
    Spherical Points       =            302
    Total Points           =          43571
    Total Blocks           =            423
    Max Points             =            255
    Max Functions          =             32
    Weights Tolerance      =       1.00E-15

  -Total Gradient:
     Atom            X                  Y                   Z
    ------   -----------------  -----------------  -----------------
       1        0.000000000000    -0.000000000000    -0.000000825264
       2        0.000000000000    -0.000000000000     0.000010667285

*** tstop() called on Joses-MacBook-Pro-2.local at Wed Jul 16 19:21:09 2025
Module time:
	user time   =       0.70 seconds =       0.01 minutes
	system time =       1.78 seconds =       0.03 minutes
	total time  =          0 seconds =       0.00 minutes
Total time:
	user time   =      91.79 seconds =       1.53 minutes
	system time =      98.67 seconds =       1.64 minutes
	total time  =         19 seconds =       0.32 minutes

    			-----------------------------------------

    			 OPTKING 3.0: for geometry optimizations

    			     By R.A. King, Bethel University

    			        with contributions from

    			    A.V. Copan, J. Cayton, A. Heide

    			-----------------------------------------

	                            ===> Fragment 1 <==

	 Z (Atomic Numbers)          Masses                          Geom
	       8.000000            15.994915          0.00000000  0.00000000  4.70543929
	      13.000000            26.981539          0.00000000  0.00000000 -2.78942951

	 - Coordinate -           - BOHR/RAD -       - ANG/DEG -
	 R(1,2)           =         7.494869           3.966114

	        --- Internal Coordinate Step in ANG or DEG, aJ/ANG or AJ/DEG ---
	-------------------------------------------------------------------------------
	           Coordinate      Previous         Force          Change          New
	           ----------      --------        ------          ------        ------
	               R(1,2)       3.96611        0.00005        0.00856       3.97467
	-------------------------------------------------------------------------------

	                                 ==> Convergence Check <==

	Measures of convergence in internal coordinates in au.

	Criteria marked as inactive (o), active & met (*), and active & unmet ( ).

	----------------------------------------------------------------------------------------------
	   Step    Total Energy     Delta E     Max Force     RMS Force      Max Disp      RMS Disp
	----------------------------------------------------------------------------------------------
	  Convergence Criteria     1.00e-06 *    3.00e-04 *             o    1.20e-03 *             o
	----------------------------------------------------------------------------------------------
	    18    -317.31166873   -9.90e-07 *    5.75e-06 *    5.75e-06 o    1.62e-02      1.62e-02 o  ~
	----------------------------------------------------------------------------------------------

Next Geometry in Ang
	Fragment 1 (Ang)

	    O   0.0000000000   0.0000000000   2.4942913299
	   Al   0.0000000000   0.0000000000  -1.4803826160

    Final optimized geometry and variables:
    Molecular point group: c2v
    Full point group: C_inf_v

    Geometry (in Angstrom), charge = 0, multiplicity = 6:

    O            0.000000000000     0.000000000000     2.490011240462
    AL           0.000000000000     0.000000000000    -1.476102526499

    Psi4 stopped on: Wednesday, 16 July 2025 07:21PM
    Psi4 wall time for execution: 0:00:19.49

*** Psi4 exiting successfully. Buy a developer a beer!
