                               Psi4 1.9.1 release

  ==> Input File <==

--------------------------------------------------------------------------
molecule {
0 6
Li   0.00000        0.60000        0.00000
C   0.00000       -0.60000        0.00000
}

set {
basis              cc-pvdz
reference          uks
maxiter            500
geom_maxiter       500
DAMPING_PERCENTAGE 1
guess              SAP
}

optimize('b3lyp')
--------------------------------------------------------------------------

    Molecular point group: c2v
  Charge       = 0
  Multiplicity = 6
  Basis Set: CC-PVDZ
    Blend: CC-PVDZ
  Basis Set: (CC-PVDZ AUX)
    Blend: CC-PVDZ-JKFIT + DEF2-UNIVERSAL-JKFIT
  @DF-UKS Final Energy:   -44.92038343456908
    Total Energy =                        -44.9203834345690822
 Dipole X            :          0.0000000            0.0000000            0.0000000
 Dipole Y            :          0.0000000            0.0000000            0.0000000
 Dipole Z            :         -0.7423905           -0.7269546           -1.4693451
 Magnitude           :                                                    1.4693451
    Molecular point group: c2v
  Basis Set: CC-PVDZ
    Blend: CC-PVDZ
  Basis Set: (CC-PVDZ AUX)
    Blend: CC-PVDZ-JKFIT + DEF2-UNIVERSAL-JKFIT
  Basis Set: CC-PVDZ
    Blend: CC-PVDZ
  Basis Set: (CC-PVDZ AUX)
    Blend: CC-PVDZ-JKFIT + DEF2-UNIVERSAL-JKFIT
  @DF-UKS Final Energy:   -45.03891836171915
    Total Energy =                        -45.0389183617191549
  Basis Set: CC-PVDZ
    Blend: CC-PVDZ
  Basis Set: (CC-PVDZ AUX)
    Blend: CC-PVDZ-JKFIT + DEF2-UNIVERSAL-JKFIT
  Basis Set: CC-PVDZ
    Blend: CC-PVDZ
  @DF-UKS Final Energy:   -45.09253842936863
    Total Energy =                        -45.0925384293686164
  @DF-UKS Final Energy:   -45.12381210561870
    Total Energy =                        -45.1238121056186969
  @DF-UKS Final Energy:   -45.14105435366817
    Total Energy =                        -45.1410543536681743
  @DF-UKS Final Energy:   -45.15095383422580
    Total Energy =                        -45.1509538342258026
  @DF-UKS Final Energy:   -45.15683114905745
    Total Energy =                        -45.1568311490574530
  @DF-UKS Final Energy:   -45.16067471695911
    Total Energy =                        -45.1606747169591074
  @DF-UKS Final Energy:   -45.16359024573622
    Total Energy =                        -45.1635902457362306
  @DF-UKS Final Energy:   -45.16374299842138
    Total Energy =                        -45.1637429984213767
  @DF-UKS Final Energy:   -45.16647637797415
    Total Energy =                        -45.1664763779741421
  @DF-UKS Final Energy:   -45.16655665265409
    Total Energy =                        -45.1665566526540871
  @DF-UKS Final Energy:   -45.16841309093240
    Total Energy =                        -45.1684130909323969
  @DF-UKS Final Energy:   -45.16845109251730
    Total Energy =                        -45.1684510925173015
  @DF-UKS Final Energy:   -45.16954203530513
    Total Energy =                        -45.1695420353051276
  @DF-UKS Final Energy:   -45.16955782235544
    Total Energy =                        -45.1695578223554435
  @DF-UKS Final Energy:   -45.17017693837489
    Total Energy =                        -45.1701769383748797
  @DF-UKS Final Energy:   -45.17018299530567
    Total Energy =                        -45.1701829953056588
  @DF-UKS Final Energy:   -45.17018897780913
    Total Energy =                        -45.1701889778091328
  @DF-UKS Final Energy:   -45.17053177610231
    Total Energy =                        -45.1705317761023082
  @DF-UKS Final Energy:   -45.17053392767134
    Total Energy =                        -45.1705339276713289
  @DF-UKS Final Energy:   -45.17053606154376
    Total Energy =                        -45.1705360615437428
  @DF-UKS Final Energy:   -45.17053817658165
    Total Energy =                        -45.1705381765816512
  @DF-UKS Final Energy:   -45.17054027298085
    Total Energy =                        -45.1705402729808512
  Basis Set: (CC-PVDZ AUX)
    Blend: CC-PVDZ-JKFIT + DEF2-UNIVERSAL-JKFIT
  Basis Set: CC-PVDZ
    Blend: CC-PVDZ
  Basis Set: (CC-PVDZ AUX)
    Blend: CC-PVDZ-JKFIT + DEF2-UNIVERSAL-JKFIT
  @DF-UKS Final Energy:   -45.17072446044835
    Total Energy =                        -45.1707244604483478
  Basis Set: CC-PVDZ
    Blend: CC-PVDZ
  Basis Set: (CC-PVDZ AUX)
    Blend: CC-PVDZ-JKFIT + DEF2-UNIVERSAL-JKFIT
  Charge       = 0
  Multiplicity = 6
  Basis Set: CC-PVDZ
    Blend: CC-PVDZ
  Basis Set: (CC-PVDZ AUX)
    Blend: CC-PVDZ-JKFIT + DEF2-UNIVERSAL-JKFIT

    Orbital Energies [Eh]
    ---------------------

    Alpha Occupied:

       1A1   -10.313243     2A1    -2.032262     3A1    -0.634363
       4A1    -0.288751     1B1    -0.288534     1B2    -0.288534
       5A1    -0.134076

    Alpha Virtual:

       2B1    -0.031880     2B2    -0.031880     6A1    -0.030041
       3B2     0.071482     3B1     0.071482     7A1     0.073619
       8A1     0.086279     9A1     0.216225    10A1     0.218086
       1A2     0.218086     4B1     0.218232     4B2     0.218232
       5B1     0.439027     5B2     0.439027    11A1     0.451696
      12A1     0.554803     2A2     1.082586    13A1     1.082641
       6B2     1.082672     6B1     1.082672    14A1     1.083019

    Beta Occupied:

       1A1   -10.244212     2A1    -2.024977

    Beta Virtual:

       3A1    -0.267351     4A1    -0.056106     5A1    -0.005070
       1B1    -0.000627     1B2    -0.000627     2B1     0.020466
       2B2     0.020466     6A1     0.028843     3B1     0.090139
       3B2     0.090139     7A1     0.093668     8A1     0.111564
       9A1     0.262468     4B1     0.263044     4B2     0.263044
       1A2     0.263085    10A1     0.263271     5B1     0.576359
       5B2     0.576359    11A1     0.587832    12A1     0.702333
       6B2     1.318088     6B1     1.318088     2A2     1.318115
      13A1     1.318244    14A1     1.318471

    Final Occupation by Irrep:
             A1    A2    B1    B2
    DOCC [     2,    0,    0,    0 ]
    SOCC [     3,    0,    1,    1 ]
    NA   [     5,    0,    1,    1 ]
    NB   [     2,    0,    0,    0 ]

  @DF-UKS Final Energy:   -45.17072517420435

   => Energetics <=

    Nuclear Repulsion Energy =              1.8479508564810296
    One-Electron Energy =                 -63.6351953051813553
    Two-Electron Energy =                  22.3865165232991004
    DFT Exchange-Correlation Energy =      -5.7699972488031230
    Empirical Dispersion Energy =           0.0000000000000000
    VV10 Nonlocal Energy =                  0.0000000000000000
    Total Energy =                        -45.1707251742043496

  UHF NO Occupations:
  HONO-2 :    3 A1 1.0000000
  HONO-1 :    4 A1 1.0000000
  HONO-0 :    5 A1 1.0000000
  LUNO+0 :    6 A1 0.0000013
  LUNO+1 :    7 A1 0.0000002
  LUNO+2 :    8 A1 0.0000000
  LUNO+3 :    9 A1 0.0000000

Computation Completed

Properties will be evaluated at   0.000000,   0.000000,   0.000000 [a0]

Properties computed using the SCF density matrix

 Multipole Moments:

 ------------------------------------------------------------------------------------
     Multipole            Electronic (a.u.)      Nuclear  (a.u.)        Total (a.u.)
 ------------------------------------------------------------------------------------

 L = 1.  Multiply by 2.5417464519 to convert [e a0] to [Debye]
 Dipole X            :          0.0000000            0.0000000            0.0000000
 Dipole Y            :          0.0000000            0.0000000            0.0000000
 Dipole Z            :          3.0576730           -3.1225490           -0.0648761
 Magnitude           :                                                    0.0648761

 ------------------------------------------------------------------------------------

*** tstop() called on Joses-MacBook-Pro-2.local at Wed Jul 16 18:29:52 2025
Module time:
	user time   =       2.23 seconds =       0.04 minutes
	system time =       2.47 seconds =       0.04 minutes
	total time  =          1 seconds =       0.02 minutes
Total time:
	user time   =      87.05 seconds =       1.45 minutes
	system time =     104.59 seconds =       1.74 minutes
	total time  =         18 seconds =       0.30 minutes

*** tstart() called on Joses-MacBook-Pro-2.local
*** at Wed Jul 16 18:29:52 2025

         ------------------------------------------------------------
                                   SCF GRAD
                          Rob Parrish, Justin Turney,
                       Andy Simmonett, and Alex Sokolov
         ------------------------------------------------------------

  ==> Geometry <==

    Molecular point group: c2v
    Full point group: C_inf_v

    Geometry (in Angstrom), charge = 0, multiplicity = 6:

       Center              X                  Y                   Z               Mass
    ------------   -----------------  -----------------  -----------------  -----------------
         LI           0.000000000000     0.000000000000     3.252709058038     7.016003436600
         C            0.000000000000     0.000000000000    -1.901751494121    12.000000000000

  Nuclear repulsion =    1.847950856481030

  ==> Basis Set <==

  Basis Set: CC-PVDZ
    Blend: CC-PVDZ
    Number of shells: 12
    Number of basis functions: 28
    Number of Cartesian functions: 30
    Spherical Harmonics?: true
    Max angular momentum: 2

  ==> DFJKGrad: Density-Fitted SCF Gradients <==

    Gradient:                    1
    J tasked:                  Yes
    K tasked:                  Yes
    wK tasked:                  No
    OpenMP threads:              1
    Integrals threads:           1
    Memory [MiB]:              375
    Schwarz Cutoff:          1E-12
    Fitting Condition:       1E-10

   => Auxiliary Basis Set <=

  Basis Set: (CC-PVDZ AUX)
    Blend: CC-PVDZ-JKFIT + DEF2-UNIVERSAL-JKFIT
    Number of shells: 41
    Number of basis functions: 121
    Number of Cartesian functions: 141
    Spherical Harmonics?: true
    Max angular momentum: 3

  ==> DFT Potential <==

   => LibXC <=

    Version 6.2.2
    S. Lehtola, C. Steigemann, M. J.T. Oliveira, and M. A.L. Marques.,  SoftwareX 7, 1â€“5 (2018) (10.1016/j.softx.2017.11.002)

   => Composite Functional: B3LYP <=

    B3LYP Hyb-GGA Exchange-Correlation Functional

    P. J. Stephens, F. J. Devlin, C. F. Chabalowski, and M. J. Frisch.,  J. Phys. Chem. 98, 11623 (1994) (10.1021/j100096a001)

    Deriv               =              1
    GGA                 =           TRUE
    Meta                =          FALSE

    Exchange Hybrid     =           TRUE
    MP2 Hybrid          =          FALSE

   => Exchange Functionals <=

    0.0800   Slater exchange
    0.7200         Becke 88

   => Exact (HF) Exchange <=

    0.2000               HF

   => Correlation Functionals <=

    0.1900   Vosko, Wilk & Nusair (VWN5_RPA)
    0.8100   Lee, Yang & Parr

   => LibXC Density Thresholds  <==

    XC_HYB_GGA_XC_B3LYP:  1.00E-15

   => Molecular Quadrature <=

    Radial Scheme          =       TREUTLER
    Pruning Scheme         =           NONE
    Nuclear Scheme         =       TREUTLER

    Blocking Scheme        =         OCTREE
    BS radius alpha        =              1
    Pruning alpha          =              1
    Radial Points          =             75
    Spherical Points       =            302
    Total Points           =          44418
    Total Blocks           =            450
    Max Points             =            256
    Max Functions          =             28
    Weights Tolerance      =       1.00E-15

  -Total Gradient:
     Atom            X                  Y                   Z
    ------   -----------------  -----------------  -----------------
       1        0.000000000000     0.000000000000    -0.000204895537
       2       -0.000000000000     0.000000000000     0.000205776036

*** tstop() called on Joses-MacBook-Pro-2.local at Wed Jul 16 18:29:52 2025
Module time:
	user time   =       1.06 seconds =       0.02 minutes
	system time =       1.18 seconds =       0.02 minutes
	total time  =          0 seconds =       0.00 minutes
Total time:
	user time   =      88.12 seconds =       1.47 minutes
	system time =     105.77 seconds =       1.76 minutes
	total time  =         18 seconds =       0.30 minutes

    			-----------------------------------------

    			 OPTKING 3.0: for geometry optimizations

    			     By R.A. King, Bethel University

    			        with contributions from

    			    A.V. Copan, J. Cayton, A. Heide

    			-----------------------------------------

	                            ===> Fragment 1 <==

	 Z (Atomic Numbers)          Masses                          Geom
	       3.000000             7.016003          0.00000000  0.00000000  6.14672929
	       6.000000            12.000000          0.00000000  0.00000000 -3.59378948

	 - Coordinate -           - BOHR/RAD -       - ANG/DEG -
	 R(1,2)           =         9.740519           5.154461

	        --- Internal Coordinate Step in ANG or DEG, aJ/ANG or AJ/DEG ---
	-------------------------------------------------------------------------------
	           Coordinate      Previous         Force          Change          New
	           ----------      --------        ------          ------        ------
	               R(1,2)       5.15446        0.00169        0.00181       5.15627
	-------------------------------------------------------------------------------

	                                 ==> Convergence Check <==

	Measures of convergence in internal coordinates in au.

	Criteria marked as inactive (o), active & met (*), and active & unmet ( ).

	----------------------------------------------------------------------------------------------
	   Step    Total Energy     Delta E     Max Force     RMS Force      Max Disp      RMS Disp
	----------------------------------------------------------------------------------------------
	  Convergence Criteria     1.00e-06 *    3.00e-04 *             o    1.20e-03 *             o
	----------------------------------------------------------------------------------------------
	    26     -45.17072517   -7.14e-07 *    2.05e-04 *    2.05e-04 o    3.42e-03      3.42e-03 o  ~
	----------------------------------------------------------------------------------------------

Next Geometry in Ang
	Fragment 1 (Ang)

	   Li   0.0000000000   0.0000000000   3.2536152372
	    C   0.0000000000   0.0000000000  -1.9026576732

    Final optimized geometry and variables:
    Molecular point group: c2v
    Full point group: C_inf_v

    Geometry (in Angstrom), charge = 0, multiplicity = 6:

    LI           0.000000000000     0.000000000000     3.252709058038
    C            0.000000000000     0.000000000000    -1.901751494121

    Psi4 stopped on: Wednesday, 16 July 2025 06:29PM
    Psi4 wall time for execution: 0:00:18.88

*** Psi4 exiting successfully. Buy a developer a beer!
