                               Psi4 1.9.1 release

  ==> Input File <==

--------------------------------------------------------------------------
molecule {
0 6
C   0.00000        0.60000        0.00000
Na   0.00000       -0.60000        0.00000
}

set {
basis              cc-pvdz
reference          uks
maxiter            500
geom_maxiter       500
DAMPING_PERCENTAGE 1
guess              SAP
}

optimize('b3lyp')
--------------------------------------------------------------------------

    Molecular point group: c2v
  Charge       = 0
  Multiplicity = 6
  Basis Set: CC-PVDZ
    Blend: CC-PVDZ
  Basis Set: (CC-PVDZ AUX)
    Blend: CC-PVDZ-JKFIT + DEF2-UNIVERSAL-JKFIT
  @DF-UKS Final Energy:  -199.42118779184690
    Total Energy =                       -199.4211877918469042
 Dipole X            :          0.0000000            0.0000000            0.0000000
 Dipole Y            :          0.0000000            0.0000000            0.0000000
 Dipole Z            :          0.6614508            0.3848790            1.0463299
 Magnitude           :                                                    1.0463299
    Molecular point group: c2v
  Basis Set: CC-PVDZ
    Blend: CC-PVDZ
  Basis Set: (CC-PVDZ AUX)
    Blend: CC-PVDZ-JKFIT + DEF2-UNIVERSAL-JKFIT
  Basis Set: CC-PVDZ
    Blend: CC-PVDZ
  Basis Set: (CC-PVDZ AUX)
    Blend: CC-PVDZ-JKFIT + DEF2-UNIVERSAL-JKFIT
  @DF-UKS Final Energy:  -199.59845704236676
    Total Energy =                       -199.5984570423667606
  Basis Set: CC-PVDZ
    Blend: CC-PVDZ
  Basis Set: (CC-PVDZ AUX)
    Blend: CC-PVDZ-JKFIT + DEF2-UNIVERSAL-JKFIT
  Basis Set: CC-PVDZ
    Blend: CC-PVDZ
  @DF-UKS Final Energy:  -199.74384820845592
    Total Energy =                       -199.7438482084559155
  @DF-UKS Final Energy:  -199.83819353004156
    Total Energy =                       -199.8381935300415648
  @DF-UKS Final Energy:  -199.89327693780891
    Total Energy =                       -199.8932769378089063
  @DF-UKS Final Energy:  -199.92345216577741
    Total Energy =                       -199.9234521657774053
  @DF-UKS Final Energy:  -199.94043790639236
    Total Energy =                       -199.9404379063923898
  @DF-UKS Final Energy:  -199.95052827782149
    Total Energy =                       -199.9505282778215189
  @DF-UKS Final Energy:  -199.95702733902661
    Total Energy =                       -199.9570273390266095
  @DF-UKS Final Energy:  -199.96140585733514
    Total Energy =                       -199.9614058573351087
  @DF-UKS Final Energy:  -199.96443962232058
    Total Energy =                       -199.9644396223205831
  @DF-UKS Final Energy:  -199.96451643214519
    Total Energy =                       -199.9645164321451887
  @DF-UKS Final Energy:  -199.96683282443703
    Total Energy =                       -199.9668328244370059
  @DF-UKS Final Energy:  -199.96686421888970
    Total Energy =                       -199.9668642188896968
  @DF-UKS Final Energy:  -199.96826667584097
    Total Energy =                       -199.9682666758409937
  @DF-UKS Final Energy:  -199.96827933897822
    Total Energy =                       -199.9682793389782489
  @DF-UKS Final Energy:  -199.96829187476453
    Total Energy =                       -199.9682918747645601
  @DF-UKS Final Energy:  -199.96911650344703
    Total Energy =                       -199.9691165034469975
  @DF-UKS Final Energy:  -199.96912139286420
    Total Energy =                       -199.9691213928642242
  @DF-UKS Final Energy:  -199.96912625006402
    Total Energy =                       -199.9691262500639937
  @DF-UKS Final Energy:  -199.96913107102412
    Total Energy =                       -199.9691310710241225
  @DF-UKS Final Energy:  -199.96959810951628
    Total Energy =                       -199.9695981095162836
  @DF-UKS Final Energy:  -199.96959991327870
    Total Energy =                       -199.9695999132786710
  @DF-UKS Final Energy:  -199.96960170986421
    Total Energy =                       -199.9696017098642074
  @DF-UKS Final Energy:  -199.96960349692787
    Total Energy =                       -199.9696034969278742
  @DF-UKS Final Energy:  -199.96960527456426
    Total Energy =                       -199.9696052745642305
  @DF-UKS Final Energy:  -199.96960704279607
    Total Energy =                       -199.9696070427960706
  Basis Set: (CC-PVDZ AUX)
    Blend: CC-PVDZ-JKFIT + DEF2-UNIVERSAL-JKFIT
  Basis Set: CC-PVDZ
    Blend: CC-PVDZ
  Basis Set: (CC-PVDZ AUX)
    Blend: CC-PVDZ-JKFIT + DEF2-UNIVERSAL-JKFIT
  @DF-UKS Final Energy:  -199.96986911849331
    Total Energy =                       -199.9698691184933068
  Basis Set: CC-PVDZ
    Blend: CC-PVDZ
  Basis Set: (CC-PVDZ AUX)
    Blend: CC-PVDZ-JKFIT + DEF2-UNIVERSAL-JKFIT
  Charge       = 0
  Multiplicity = 6
  Basis Set: CC-PVDZ
    Blend: CC-PVDZ
  Basis Set: (CC-PVDZ AUX)
    Blend: CC-PVDZ-JKFIT + DEF2-UNIVERSAL-JKFIT

    Orbital Energies [Eh]
    ---------------------

    Alpha Occupied:

       1A1   -38.479205     2A1   -10.313773     3A1    -2.223925
       4A1    -1.154783     1B1    -1.154749     1B2    -1.154749
       5A1    -0.634858     6A1    -0.289343     2B2    -0.289008
       2B1    -0.289008     7A1    -0.127694

    Alpha Virtual:

       3B2    -0.020572     3B1    -0.020572     8A1    -0.017731
       9A1     0.054653     4B1     0.076362     4B2     0.076362
      10A1     0.077102    11A1     0.158358    12A1     0.159305
       1A2     0.159306     5B1     0.159570     5B2     0.159570
       6B2     0.439567     6B1     0.439567    13A1     0.453033
      14A1     0.564203     2A2     1.082140    15A1     1.082204
       7B1     1.082205     7B2     1.082205    16A1     1.082904

    Beta Occupied:

       1A1   -38.477737     2A1   -10.244738     3A1    -2.220979
       4A1    -1.152864     1B1    -1.152828     1B2    -1.152828

    Beta Virtual:

       5A1    -0.267290     6A1    -0.064957     7A1    -0.003190
       2B1     0.000704     2B2     0.000704     3B1     0.022003
       3B2     0.022003     8A1     0.030838     9A1     0.073998
       4B1     0.095085     4B2     0.095085    10A1     0.096794
       5B1     0.188006     5B2     0.188006    11A1     0.188222
       1A2     0.188223    12A1     0.189683     6B1     0.577529
       6B2     0.577529    13A1     0.591154    14A1     0.713359
       2A2     1.317972    15A1     1.318174     7B1     1.318377
       7B2     1.318377    16A1     1.319239

    Final Occupation by Irrep:
             A1    A2    B1    B2
    DOCC [     4,    0,    1,    1 ]
    SOCC [     3,    0,    1,    1 ]
    NA   [     7,    0,    2,    2 ]
    NB   [     4,    0,    1,    1 ]

  @DF-UKS Final Energy:  -199.96986975688418

   => Energetics <=

    Nuclear Repulsion Energy =              6.9471988844040427
    One-Electron Energy =                -291.9209319817171036
    Two-Electron Energy =                 100.9289273468420305
    DFT Exchange-Correlation Energy =     -15.9250640064131410
    Empirical Dispersion Energy =           0.0000000000000000
    VV10 Nonlocal Energy =                  0.0000000000000000
    Total Energy =                       -199.9698697568841794

  UHF NO Occupations:
  HONO-2 :    6 A1 1.0000000
  HONO-1 :    7 A1 1.0000000
  HONO-0 :    2 B2 1.0000000
  LUNO+0 :    8 A1 0.0000013
  LUNO+1 :    3 B1 0.0000012
  LUNO+2 :    3 B2 0.0000012
  LUNO+3 :    9 A1 0.0000011

Computation Completed

Properties will be evaluated at   0.000000,   0.000000,   0.000000 [a0]

Properties computed using the SCF density matrix

 Multipole Moments:

 ------------------------------------------------------------------------------------
     Multipole            Electronic (a.u.)      Nuclear  (a.u.)        Total (a.u.)
 ------------------------------------------------------------------------------------

 L = 1.  Multiply by 2.5417464519 to convert [e a0] to [Debye]
 Dipole X            :          0.0000000            0.0000000            0.0000000
 Dipole Y            :          0.0000000            0.0000000            0.0000000
 Dipole Z            :         -1.5273628            1.6124206            0.0850578
 Magnitude           :                                                    0.0850578

 ------------------------------------------------------------------------------------

*** tstop() called on Joses-MacBook-Pro-2.local at Wed Jul 16 19:01:56 2025
Module time:
	user time   =       1.92 seconds =       0.03 minutes
	system time =       2.11 seconds =       0.04 minutes
	total time  =          1 seconds =       0.02 minutes
Total time:
	user time   =     110.05 seconds =       1.83 minutes
	system time =     137.38 seconds =       2.29 minutes
	total time  =         24 seconds =       0.40 minutes

*** tstart() called on Joses-MacBook-Pro-2.local
*** at Wed Jul 16 19:01:56 2025

         ------------------------------------------------------------
                                   SCF GRAD
                          Rob Parrish, Justin Turney,
                       Andy Simmonett, and Alex Sokolov
         ------------------------------------------------------------

  ==> Geometry <==

    Molecular point group: c2v
    Full point group: C_inf_v

    Geometry (in Angstrom), charge = 0, multiplicity = 6:

       Center              X                  Y                   Z               Mass
    ------------   -----------------  -----------------  -----------------  -----------------
         C            0.000000000000     0.000000000000     3.303154368337    12.000000000000
         NA           0.000000000000     0.000000000000    -1.724151814393    22.989769282000

  Nuclear repulsion =    6.947198884404043

  ==> Basis Set <==

  Basis Set: CC-PVDZ
    Blend: CC-PVDZ
    Number of shells: 14
    Number of basis functions: 32
    Number of Cartesian functions: 34
    Spherical Harmonics?: true
    Max angular momentum: 2

  ==> DFJKGrad: Density-Fitted SCF Gradients <==

    Gradient:                    1
    J tasked:                  Yes
    K tasked:                  Yes
    wK tasked:                  No
    OpenMP threads:              1
    Integrals threads:           1
    Memory [MiB]:              375
    Schwarz Cutoff:          1E-12
    Fitting Condition:       1E-10

   => Auxiliary Basis Set <=

  Basis Set: (CC-PVDZ AUX)
    Blend: CC-PVDZ-JKFIT + DEF2-UNIVERSAL-JKFIT
    Number of shells: 58
    Number of basis functions: 182
    Number of Cartesian functions: 218
    Spherical Harmonics?: true
    Max angular momentum: 4

  ==> DFT Potential <==

   => LibXC <=

    Version 6.2.2
    S. Lehtola, C. Steigemann, M. J.T. Oliveira, and M. A.L. Marques.,  SoftwareX 7, 1â€“5 (2018) (10.1016/j.softx.2017.11.002)

   => Composite Functional: B3LYP <=

    B3LYP Hyb-GGA Exchange-Correlation Functional

    P. J. Stephens, F. J. Devlin, C. F. Chabalowski, and M. J. Frisch.,  J. Phys. Chem. 98, 11623 (1994) (10.1021/j100096a001)

    Deriv               =              1
    GGA                 =           TRUE
    Meta                =          FALSE

    Exchange Hybrid     =           TRUE
    MP2 Hybrid          =          FALSE

   => Exchange Functionals <=

    0.0800   Slater exchange
    0.7200         Becke 88

   => Exact (HF) Exchange <=

    0.2000               HF

   => Correlation Functionals <=

    0.1900   Vosko, Wilk & Nusair (VWN5_RPA)
    0.8100   Lee, Yang & Parr

   => LibXC Density Thresholds  <==

    XC_HYB_GGA_XC_B3LYP:  1.00E-15

   => Molecular Quadrature <=

    Radial Scheme          =       TREUTLER
    Pruning Scheme         =           NONE
    Nuclear Scheme         =       TREUTLER

    Blocking Scheme        =         OCTREE
    BS radius alpha        =              1
    Pruning alpha          =              1
    Radial Points          =             75
    Spherical Points       =            302
    Total Points           =          43931
    Total Blocks           =            457
    Max Points             =            255
    Max Functions          =             32
    Weights Tolerance      =       1.00E-15

  -Total Gradient:
     Atom            X                  Y                   Z
    ------   -----------------  -----------------  -----------------
       1       -0.000000000000     0.000000000000    -0.000293355842
       2        0.000000000000    -0.000000000000     0.000290909575

*** tstop() called on Joses-MacBook-Pro-2.local at Wed Jul 16 19:01:56 2025
Module time:
	user time   =       1.29 seconds =       0.02 minutes
	system time =       1.43 seconds =       0.02 minutes
	total time  =          0 seconds =       0.00 minutes
Total time:
	user time   =     111.35 seconds =       1.86 minutes
	system time =     138.81 seconds =       2.31 minutes
	total time  =         24 seconds =       0.40 minutes

    			-----------------------------------------

    			 OPTKING 3.0: for geometry optimizations

    			     By R.A. King, Bethel University

    			        with contributions from

    			    A.V. Copan, J. Cayton, A. Heide

    			-----------------------------------------

	                            ===> Fragment 1 <==

	 Z (Atomic Numbers)          Masses                          Geom
	       6.000000            12.000000          0.00000000  0.00000000  6.24205711
	      11.000000            22.989769          0.00000000  0.00000000 -3.25817473

	 - Coordinate -           - BOHR/RAD -       - ANG/DEG -
	 R(1,2)           =         9.500232           5.027306

	        --- Internal Coordinate Step in ANG or DEG, aJ/ANG or AJ/DEG ---
	-------------------------------------------------------------------------------
	           Coordinate      Previous         Force          Change          New
	           ----------      --------        ------          ------        ------
	               R(1,2)       5.02731        0.00241        0.00115       5.02846
	-------------------------------------------------------------------------------

	                                 ==> Convergence Check <==

	Measures of convergence in internal coordinates in au.

	Criteria marked as inactive (o), active & met (*), and active & unmet ( ).

	----------------------------------------------------------------------------------------------
	   Step    Total Energy     Delta E     Max Force     RMS Force      Max Disp      RMS Disp
	----------------------------------------------------------------------------------------------
	  Convergence Criteria     1.00e-06 *    3.00e-04 *             o    1.20e-03 *             o
	----------------------------------------------------------------------------------------------
	    29    -199.96986976   -6.38e-07 *    2.92e-04 *    2.92e-04 o    2.18e-03      2.18e-03 o  ~
	----------------------------------------------------------------------------------------------

Next Geometry in Ang
	Fragment 1 (Ang)

	    C   0.0000000000   0.0000000000   3.3037310654
	   Na   0.0000000000   0.0000000000  -1.7247285114

    Final optimized geometry and variables:
    Molecular point group: c2v
    Full point group: C_inf_v

    Geometry (in Angstrom), charge = 0, multiplicity = 6:

    C            0.000000000000     0.000000000000     3.303154368337
    NA           0.000000000000     0.000000000000    -1.724151814393

    Psi4 stopped on: Wednesday, 16 July 2025 07:01PM
    Psi4 wall time for execution: 0:00:25.07

*** Psi4 exiting successfully. Buy a developer a beer!
