                               Psi4 1.9.1 release

  ==> Input File <==

--------------------------------------------------------------------------
molecule {
0 6
F   0.00000        0.60000        0.00000
Ar   0.00000       -0.60000        0.00000
}

set {
basis              cc-pvdz
reference          uks
maxiter            500
geom_maxiter       500
DAMPING_PERCENTAGE 1
guess              SAP
}

optimize('b3lyp')
--------------------------------------------------------------------------

    Molecular point group: c2v
  Charge       = 0
  Multiplicity = 6
  Basis Set: CC-PVDZ
    Blend: CC-PVDZ
  Basis Set: (CC-PVDZ AUX)
    Blend: CC-PVDZ-JKFIT
  @DF-UKS Final Energy:  -625.16843190635291
    Total Energy =                       -625.1684319063527937
 Dipole X            :          0.0000000            0.0000000            0.0000000
 Dipole Y            :          0.0000000            0.0000000            0.0000000
 Dipole Z            :          0.2834288            0.6803766            0.9638054
 Magnitude           :                                                    0.9638054
    Molecular point group: c2v
  Basis Set: CC-PVDZ
    Blend: CC-PVDZ
  Basis Set: (CC-PVDZ AUX)
    Blend: CC-PVDZ-JKFIT
  Basis Set: CC-PVDZ
    Blend: CC-PVDZ
  Basis Set: (CC-PVDZ AUX)
    Blend: CC-PVDZ-JKFIT
  @DF-UKS Final Energy:  -625.31761366124056
    Total Energy =                       -625.3176136612405571
  Basis Set: CC-PVDZ
    Blend: CC-PVDZ
  Basis Set: (CC-PVDZ AUX)
    Blend: CC-PVDZ-JKFIT
  Basis Set: CC-PVDZ
    Blend: CC-PVDZ
  @DF-UKS Final Energy:  -625.41547321341852
    Total Energy =                       -625.4154732134185224
  @DF-UKS Final Energy:  -625.46115108345282
    Total Energy =                       -625.4611510834528190
  @DF-UKS Final Energy:  -625.48835983835932
    Total Energy =                       -625.4883598383593153
  @DF-UKS Final Energy:  -625.50457698464493
    Total Energy =                       -625.5045769846448138
  @DF-UKS Final Energy:  -625.51171995222705
    Total Energy =                       -625.5117199522270539
  @DF-UKS Final Energy:  -625.51394315900723
    Total Energy =                       -625.5139431590072263
  @DF-UKS Final Energy:  -625.51455852278855
    Total Energy =                       -625.5145585227885476
  @DF-UKS Final Energy:  -625.51470151675528
    Total Energy =                       -625.5147015167552809
  @DF-UKS Final Energy:  -625.51474533822693
    Total Energy =                       -625.5147453382269305
  @DF-UKS Final Energy:  -625.51476432161553
    Total Energy =                       -625.5147643216155302
  @DF-UKS Final Energy:  -625.51477004768367
    Total Energy =                       -625.5147700476836690
  Basis Set: (CC-PVDZ AUX)
    Blend: CC-PVDZ-JKFIT
  Basis Set: CC-PVDZ
    Blend: CC-PVDZ
  Basis Set: (CC-PVDZ AUX)
    Blend: CC-PVDZ-JKFIT
  @DF-UKS Final Energy:  -625.51477106419509
    Total Energy =                       -625.5147710641952017
  Basis Set: CC-PVDZ
    Blend: CC-PVDZ
  Basis Set: (CC-PVDZ AUX)
    Blend: CC-PVDZ-JKFIT
  Charge       = 0
  Multiplicity = 6
  Basis Set: CC-PVDZ
    Blend: CC-PVDZ
  Basis Set: (CC-PVDZ AUX)
    Blend: CC-PVDZ-JKFIT

    Orbital Energies [Eh]
    ---------------------

    Alpha Occupied:

       1A1  -115.232682     2A1   -24.904324     3A1   -11.301194
       1B1    -8.858203     1B2    -8.858203     4A1    -8.847806
       5A1    -1.331992     6A1    -1.170876     7A1    -0.680819
       2B1    -0.625925     2B2    -0.625925     3B2    -0.564245
       3B1    -0.564245     8A1    -0.520048     4B1     0.381849
       4B2     0.381849

    Alpha Virtual:

       9A1     0.471176    10A1     0.598233     5B1     0.627480
       5B2     0.627480     1A2     0.637843    11A1     0.637844
      12A1     0.650484     6B2     1.049760     6B1     1.049760
      13A1     1.114251    14A1     1.715661     7B2     3.366672
       7B1     3.366672    15A1     3.396868     2A2     3.401522
      16A1     3.401529

    Beta Occupied:

       1A1  -115.201605     2A1   -24.863731     3A1   -11.272134
       4A1    -8.822187     1B1    -8.805576     1B2    -8.805576
       5A1    -1.226887     6A1    -1.027334     7A1    -0.560620
       2B1    -0.494469     2B2    -0.494469

    Beta Virtual:

       3B2    -0.388481     3B1    -0.388481     8A1    -0.310912
       9A1     0.533153     4B2     0.552624     4B1     0.552624
      10A1     0.681378     5B2     0.718615     5B1     0.718615
      11A1     0.744680    12A1     0.770261     1A2     0.770262
       6B1     1.097064     6B2     1.097064    13A1     1.188834
      14A1     1.784773     2A2     3.458347    15A1     3.458355
       7B1     3.462769     7B2     3.462769    16A1     3.506935

    Final Occupation by Irrep:
             A1    A2    B1    B2
    DOCC [     7,    0,    2,    2 ]
    SOCC [     1,    0,    2,    2 ]
    NA   [     8,    0,    4,    4 ]
    NB   [     7,    0,    2,    2 ]

  @DF-UKS Final Energy:  -625.51477116966305

   => Energetics <=

    Nuclear Repulsion Energy =             42.4810967822022079
    One-Electron Energy =                -947.4792776743195191
    Two-Electron Energy =                 312.6625520356131460
    DFT Exchange-Correlation Energy =     -33.1791423131588630
    Empirical Dispersion Energy =           0.0000000000000000
    VV10 Nonlocal Energy =                  0.0000000000000000
    Total Energy =                       -625.5147711696630495

  UHF NO Occupations:
  HONO-2 :    4 B2 1.0000000
  HONO-1 :    8 A1 1.0000000
  HONO-0 :    4 B1 1.0000000
  LUNO+0 :    9 A1 0.0011562
  LUNO+1 :   10 A1 0.0003624
  LUNO+2 :    5 B2 0.0003528
  LUNO+3 :    5 B1 0.0003528

Computation Completed

Properties will be evaluated at   0.000000,   0.000000,   0.000000 [a0]

Properties computed using the SCF density matrix

 Multipole Moments:

 ------------------------------------------------------------------------------------
     Multipole            Electronic (a.u.)      Nuclear  (a.u.)        Total (a.u.)
 ------------------------------------------------------------------------------------

 L = 1.  Multiply by 2.5417464519 to convert [e a0] to [Debye]
 Dipole X            :          0.0000000            0.0000000            0.0000000
 Dipole Y            :          0.0000000            0.0000000            0.0000000
 Dipole Z            :         -0.6688705            1.1441647            0.4752942
 Magnitude           :                                                    0.4752942

 ------------------------------------------------------------------------------------

*** tstop() called on Joses-MacBook-Pro-2.local at Wed Jul 16 19:32:06 2025
Module time:
	user time   =       4.01 seconds =       0.07 minutes
	system time =       2.51 seconds =       0.04 minutes
	total time  =          0 seconds =       0.00 minutes
Total time:
	user time   =      84.46 seconds =       1.41 minutes
	system time =      77.25 seconds =       1.29 minutes
	total time  =         15 seconds =       0.25 minutes

*** tstart() called on Joses-MacBook-Pro-2.local
*** at Wed Jul 16 19:32:06 2025

         ------------------------------------------------------------
                                   SCF GRAD
                          Rob Parrish, Justin Turney,
                       Andy Simmonett, and Alex Sokolov
         ------------------------------------------------------------

  ==> Geometry <==

    Molecular point group: c2v
    Full point group: C_inf_v

    Geometry (in Angstrom), charge = 0, multiplicity = 6:

       Center              X                  Y                   Z               Mass
    ------------   -----------------  -----------------  -----------------  -----------------
         F            0.000000000000     0.000000000000     1.367755717869    18.998403162730
         AR           0.000000000000     0.000000000000    -0.650240864659    39.962383123700

  Nuclear repulsion =   42.481096782202208

  ==> Basis Set <==

  Basis Set: CC-PVDZ
    Blend: CC-PVDZ
    Number of shells: 14
    Number of basis functions: 32
    Number of Cartesian functions: 34
    Spherical Harmonics?: true
    Max angular momentum: 2

  ==> DFJKGrad: Density-Fitted SCF Gradients <==

    Gradient:                    1
    J tasked:                  Yes
    K tasked:                  Yes
    wK tasked:                  No
    OpenMP threads:              1
    Integrals threads:           1
    Memory [MiB]:              375
    Schwarz Cutoff:          1E-12
    Fitting Condition:       1E-10

   => Auxiliary Basis Set <=

  Basis Set: (CC-PVDZ AUX)
    Blend: CC-PVDZ-JKFIT
    Number of shells: 60
    Number of basis functions: 182
    Number of Cartesian functions: 211
    Spherical Harmonics?: true
    Max angular momentum: 3

  ==> DFT Potential <==

   => LibXC <=

    Version 6.2.2
    S. Lehtola, C. Steigemann, M. J.T. Oliveira, and M. A.L. Marques.,  SoftwareX 7, 1â€“5 (2018) (10.1016/j.softx.2017.11.002)

   => Composite Functional: B3LYP <=

    B3LYP Hyb-GGA Exchange-Correlation Functional

    P. J. Stephens, F. J. Devlin, C. F. Chabalowski, and M. J. Frisch.,  J. Phys. Chem. 98, 11623 (1994) (10.1021/j100096a001)

    Deriv               =              1
    GGA                 =           TRUE
    Meta                =          FALSE

    Exchange Hybrid     =           TRUE
    MP2 Hybrid          =          FALSE

   => Exchange Functionals <=

    0.0800   Slater exchange
    0.7200         Becke 88

   => Exact (HF) Exchange <=

    0.2000               HF

   => Correlation Functionals <=

    0.1900   Vosko, Wilk & Nusair (VWN5_RPA)
    0.8100   Lee, Yang & Parr

   => LibXC Density Thresholds  <==

    XC_HYB_GGA_XC_B3LYP:  1.00E-15

   => Molecular Quadrature <=

    Radial Scheme          =       TREUTLER
    Pruning Scheme         =           NONE
    Nuclear Scheme         =       TREUTLER

    Blocking Scheme        =         OCTREE
    BS radius alpha        =              1
    Pruning alpha          =              1
    Radial Points          =             75
    Spherical Points       =            302
    Total Points           =          41394
    Total Blocks           =            371
    Max Points             =            256
    Max Functions          =             32
    Weights Tolerance      =       1.00E-15

  -Total Gradient:
     Atom            X                  Y                   Z
    ------   -----------------  -----------------  -----------------
       1        0.000000000000    -0.000000000000    -0.000013339169
       2       -0.000000000000    -0.000000000000     0.000007341081

*** tstop() called on Joses-MacBook-Pro-2.local at Wed Jul 16 19:32:06 2025
Module time:
	user time   =       0.77 seconds =       0.01 minutes
	system time =       1.42 seconds =       0.02 minutes
	total time  =          0 seconds =       0.00 minutes
Total time:
	user time   =      85.24 seconds =       1.42 minutes
	system time =      78.67 seconds =       1.31 minutes
	total time  =         15 seconds =       0.25 minutes

    			-----------------------------------------

    			 OPTKING 3.0: for geometry optimizations

    			     By R.A. King, Bethel University

    			        with contributions from

    			    A.V. Copan, J. Cayton, A. Heide

    			-----------------------------------------

	                            ===> Fragment 1 <==

	 Z (Atomic Numbers)          Masses                          Geom
	       9.000000            18.998403          0.00000000  0.00000000  2.58468371
	      18.000000            39.962383          0.00000000  0.00000000 -1.22877715

	 - Coordinate -           - BOHR/RAD -       - ANG/DEG -
	 R(1,2)           =         3.813461           2.017997

	        --- Internal Coordinate Step in ANG or DEG, aJ/ANG or AJ/DEG ---
	-------------------------------------------------------------------------------
	           Coordinate      Previous         Force          Change          New
	           ----------      --------        ------          ------        ------
	               R(1,2)       2.01800        0.00009        0.00012       2.01811
	-------------------------------------------------------------------------------

	                                 ==> Convergence Check <==

	Measures of convergence in internal coordinates in au.

	Criteria marked as inactive (o), active & met (*), and active & unmet ( ).

	----------------------------------------------------------------------------------------------
	   Step    Total Energy     Delta E     Max Force     RMS Force      Max Disp      RMS Disp
	----------------------------------------------------------------------------------------------
	  Convergence Criteria     1.00e-06 *    3.00e-04 *             o    1.20e-03 *             o
	----------------------------------------------------------------------------------------------
	    15    -625.51477117   -1.05e-07 *    1.03e-05 *    1.03e-05 o    2.20e-04 *    2.20e-04 o  ~
	----------------------------------------------------------------------------------------------

Next Geometry in Ang
	Fragment 1 (Ang)

	    F   0.0000000000   0.0000000000   1.3678138812
	   Ar   0.0000000000   0.0000000000  -0.6502990280

    Final optimized geometry and variables:
    Molecular point group: c2v
    Full point group: C_inf_v

    Geometry (in Angstrom), charge = 0, multiplicity = 6:

    F            0.000000000000     0.000000000000     1.367755717869
    AR           0.000000000000     0.000000000000    -0.650240864659

    Psi4 stopped on: Wednesday, 16 July 2025 07:32PM
    Psi4 wall time for execution: 0:00:16.43

*** Psi4 exiting successfully. Buy a developer a beer!
