                               Psi4 1.9.1 release

  ==> Input File <==

--------------------------------------------------------------------------
molecule {
0 6
He   0.00000        0.60000        0.00000
P   0.00000       -0.60000        0.00000
}

set {
basis              cc-pvdz
reference          uks
maxiter            500
geom_maxiter       500
DAMPING_PERCENTAGE 1
guess              SAP
}

optimize('b3lyp')
--------------------------------------------------------------------------

    Molecular point group: c2v
  Charge       = 0
  Multiplicity = 6
  Basis Set: CC-PVDZ
    Blend: CC-PVDZ
  Basis Set: (CC-PVDZ AUX)
    Blend: CC-PVDZ-JKFIT + DEF2-UNIVERSAL-JKFIT
  @DF-UKS Final Energy:  -343.28291648051226
    Total Energy =                       -343.2829164805122559
 Dipole X            :          0.0000000            0.0000000            0.0000000
 Dipole Y            :          0.0000000            0.0000000            0.0000000
 Dipole Z            :         -0.4647450            0.1237348           -0.3410102
 Magnitude           :                                                    0.3410102
    Molecular point group: c2v
  Basis Set: CC-PVDZ
    Blend: CC-PVDZ
  Basis Set: (CC-PVDZ AUX)
    Blend: CC-PVDZ-JKFIT + DEF2-UNIVERSAL-JKFIT
  Basis Set: CC-PVDZ
    Blend: CC-PVDZ
  Basis Set: (CC-PVDZ AUX)
    Blend: CC-PVDZ-JKFIT + DEF2-UNIVERSAL-JKFIT
  @DF-UKS Final Energy:  -343.38719798862508
    Total Energy =                       -343.3871979886250188
  Basis Set: CC-PVDZ
    Blend: CC-PVDZ
  Basis Set: (CC-PVDZ AUX)
    Blend: CC-PVDZ-JKFIT + DEF2-UNIVERSAL-JKFIT
  Basis Set: CC-PVDZ
    Blend: CC-PVDZ
  @DF-UKS Final Energy:  -343.40608046959682
    Total Energy =                       -343.4060804695968159
  @DF-UKS Final Energy:  -343.42217311203228
    Total Energy =                       -343.4221731120323398
  @DF-UKS Final Energy:  -343.43182468846601
    Total Energy =                       -343.4318246884660084
  @DF-UKS Final Energy:  -343.44063647434120
    Total Energy =                       -343.4406364743412041
  @DF-UKS Final Energy:  -343.45181045305799
    Total Energy =                       -343.4518104530579876
  @DF-UKS Final Energy:  -343.45284055762193
    Total Energy =                       -343.4528405576218688
  @DF-UKS Final Energy:  -343.45797993354341
    Total Energy =                       -343.4579799335434132
  @DF-UKS Final Energy:  -343.45820470817853
    Total Energy =                       -343.4582047081785277
  @DF-UKS Final Energy:  -343.45959185730987
    Total Energy =                       -343.4595918573098743
  @DF-UKS Final Energy:  -343.45991140445398
    Total Energy =                       -343.4599114044539760
  @DF-UKS Final Energy:  -343.46001796403078
    Total Energy =                       -343.4600179640307260
  @DF-UKS Final Energy:  -343.46004102217563
    Total Energy =                       -343.4600410221756306
  @DF-UKS Final Energy:  -343.46004915428875
    Total Energy =                       -343.4600491542887539
  Basis Set: (CC-PVDZ AUX)
    Blend: CC-PVDZ-JKFIT + DEF2-UNIVERSAL-JKFIT
  Basis Set: CC-PVDZ
    Blend: CC-PVDZ
  Basis Set: (CC-PVDZ AUX)
    Blend: CC-PVDZ-JKFIT + DEF2-UNIVERSAL-JKFIT
  @DF-UKS Final Energy:  -343.46005076324178
    Total Energy =                       -343.4600507632417816
  Basis Set: CC-PVDZ
    Blend: CC-PVDZ
  Basis Set: (CC-PVDZ AUX)
    Blend: CC-PVDZ-JKFIT + DEF2-UNIVERSAL-JKFIT
  Charge       = 0
  Multiplicity = 6
  Basis Set: CC-PVDZ
    Blend: CC-PVDZ
  Basis Set: (CC-PVDZ AUX)
    Blend: CC-PVDZ-JKFIT + DEF2-UNIVERSAL-JKFIT

    Orbital Energies [Eh]
    ---------------------

    Alpha Occupied:

       1A1   -77.212227     2A1    -6.685148     3A1    -4.846366
       1B1    -4.846352     1B2    -4.846352     4A1    -0.689933
       5A1    -0.650197     2B2    -0.330283     2B1    -0.330283
       6A1    -0.330086     7A1     0.215837

    Alpha Virtual:

       3B2     0.333292     3B1     0.333292     8A1     0.333333
       9A1     0.360850    10A1     0.360937     1A2     0.360937
       4B1     0.360964     4B2     0.360964    11A1     1.132661
       5B2     2.189139     5B1     2.189139    12A1     2.191205

    Beta Occupied:

       1A1   -77.184803     2A1    -6.650751     3A1    -4.811594
       1B1    -4.811594     1B2    -4.811594     4A1    -0.649805

    Beta Virtual:

       5A1    -0.402885     6A1    -0.094080     2B2    -0.093691
       2B1    -0.093691     7A1     0.387926     8A1     0.446584
       3B2     0.452124     3B1     0.452124     9A1     0.532955
       1A2     0.532956     4B2     0.533492     4B1     0.533492
      10A1     0.533947    11A1     1.133861     5B2     2.189380
       5B1     2.189380    12A1     2.191620

    Final Occupation by Irrep:
             A1    A2    B1    B2
    DOCC [     4,    0,    1,    1 ]
    SOCC [     3,    0,    1,    1 ]
    NA   [     7,    0,    2,    2 ]
    NB   [     4,    0,    1,    1 ]

  @DF-UKS Final Energy:  -343.46005114694975

   => Energetics <=

    Nuclear Repulsion Energy =              4.4610584439580796
    One-Electron Energy =                -482.4565494170566353
    Two-Electron Energy =                 154.0837704436096942
    DFT Exchange-Correlation Energy =     -19.5483306174608700
    Empirical Dispersion Energy =           0.0000000000000000
    VV10 Nonlocal Energy =                  0.0000000000000000
    Total Energy =                       -343.4600511469497519

  UHF NO Occupations:
  HONO-2 :    5 A1 1.0000000
  HONO-1 :    6 A1 1.0000000
  HONO-0 :    7 A1 1.0000000
  LUNO+0 :    8 A1 0.0000005
  LUNO+1 :    3 B1 0.0000005
  LUNO+2 :    3 B2 0.0000005
  LUNO+3 :    9 A1 0.0000004

Computation Completed

Properties will be evaluated at   0.000000,   0.000000,   0.000000 [a0]

Properties computed using the SCF density matrix

 Multipole Moments:

 ------------------------------------------------------------------------------------
     Multipole            Electronic (a.u.)      Nuclear  (a.u.)        Total (a.u.)
 ------------------------------------------------------------------------------------

 L = 1.  Multiply by 2.5417464519 to convert [e a0] to [Debye]
 Dipole X            :          0.0000000            0.0000000            0.0000000
 Dipole Y            :          0.0000000            0.0000000            0.0000000
 Dipole Z            :         -0.3670929            0.3669401           -0.0001528
 Magnitude           :                                                    0.0001528

 ------------------------------------------------------------------------------------

*** tstop() called on Joses-MacBook-Pro-2.local at Wed Jul 16 18:25:24 2025
Module time:
	user time   =       2.66 seconds =       0.04 minutes
	system time =       1.79 seconds =       0.03 minutes
	total time  =          0 seconds =       0.00 minutes
Total time:
	user time   =      69.53 seconds =       1.16 minutes
	system time =      71.04 seconds =       1.18 minutes
	total time  =         13 seconds =       0.22 minutes

*** tstart() called on Joses-MacBook-Pro-2.local
*** at Wed Jul 16 18:25:24 2025

         ------------------------------------------------------------
                                   SCF GRAD
                          Rob Parrish, Justin Turney,
                       Andy Simmonett, and Alex Sokolov
         ------------------------------------------------------------

  ==> Geometry <==

    Molecular point group: c2v
    Full point group: C_inf_v

    Geometry (in Angstrom), charge = 0, multiplicity = 6:

       Center              X                  Y                   Z               Mass
    ------------   -----------------  -----------------  -----------------  -----------------
         HE           0.000000000000     0.000000000000     3.151401634388     4.002603254130
         P            0.000000000000     0.000000000000    -0.407241795088    30.973761998420

  Nuclear repulsion =    4.461058443958080

  ==> Basis Set <==

  Basis Set: CC-PVDZ
    Blend: CC-PVDZ
    Number of shells: 11
    Number of basis functions: 23
    Number of Cartesian functions: 24
    Spherical Harmonics?: true
    Max angular momentum: 2

  ==> DFJKGrad: Density-Fitted SCF Gradients <==

    Gradient:                    1
    J tasked:                  Yes
    K tasked:                  Yes
    wK tasked:                  No
    OpenMP threads:              1
    Integrals threads:           1
    Memory [MiB]:              375
    Schwarz Cutoff:          1E-12
    Fitting Condition:       1E-10

   => Auxiliary Basis Set <=

  Basis Set: (CC-PVDZ AUX)
    Blend: CC-PVDZ-JKFIT + DEF2-UNIVERSAL-JKFIT
    Number of shells: 45
    Number of basis functions: 135
    Number of Cartesian functions: 155
    Spherical Harmonics?: true
    Max angular momentum: 3

  ==> DFT Potential <==

   => LibXC <=

    Version 6.2.2
    S. Lehtola, C. Steigemann, M. J.T. Oliveira, and M. A.L. Marques.,  SoftwareX 7, 1â€“5 (2018) (10.1016/j.softx.2017.11.002)

   => Composite Functional: B3LYP <=

    B3LYP Hyb-GGA Exchange-Correlation Functional

    P. J. Stephens, F. J. Devlin, C. F. Chabalowski, and M. J. Frisch.,  J. Phys. Chem. 98, 11623 (1994) (10.1021/j100096a001)

    Deriv               =              1
    GGA                 =           TRUE
    Meta                =          FALSE

    Exchange Hybrid     =           TRUE
    MP2 Hybrid          =          FALSE

   => Exchange Functionals <=

    0.0800   Slater exchange
    0.7200         Becke 88

   => Exact (HF) Exchange <=

    0.2000               HF

   => Correlation Functionals <=

    0.1900   Vosko, Wilk & Nusair (VWN5_RPA)
    0.8100   Lee, Yang & Parr

   => LibXC Density Thresholds  <==

    XC_HYB_GGA_XC_B3LYP:  1.00E-15

   => Molecular Quadrature <=

    Radial Scheme          =       TREUTLER
    Pruning Scheme         =           NONE
    Nuclear Scheme         =       TREUTLER

    Blocking Scheme        =         OCTREE
    BS radius alpha        =              1
    Pruning alpha          =              1
    Radial Points          =             75
    Spherical Points       =            302
    Total Points           =          42825
    Total Blocks           =            390
    Max Points             =            256
    Max Functions          =             23
    Weights Tolerance      =       1.00E-15

  -Total Gradient:
     Atom            X                  Y                   Z
    ------   -----------------  -----------------  -----------------
       1        0.000000000000     0.000000000000    -0.000012698263
       2       -0.000000000000     0.000000000000     0.000012954773

*** tstop() called on Joses-MacBook-Pro-2.local at Wed Jul 16 18:25:25 2025
Module time:
	user time   =       0.60 seconds =       0.01 minutes
	system time =       1.09 seconds =       0.02 minutes
	total time  =          1 seconds =       0.02 minutes
Total time:
	user time   =      70.16 seconds =       1.17 minutes
	system time =      72.13 seconds =       1.20 minutes
	total time  =         14 seconds =       0.23 minutes

    			-----------------------------------------

    			 OPTKING 3.0: for geometry optimizations

    			     By R.A. King, Bethel University

    			        with contributions from

    			    A.V. Copan, J. Cayton, A. Heide

    			-----------------------------------------

	                            ===> Fragment 1 <==

	 Z (Atomic Numbers)          Masses                          Geom
	       2.000000             4.002603          0.00000000  0.00000000  5.95528600
	      15.000000            30.973762          0.00000000  0.00000000 -0.76957546

	 - Coordinate -           - BOHR/RAD -       - ANG/DEG -
	 R(1,2)           =         6.724861           3.558643

	        --- Internal Coordinate Step in ANG or DEG, aJ/ANG or AJ/DEG ---
	-------------------------------------------------------------------------------
	           Coordinate      Previous         Force          Change          New
	           ----------      --------        ------          ------        ------
	               R(1,2)       3.55864        0.00011        0.00495       3.56359
	-------------------------------------------------------------------------------

	                                 ==> Convergence Check <==

	Measures of convergence in internal coordinates in au.

	Criteria marked as inactive (o), active & met (*), and active & unmet ( ).

	----------------------------------------------------------------------------------------------
	   Step    Total Energy     Delta E     Max Force     RMS Force      Max Disp      RMS Disp
	----------------------------------------------------------------------------------------------
	  Convergence Criteria     1.00e-06 *    3.00e-04 *             o    1.20e-03 *             o
	----------------------------------------------------------------------------------------------
	    17    -343.46005115   -3.84e-07 *    1.28e-05 *    1.28e-05 o    9.35e-03      9.35e-03 o  ~
	----------------------------------------------------------------------------------------------

Next Geometry in Ang
	Fragment 1 (Ang)

	   He   0.0000000000   0.0000000000   3.1538755715
	    P   0.0000000000   0.0000000000  -0.4097157322

    Final optimized geometry and variables:
    Molecular point group: c2v
    Full point group: C_inf_v

    Geometry (in Angstrom), charge = 0, multiplicity = 6:

    HE           0.000000000000     0.000000000000     3.151401634388
    P            0.000000000000     0.000000000000    -0.407241795088

    Psi4 stopped on: Wednesday, 16 July 2025 06:25PM
    Psi4 wall time for execution: 0:00:14.05

*** Psi4 exiting successfully. Buy a developer a beer!
