                               Psi4 1.9.1 release

  ==> Input File <==

--------------------------------------------------------------------------
molecule {
0 6
O   0.00000        0.60000        0.00000
Cl   0.00000       -0.60000        0.00000
}

set {
basis              cc-pvdz
reference          uks
maxiter            500
geom_maxiter       500
DAMPING_PERCENTAGE 1
guess              SAP
}

optimize('b3lyp')
--------------------------------------------------------------------------

    Molecular point group: c2v
  Charge       = 0
  Multiplicity = 6
  Basis Set: CC-PVDZ
    Blend: CC-PVDZ
  Basis Set: (CC-PVDZ AUX)
    Blend: CC-PVDZ-JKFIT
  @DF-UKS Final Energy:  -533.98812590447824
    Total Energy =                       -533.9881259044782382
 Dipole X            :          0.0000000            0.0000000            0.0000000
 Dipole Y            :          0.0000000            0.0000000            0.0000000
 Dipole Z            :          0.2733826            0.3487254            0.6221080
 Magnitude           :                                                    0.6221080
    Molecular point group: c2v
  Basis Set: CC-PVDZ
    Blend: CC-PVDZ
  Basis Set: (CC-PVDZ AUX)
    Blend: CC-PVDZ-JKFIT
  Basis Set: CC-PVDZ
    Blend: CC-PVDZ
  Basis Set: (CC-PVDZ AUX)
    Blend: CC-PVDZ-JKFIT
  @DF-UKS Final Energy:  -534.14601091448014
    Total Energy =                       -534.1460109144801436
  Basis Set: CC-PVDZ
    Blend: CC-PVDZ
  Basis Set: (CC-PVDZ AUX)
    Blend: CC-PVDZ-JKFIT
  Basis Set: CC-PVDZ
    Blend: CC-PVDZ
  @DF-UKS Final Energy:  -534.25536673699810
    Total Energy =                       -534.2553667369980985
  @DF-UKS Final Energy:  -534.32419554115484
    Total Energy =                       -534.3241955411548361
  @DF-UKS Final Energy:  -534.37794096188645
    Total Energy =                       -534.3779409618864520
  @DF-UKS Final Energy:  -534.42441326158007
    Total Energy =                       -534.4244132615800709
  @DF-UKS Final Energy:  -534.45896259491906
    Total Energy =                       -534.4589625949190577
  @DF-UKS Final Energy:  -534.46286024522192
    Total Energy =                       -534.4628602452219184
  @DF-UKS Final Energy:  -534.47441581103453
    Total Energy =                       -534.4744158110345325
  @DF-UKS Final Energy:  -534.47799397422125
    Total Energy =                       -534.4779939742212491
  @DF-UKS Final Energy:  -534.47966053379662
    Total Energy =                       -534.4796605337966184
  @DF-UKS Final Energy:  -534.48036369322438
    Total Energy =                       -534.4803636932243762
  @DF-UKS Final Energy:  -534.48067000973333
    Total Energy =                       -534.4806700097333305
  @DF-UKS Final Energy:  -534.48077516827027
    Total Energy =                       -534.4807751682702701
  @DF-UKS Final Energy:  -534.48083927708808
    Total Energy =                       -534.4808392770880801
  @DF-UKS Final Energy:  -534.48087953922084
    Total Energy =                       -534.4808795392208367
  @DF-UKS Final Energy:  -534.48089920981954
    Total Energy =                       -534.4808992098195404
  @DF-UKS Final Energy:  -534.48091516258205
    Total Energy =                       -534.4809151625820505
  @DF-UKS Final Energy:  -534.48093922967257
    Total Energy =                       -534.4809392296724582
  Basis Set: (CC-PVDZ AUX)
    Blend: CC-PVDZ-JKFIT
  Basis Set: CC-PVDZ
    Blend: CC-PVDZ
  Basis Set: (CC-PVDZ AUX)
    Blend: CC-PVDZ-JKFIT
  @DF-UKS Final Energy:  -534.48100371167232
    Total Energy =                       -534.4810037116723151
  Basis Set: CC-PVDZ
    Blend: CC-PVDZ
  Basis Set: (CC-PVDZ AUX)
    Blend: CC-PVDZ-JKFIT
  Charge       = 0
  Multiplicity = 6
  Basis Set: CC-PVDZ
    Blend: CC-PVDZ
  Basis Set: (CC-PVDZ AUX)
    Blend: CC-PVDZ-JKFIT

    Orbital Energies [Eh]
    ---------------------

    Alpha Occupied:

       1A1  -101.628268     2A1   -19.276789     3A1    -9.564014
       4A1    -7.332610     1B2    -7.329280     1B1    -7.308182
       5A1    -1.007600     6A1    -0.934916     7A1    -0.471464
       2B2    -0.466214     8A1    -0.445830     2B1    -0.445565
       3B1    -0.415246     3B2    -0.368781     4B2     0.377476

    Alpha Virtual:

       9A1     0.447203     4B1     0.480780    10A1     0.503145
      11A1     0.572348     5B2     0.572593     5B1     0.602446
       1A2     0.616484    12A1     0.625234     6B1     0.814256
      13A1     0.815096     6B2     0.862081    14A1     1.068460
       7B1     2.437536    15A1     2.437593     7B2     2.496006
       2A2     2.496192    16A1     2.516849

    Beta Occupied:

       1A1  -101.607378     2A1   -19.226963     3A1    -9.543684
       4A1    -7.301963     1B1    -7.296106     1B2    -7.280749
       5A1    -0.849384     6A1    -0.812828     2B1    -0.377602
       2B2    -0.317297

    Beta Virtual:

       7A1    -0.284966     3B2    -0.252621     8A1    -0.164554
       3B1    -0.164062     4B1     0.506600     9A1     0.511157
       4B2     0.542614    10A1     0.572226     5B1     0.669523
      11A1     0.674966     1A2     0.693215     5B2     0.705459
      12A1     0.712150     6B2     0.891933     6B1     0.928410
      13A1     0.928971    14A1     1.150162     7B2     2.586877
       2A2     2.587078    15A1     2.594344     7B1     2.611222
      16A1     2.611271

    Final Occupation by Irrep:
             A1    A2    B1    B2
    DOCC [     6,    0,    2,    2 ]
    SOCC [     2,    0,    1,    2 ]
    NA   [     8,    0,    3,    4 ]
    NB   [     6,    0,    2,    2 ]

  @DF-UKS Final Energy:  -534.48116060614871

   => Energetics <=

    Nuclear Repulsion Energy =             16.4945416597673997
    One-Electron Energy =                -769.6582150792833090
    Two-Electron Energy =                 248.2419769093731929
    DFT Exchange-Correlation Energy =     -29.5594640960059607
    Empirical Dispersion Energy =           0.0000000000000000
    VV10 Nonlocal Energy =                  0.0000000000000000
    Total Energy =                       -534.4811606061487055

  UHF NO Occupations:
  HONO-2 :    8 A1 1.0000000
  HONO-1 :    4 B2 1.0000000
  HONO-0 :    3 B1 1.0000000
  LUNO+0 :    9 A1 0.0012445
  LUNO+1 :   10 A1 0.0007060
  LUNO+2 :    5 B2 0.0002398
  LUNO+3 :    4 B1 0.0001175

Computation Completed

Properties will be evaluated at   0.000000,   0.000000,   0.000000 [a0]

Properties computed using the SCF density matrix

 Multipole Moments:

 ------------------------------------------------------------------------------------
     Multipole            Electronic (a.u.)      Nuclear  (a.u.)        Total (a.u.)
 ------------------------------------------------------------------------------------

 L = 1.  Multiply by 2.5417464519 to convert [e a0] to [Debye]
 Dipole X            :          0.0000000            0.0000000            0.0000000
 Dipole Y            :          0.0000000            0.0000000            0.0000000
 Dipole Z            :         -1.2659464            1.2679499            0.0020035
 Magnitude           :                                                    0.0020035

 ------------------------------------------------------------------------------------

*** tstop() called on Joses-MacBook-Pro-2.local at Wed Jul 16 19:24:04 2025
Module time:
	user time   =       2.78 seconds =       0.05 minutes
	system time =       3.99 seconds =       0.07 minutes
	total time  =          1 seconds =       0.02 minutes
Total time:
	user time   =     108.68 seconds =       1.81 minutes
	system time =     112.55 seconds =       1.88 minutes
	total time  =         21 seconds =       0.35 minutes

*** tstart() called on Joses-MacBook-Pro-2.local
*** at Wed Jul 16 19:24:04 2025

         ------------------------------------------------------------
                                   SCF GRAD
                          Rob Parrish, Justin Turney,
                       Andy Simmonett, and Alex Sokolov
         ------------------------------------------------------------

  ==> Geometry <==

    Molecular point group: c2v
    Full point group: C_inf_v

    Geometry (in Angstrom), charge = 0, multiplicity = 6:

       Center              X                  Y                   Z               Mass
    ------------   -----------------  -----------------  -----------------  -----------------
         O            0.000000000000     0.000000000000     2.993778384489    15.994914619570
         CL           0.000000000000     0.000000000000    -1.369368051199    34.968852682000

  Nuclear repulsion =   16.494541659767400

  ==> Basis Set <==

  Basis Set: CC-PVDZ
    Blend: CC-PVDZ
    Number of shells: 14
    Number of basis functions: 32
    Number of Cartesian functions: 34
    Spherical Harmonics?: true
    Max angular momentum: 2

  ==> DFJKGrad: Density-Fitted SCF Gradients <==

    Gradient:                    1
    J tasked:                  Yes
    K tasked:                  Yes
    wK tasked:                  No
    OpenMP threads:              1
    Integrals threads:           1
    Memory [MiB]:              375
    Schwarz Cutoff:          1E-12
    Fitting Condition:       1E-10

   => Auxiliary Basis Set <=

  Basis Set: (CC-PVDZ AUX)
    Blend: CC-PVDZ-JKFIT
    Number of shells: 60
    Number of basis functions: 182
    Number of Cartesian functions: 211
    Spherical Harmonics?: true
    Max angular momentum: 3

  ==> DFT Potential <==

   => LibXC <=

    Version 6.2.2
    S. Lehtola, C. Steigemann, M. J.T. Oliveira, and M. A.L. Marques.,  SoftwareX 7, 1â€“5 (2018) (10.1016/j.softx.2017.11.002)

   => Composite Functional: B3LYP <=

    B3LYP Hyb-GGA Exchange-Correlation Functional

    P. J. Stephens, F. J. Devlin, C. F. Chabalowski, and M. J. Frisch.,  J. Phys. Chem. 98, 11623 (1994) (10.1021/j100096a001)

    Deriv               =              1
    GGA                 =           TRUE
    Meta                =          FALSE

    Exchange Hybrid     =           TRUE
    MP2 Hybrid          =          FALSE

   => Exchange Functionals <=

    0.0800   Slater exchange
    0.7200         Becke 88

   => Exact (HF) Exchange <=

    0.2000               HF

   => Correlation Functionals <=

    0.1900   Vosko, Wilk & Nusair (VWN5_RPA)
    0.8100   Lee, Yang & Parr

   => LibXC Density Thresholds  <==

    XC_HYB_GGA_XC_B3LYP:  1.00E-15

   => Molecular Quadrature <=

    Radial Scheme          =       TREUTLER
    Pruning Scheme         =           NONE
    Nuclear Scheme         =       TREUTLER

    Blocking Scheme        =         OCTREE
    BS radius alpha        =              1
    Pruning alpha          =              1
    Radial Points          =             75
    Spherical Points       =            302
    Total Points           =          41571
    Total Blocks           =            409
    Max Points             =            256
    Max Functions          =             32
    Weights Tolerance      =       1.00E-15

  -Total Gradient:
     Atom            X                  Y                   Z
    ------   -----------------  -----------------  -----------------
       1        0.000000000000    -0.000000000000    -0.000115740403
       2        0.000000000000     0.000000000000     0.000134604589

*** tstop() called on Joses-MacBook-Pro-2.local at Wed Jul 16 19:24:04 2025
Module time:
	user time   =       0.78 seconds =       0.01 minutes
	system time =       1.19 seconds =       0.02 minutes
	total time  =          0 seconds =       0.00 minutes
Total time:
	user time   =     109.46 seconds =       1.82 minutes
	system time =     113.74 seconds =       1.90 minutes
	total time  =         21 seconds =       0.35 minutes

    			-----------------------------------------

    			 OPTKING 3.0: for geometry optimizations

    			     By R.A. King, Bethel University

    			        with contributions from

    			    A.V. Copan, J. Cayton, A. Heide

    			-----------------------------------------

	                            ===> Fragment 1 <==

	 Z (Atomic Numbers)          Masses                          Geom
	       8.000000            15.994915          0.00000000  0.00000000  5.65742123
	      17.000000            34.968853          0.00000000  0.00000000 -2.58773058

	 - Coordinate -           - BOHR/RAD -       - ANG/DEG -
	 R(1,2)           =         8.245152           4.363146

	        --- Internal Coordinate Step in ANG or DEG, aJ/ANG or AJ/DEG ---
	-------------------------------------------------------------------------------
	           Coordinate      Previous         Force          Change          New
	           ----------      --------        ------          ------        ------
	               R(1,2)       4.36315        0.00103        0.00042       4.36356
	-------------------------------------------------------------------------------

	                                 ==> Convergence Check <==

	Measures of convergence in internal coordinates in au.

	Criteria marked as inactive (o), active & met (*), and active & unmet ( ).

	----------------------------------------------------------------------------------------------
	   Step    Total Energy     Delta E     Max Force     RMS Force      Max Disp      RMS Disp
	----------------------------------------------------------------------------------------------
	  Convergence Criteria     1.00e-06 *    3.00e-04 *             o    1.20e-03 *             o
	----------------------------------------------------------------------------------------------
	    21    -534.48116061   -1.57e-04      1.25e-04 *    1.25e-04 o    7.88e-04 *    7.88e-04 o  ~
	----------------------------------------------------------------------------------------------

Next Geometry in Ang
	Fragment 1 (Ang)

	    O   0.0000000000   0.0000000000   2.9939868989
	   Cl   0.0000000000   0.0000000000  -1.3695765656

    Final optimized geometry and variables:
    Molecular point group: c2v
    Full point group: C_inf_v

    Geometry (in Angstrom), charge = 0, multiplicity = 6:

    O            0.000000000000     0.000000000000     2.993778384489
    CL           0.000000000000     0.000000000000    -1.369368051199

    Psi4 stopped on: Wednesday, 16 July 2025 07:24PM
    Psi4 wall time for execution: 0:00:22.08

*** Psi4 exiting successfully. Buy a developer a beer!
