                               Psi4 1.9.1 release

  ==> Input File <==

--------------------------------------------------------------------------
molecule {
0 6
O   0.00000        0.60000        0.00000
Na   0.00000       -0.60000        0.00000
}

set {
basis              cc-pvdz
reference          uks
maxiter            500
geom_maxiter       500
DAMPING_PERCENTAGE 1
guess              SAP
}

optimize('b3lyp')
--------------------------------------------------------------------------

    Molecular point group: c2v
  Charge       = 0
  Multiplicity = 6
  Basis Set: CC-PVDZ
    Blend: CC-PVDZ
  Basis Set: (CC-PVDZ AUX)
    Blend: CC-PVDZ-JKFIT + DEF2-UNIVERSAL-JKFIT
  @DF-UKS Final Energy:  -236.41042054909613
    Total Energy =                       -236.4104205490961306
 Dipole X            :          0.0000000            0.0000000            0.0000000
 Dipole Y            :          0.0000000            0.0000000            0.0000000
 Dipole Z            :          0.6074271            0.4638392            1.0712662
 Magnitude           :                                                    1.0712662
    Molecular point group: c2v
  Basis Set: CC-PVDZ
    Blend: CC-PVDZ
  Basis Set: (CC-PVDZ AUX)
    Blend: CC-PVDZ-JKFIT + DEF2-UNIVERSAL-JKFIT
  Basis Set: CC-PVDZ
    Blend: CC-PVDZ
  Basis Set: (CC-PVDZ AUX)
    Blend: CC-PVDZ-JKFIT + DEF2-UNIVERSAL-JKFIT
  @DF-UKS Final Energy:  -236.61830318828228
    Total Energy =                       -236.6183031882822831
  Basis Set: CC-PVDZ
    Blend: CC-PVDZ
  Basis Set: (CC-PVDZ AUX)
    Blend: CC-PVDZ-JKFIT + DEF2-UNIVERSAL-JKFIT
  Basis Set: CC-PVDZ
    Blend: CC-PVDZ
  @DF-UKS Final Energy:  -236.75721848491736
    Total Energy =                       -236.7572184849173595
  @DF-UKS Final Energy:  -236.84136047738099
    Total Energy =                       -236.8413604773809880
  @DF-UKS Final Energy:  -236.89102441079615
    Total Energy =                       -236.8910244107961489
  @DF-UKS Final Energy:  -236.92204191077502
    Total Energy =                       -236.9220419107750217
  @DF-UKS Final Energy:  -236.94330743532799
    Total Energy =                       -236.9433074353279949
  @DF-UKS Final Energy:  -236.95779332890683
    Total Energy =                       -236.9577933289068312
  @DF-UKS Final Energy:  -236.96585048709193
    Total Energy =                       -236.9658504870919273
  @DF-UKS Final Energy:  -236.96887540962041
    Total Energy =                       -236.9688754096204093
  @DF-UKS Final Energy:  -236.96947600942678
    Total Energy =                       -236.9694760094267849
  Basis Set: (CC-PVDZ AUX)
    Blend: CC-PVDZ-JKFIT + DEF2-UNIVERSAL-JKFIT
  Basis Set: CC-PVDZ
    Blend: CC-PVDZ
  Basis Set: (CC-PVDZ AUX)
    Blend: CC-PVDZ-JKFIT + DEF2-UNIVERSAL-JKFIT
  @DF-UKS Final Energy:  -236.96951460641503
    Total Energy =                       -236.9695146064150322
  Basis Set: CC-PVDZ
    Blend: CC-PVDZ
  Basis Set: (CC-PVDZ AUX)
    Blend: CC-PVDZ-JKFIT + DEF2-UNIVERSAL-JKFIT
  Charge       = 0
  Multiplicity = 6
  Basis Set: CC-PVDZ
    Blend: CC-PVDZ
  Basis Set: (CC-PVDZ AUX)
    Blend: CC-PVDZ-JKFIT + DEF2-UNIVERSAL-JKFIT

    Orbital Energies [Eh]
    ---------------------

    Alpha Occupied:

       1A1   -38.473067     2A1   -19.804712     3A1    -2.220374
       4A1    -1.454914     5A1    -1.152873     1B2    -1.151554
       1B1    -1.149958     6A1    -0.862956     2B2    -0.862456
       2B1    -0.861817     7A1    -0.151184     3B1    -0.063519

    Alpha Virtual:

       8A1    -0.035200     3B2    -0.025450     9A1     0.020222
       4B1     0.063247    10A1     0.071992     4B2     0.075295
       5B1     0.144231     5B2     0.153316    11A1     0.159516
       1A2     0.161155    12A1     0.170239     6B2     0.550423
       6B1     0.551723    13A1     0.597563    14A1     0.952406
      15A1     2.047313     2A2     2.047461     7B2     2.050365
       7B1     2.051182    16A1     2.054940

    Beta Occupied:

       1A1   -38.471446     2A1   -19.719447     3A1    -2.217387
       4A1    -1.202359     5A1    -1.150613     1B2    -1.149914
       1B1    -1.146816

    Beta Virtual:

       6A1    -0.525367     2B2    -0.525051     2B1    -0.523534
       7A1    -0.070420     8A1    -0.020013     3B2     0.001124
       3B1     0.008197     9A1     0.056509    10A1     0.084681
       4B2     0.091696     4B1     0.100702     5B2     0.171563
       5B1     0.181963    11A1     0.185794     1A2     0.198796
      12A1     0.203276     6B2     0.656096     6B1     0.658815
      13A1     0.704227    14A1     1.062518    15A1     2.235789
       2A2     2.235910     7B2     2.238501     7B1     2.239512
      16A1     2.242898

    Final Occupation by Irrep:
             A1    A2    B1    B2
    DOCC [     5,    0,    1,    1 ]
    SOCC [     2,    0,    2,    1 ]
    NA   [     7,    0,    3,    2 ]
    NB   [     5,    0,    1,    1 ]

  @DF-UKS Final Energy:  -236.96951496066754

   => Energetics <=

    Nuclear Repulsion Energy =             14.8255914955364680
    One-Electron Energy =                -357.2470223367434983
    Two-Electron Energy =                 123.7137590417414685
    DFT Exchange-Correlation Energy =     -18.2618431612019556
    Empirical Dispersion Energy =           0.0000000000000000
    VV10 Nonlocal Energy =                  0.0000000000000000
    Total Energy =                       -236.9695149606675386

  UHF NO Occupations:
  HONO-2 :    2 B2 1.0000000
  HONO-1 :    7 A1 1.0000000
  HONO-0 :    3 B1 1.0000000
  LUNO+0 :    8 A1 0.0009603
  LUNO+1 :    9 A1 0.0000007
  LUNO+2 :    4 B1 0.0000005
  LUNO+3 :    3 B2 0.0000004

Computation Completed

Properties will be evaluated at   0.000000,   0.000000,   0.000000 [a0]

Properties computed using the SCF density matrix

 Multipole Moments:

 ------------------------------------------------------------------------------------
     Multipole            Electronic (a.u.)      Nuclear  (a.u.)        Total (a.u.)
 ------------------------------------------------------------------------------------

 L = 1.  Multiply by 2.5417464519 to convert [e a0] to [Debye]
 Dipole X            :          0.0000000            0.0000000            0.0000000
 Dipole Y            :          0.0000000            0.0000000            0.0000000
 Dipole Z            :          2.1090815            1.2141097            3.3231913
 Magnitude           :                                                    3.3231913

 ------------------------------------------------------------------------------------

*** tstop() called on Joses-MacBook-Pro-2.local at Wed Jul 16 19:19:28 2025
Module time:
	user time   =       3.78 seconds =       0.06 minutes
	system time =       4.80 seconds =       0.08 minutes
	total time  =          1 seconds =       0.02 minutes
Total time:
	user time   =      77.22 seconds =       1.29 minutes
	system time =      55.45 seconds =       0.92 minutes
	total time  =         14 seconds =       0.23 minutes

*** tstart() called on Joses-MacBook-Pro-2.local
*** at Wed Jul 16 19:19:28 2025

         ------------------------------------------------------------
                                   SCF GRAD
                          Rob Parrish, Justin Turney,
                       Andy Simmonett, and Alex Sokolov
         ------------------------------------------------------------

  ==> Geometry <==

    Molecular point group: c2v
    Full point group: C_inf_v

    Geometry (in Angstrom), charge = 0, multiplicity = 6:

       Center              X                  Y                   Z               Mass
    ------------   -----------------  -----------------  -----------------  -----------------
         O            0.000000000000     0.000000000000     1.852304454677    15.994914619570
         NA           0.000000000000     0.000000000000    -1.288723311600    22.989769282000

  Nuclear repulsion =   14.825591495536468

  ==> Basis Set <==

  Basis Set: CC-PVDZ
    Blend: CC-PVDZ
    Number of shells: 14
    Number of basis functions: 32
    Number of Cartesian functions: 34
    Spherical Harmonics?: true
    Max angular momentum: 2

  ==> DFJKGrad: Density-Fitted SCF Gradients <==

    Gradient:                    1
    J tasked:                  Yes
    K tasked:                  Yes
    wK tasked:                  No
    OpenMP threads:              1
    Integrals threads:           1
    Memory [MiB]:              375
    Schwarz Cutoff:          1E-12
    Fitting Condition:       1E-10

   => Auxiliary Basis Set <=

  Basis Set: (CC-PVDZ AUX)
    Blend: CC-PVDZ-JKFIT + DEF2-UNIVERSAL-JKFIT
    Number of shells: 58
    Number of basis functions: 182
    Number of Cartesian functions: 218
    Spherical Harmonics?: true
    Max angular momentum: 4

  ==> DFT Potential <==

   => LibXC <=

    Version 6.2.2
    S. Lehtola, C. Steigemann, M. J.T. Oliveira, and M. A.L. Marques.,  SoftwareX 7, 1â€“5 (2018) (10.1016/j.softx.2017.11.002)

   => Composite Functional: B3LYP <=

    B3LYP Hyb-GGA Exchange-Correlation Functional

    P. J. Stephens, F. J. Devlin, C. F. Chabalowski, and M. J. Frisch.,  J. Phys. Chem. 98, 11623 (1994) (10.1021/j100096a001)

    Deriv               =              1
    GGA                 =           TRUE
    Meta                =          FALSE

    Exchange Hybrid     =           TRUE
    MP2 Hybrid          =          FALSE

   => Exchange Functionals <=

    0.0800   Slater exchange
    0.7200         Becke 88

   => Exact (HF) Exchange <=

    0.2000               HF

   => Correlation Functionals <=

    0.1900   Vosko, Wilk & Nusair (VWN5_RPA)
    0.8100   Lee, Yang & Parr

   => LibXC Density Thresholds  <==

    XC_HYB_GGA_XC_B3LYP:  1.00E-15

   => Molecular Quadrature <=

    Radial Scheme          =       TREUTLER
    Pruning Scheme         =           NONE
    Nuclear Scheme         =       TREUTLER

    Blocking Scheme        =         OCTREE
    BS radius alpha        =              1
    Pruning alpha          =              1
    Radial Points          =             75
    Spherical Points       =            302
    Total Points           =          43868
    Total Blocks           =            430
    Max Points             =            255
    Max Functions          =             32
    Weights Tolerance      =       1.00E-15

  -Total Gradient:
     Atom            X                  Y                   Z
    ------   -----------------  -----------------  -----------------
       1       -0.000000000000    -0.000000000000    -0.000009687569
       2        0.000000000000    -0.000000000000     0.000016203670

*** tstop() called on Joses-MacBook-Pro-2.local at Wed Jul 16 19:19:28 2025
Module time:
	user time   =       0.64 seconds =       0.01 minutes
	system time =       1.80 seconds =       0.03 minutes
	total time  =          0 seconds =       0.00 minutes
Total time:
	user time   =      77.86 seconds =       1.30 minutes
	system time =      57.25 seconds =       0.95 minutes
	total time  =         14 seconds =       0.23 minutes

    			-----------------------------------------

    			 OPTKING 3.0: for geometry optimizations

    			     By R.A. King, Bethel University

    			        with contributions from

    			    A.V. Copan, J. Cayton, A. Heide

    			-----------------------------------------

	                            ===> Fragment 1 <==

	 Z (Atomic Numbers)          Masses                          Geom
	       8.000000            15.994915          0.00000000  0.00000000  3.50034812
	      11.000000            22.989769          0.00000000  0.00000000 -2.43533411

	 - Coordinate -           - BOHR/RAD -       - ANG/DEG -
	 R(1,2)           =         5.935682           3.141028

	        --- Internal Coordinate Step in ANG or DEG, aJ/ANG or AJ/DEG ---
	-------------------------------------------------------------------------------
	           Coordinate      Previous         Force          Change          New
	           ----------      --------        ------          ------        ------
	               R(1,2)       3.14103        0.00011        0.00052       3.14155
	-------------------------------------------------------------------------------

	                                 ==> Convergence Check <==

	Measures of convergence in internal coordinates in au.

	Criteria marked as inactive (o), active & met (*), and active & unmet ( ).

	----------------------------------------------------------------------------------------------
	   Step    Total Energy     Delta E     Max Force     RMS Force      Max Disp      RMS Disp
	----------------------------------------------------------------------------------------------
	  Convergence Criteria     1.00e-06 *    3.00e-04 *             o    1.20e-03 *             o
	----------------------------------------------------------------------------------------------
	    13    -236.96951496   -3.54e-07 *    1.29e-05 *    1.29e-05 o    9.80e-04 *    9.80e-04 o  ~
	----------------------------------------------------------------------------------------------

Next Geometry in Ang
	Fragment 1 (Ang)

	    O   0.0000000000   0.0000000000   1.8525638826
	   Na   0.0000000000   0.0000000000  -1.2889827395

    Final optimized geometry and variables:
    Molecular point group: c2v
    Full point group: C_inf_v

    Geometry (in Angstrom), charge = 0, multiplicity = 6:

    O            0.000000000000     0.000000000000     1.852304454677
    NA           0.000000000000     0.000000000000    -1.288723311600

    Psi4 stopped on: Wednesday, 16 July 2025 07:19PM
    Psi4 wall time for execution: 0:00:15.55

*** Psi4 exiting successfully. Buy a developer a beer!
