                               Psi4 1.9.1 release

  ==> Input File <==

--------------------------------------------------------------------------
molecule {
0 6
Al   0.00000        0.60000        0.00000
Si   0.00000       -0.60000        0.00000
}

set {
basis              cc-pvdz
reference          uks
maxiter            500
geom_maxiter       500
DAMPING_PERCENTAGE 1
guess              SAP
}

optimize('b3lyp')
--------------------------------------------------------------------------

    Molecular point group: c2v
  Charge       = 0
  Multiplicity = 6
  Basis Set: CC-PVDZ
    Blend: CC-PVDZ
  Basis Set: (CC-PVDZ AUX)
    Blend: CC-PVDZ-JKFIT
  @DF-UKS Final Energy:  -530.46999320251939
    Total Energy =                       -530.4699932025193903
 Dipole X            :          0.0000000            0.0000000            0.0000000
 Dipole Y            :          0.0000000            0.0000000            0.0000000
 Dipole Z            :         -0.3447556           -0.5793738           -0.9241294
 Magnitude           :                                                    0.9241294
    Molecular point group: c2v
  Basis Set: CC-PVDZ
    Blend: CC-PVDZ
  Basis Set: (CC-PVDZ AUX)
    Blend: CC-PVDZ-JKFIT
  Basis Set: CC-PVDZ
    Blend: CC-PVDZ
  Basis Set: (CC-PVDZ AUX)
    Blend: CC-PVDZ-JKFIT
  @DF-UKS Final Energy:  -530.48850153468572
    Total Energy =                       -530.4885015346857244
  Basis Set: CC-PVDZ
    Blend: CC-PVDZ
  Basis Set: (CC-PVDZ AUX)
    Blend: CC-PVDZ-JKFIT
  Basis Set: CC-PVDZ
    Blend: CC-PVDZ
  @DF-UKS Final Energy:  -530.52426107878046
    Total Energy =                       -530.5242610787804551
  @DF-UKS Final Energy:  -530.65411304738507
    Total Energy =                       -530.6541130473850671
  @DF-UKS Final Energy:  -531.20538841539553
    Total Energy =                       -531.2053884153955323
  @DF-UKS Final Energy:  -531.48212833683738
    Total Energy =                       -531.4821283368373770
  @DF-UKS Final Energy:  -531.61535431024788
    Total Energy =                       -531.6153543102478807
  @DF-UKS Final Energy:  -531.67366080419981
    Total Energy =                       -531.6736608041998124
  @DF-UKS Final Energy:  -531.69780813169041
    Total Energy =                       -531.6978081316904081
  @DF-UKS Final Energy:  -531.70613066957117
    Total Energy =                       -531.7061306695711664
  @DF-UKS Final Energy:  -531.70817258444038
    Total Energy =                       -531.7081725844403763
  @DF-UKS Final Energy:  -531.70841342543304
    Total Energy =                       -531.7084134254330365
  @DF-UKS Final Energy:  -531.70844471696535
    Total Energy =                       -531.7084447169653458
  Basis Set: (CC-PVDZ AUX)
    Blend: CC-PVDZ-JKFIT
  Basis Set: CC-PVDZ
    Blend: CC-PVDZ
  Basis Set: (CC-PVDZ AUX)
    Blend: CC-PVDZ-JKFIT
  @DF-UKS Final Energy:  -531.70844900081659
    Total Energy =                       -531.7084490008165858
  Basis Set: CC-PVDZ
    Blend: CC-PVDZ
  Basis Set: (CC-PVDZ AUX)
    Blend: CC-PVDZ-JKFIT
  Charge       = 0
  Multiplicity = 6
  Basis Set: CC-PVDZ
    Blend: CC-PVDZ
  Basis Set: (CC-PVDZ AUX)
    Blend: CC-PVDZ-JKFIT

    Orbital Energies [Eh]
    ---------------------

    Alpha Occupied:

       1A1   -66.161703     2A1   -56.112703     3A1    -5.307027
       4A1    -4.193223     1B1    -3.667060     5A1    -3.666362
       1B2    -3.665743     2B1    -2.747812     6A1    -2.745770
       2B2    -2.744802     7A1    -0.504036     8A1    -0.357807
       9A1    -0.225701     3B2    -0.221455     3B1    -0.216449
       4B2    -0.131932

    Alpha Virtual:

       4B1    -0.084239    10A1     0.013257    11A1     0.122160
      12A1     0.170779     5B2     0.175349     5B1     0.176594
       6B2     0.213568     1A2     0.214197    13A1     0.216770
       6B1     0.218140    14A1     0.234301     7B1     0.313892
       7B2     0.314386     2A2     0.349232    15A1     0.349938
      16A1     0.368636    17A1     0.459985     8B2     0.485522
       8B1     0.486130    18A1     0.715500

    Beta Occupied:

       1A1   -66.152821     2A1   -56.105147     3A1    -5.296305
       4A1    -4.182352     1B1    -3.654379     5A1    -3.653661
       1B2    -3.650296     2B1    -2.739776     6A1    -2.735343
       2B2    -2.731063     7A1    -0.413194

    Beta Virtual:

       8A1    -0.215421     3B1    -0.110252     9A1    -0.097469
       3B2    -0.095841     4B1    -0.019645     4B2    -0.000700
      10A1     0.060197    11A1     0.161751     5B1     0.213070
      12A1     0.218999     5B2     0.228072     6B1     0.275539
      13A1     0.281674     1A2     0.287960    14A1     0.292449
       6B2     0.293884     7B1     0.352422     7B2     0.362284
      15A1     0.409803     2A2     0.430018    16A1     0.430376
      17A1     0.512073     8B1     0.549368     8B2     0.563397
      18A1     0.768572

    Final Occupation by Irrep:
             A1    A2    B1    B2
    DOCC [     7,    0,    2,    2 ]
    SOCC [     2,    0,    1,    2 ]
    NA   [     9,    0,    3,    4 ]
    NB   [     7,    0,    2,    2 ]

  @DF-UKS Final Energy:  -531.70844966976597

   => Energetics <=

    Nuclear Repulsion Energy =             39.3228306468748201
    One-Electron Energy =                -815.4118144047143915
    Two-Electron Energy =                 276.1849519384805944
    DFT Exchange-Correlation Energy =     -31.8044178504070842
    Empirical Dispersion Energy =           0.0000000000000000
    VV10 Nonlocal Energy =                  0.0000000000000000
    Total Energy =                       -531.7084496697659688

  UHF NO Occupations:
  HONO-2 :    8 A1 1.0000000
  HONO-1 :    4 B2 1.0000000
  HONO-0 :    9 A1 1.0000000
  LUNO+0 :   10 A1 0.0002811
  LUNO+1 :    4 B1 0.0000007
  LUNO+2 :   11 A1 0.0000004
  LUNO+3 :    5 B2 0.0000002

Computation Completed

Properties will be evaluated at   0.000000,   0.000000,   0.000000 [a0]

Properties computed using the SCF density matrix

 Multipole Moments:

 ------------------------------------------------------------------------------------
     Multipole            Electronic (a.u.)      Nuclear  (a.u.)        Total (a.u.)
 ------------------------------------------------------------------------------------

 L = 1.  Multiply by 2.5417464519 to convert [e a0] to [Debye]
 Dipole X            :          0.0000000            0.0000000            0.0000000
 Dipole Y            :          0.0000000            0.0000000            0.0000000
 Dipole Z            :          1.3389346           -1.1825114            0.1564231
 Magnitude           :                                                    0.1564231

 ------------------------------------------------------------------------------------

*** tstop() called on Joses-MacBook-Pro-2.local at Wed Jul 16 20:06:56 2025
Module time:
	user time   =       6.72 seconds =       0.11 minutes
	system time =       2.53 seconds =       0.04 minutes
	total time  =          1 seconds =       0.02 minutes
Total time:
	user time   =     198.92 seconds =       3.32 minutes
	system time =      47.87 seconds =       0.80 minutes
	total time  =         24 seconds =       0.40 minutes

*** tstart() called on Joses-MacBook-Pro-2.local
*** at Wed Jul 16 20:06:56 2025

         ------------------------------------------------------------
                                   SCF GRAD
                          Rob Parrish, Justin Turney,
                       Andy Simmonett, and Alex Sokolov
         ------------------------------------------------------------

  ==> Geometry <==

    Molecular point group: c2v
    Full point group: C_inf_v

    Geometry (in Angstrom), charge = 0, multiplicity = 6:

       Center              X                  Y                   Z               Mass
    ------------   -----------------  -----------------  -----------------  -----------------
         AL           0.000000000000     0.000000000000     1.246789555471    26.981538530000
         SI           0.000000000000     0.000000000000    -1.202430166447    27.976926534650

  Nuclear repulsion =   39.322830646874820

  ==> Basis Set <==

  Basis Set: CC-PVDZ
    Blend: CC-PVDZ
    Number of shells: 16
    Number of basis functions: 36
    Number of Cartesian functions: 38
    Spherical Harmonics?: true
    Max angular momentum: 2

  ==> DFJKGrad: Density-Fitted SCF Gradients <==

    Gradient:                    1
    J tasked:                  Yes
    K tasked:                  Yes
    wK tasked:                  No
    OpenMP threads:              1
    Integrals threads:           1
    Memory [MiB]:              375
    Schwarz Cutoff:          1E-12
    Fitting Condition:       1E-10

   => Auxiliary Basis Set <=

  Basis Set: (CC-PVDZ AUX)
    Blend: CC-PVDZ-JKFIT
    Number of shells: 72
    Number of basis functions: 224
    Number of Cartesian functions: 260
    Spherical Harmonics?: true
    Max angular momentum: 3

  ==> DFT Potential <==

   => LibXC <=

    Version 6.2.2
    S. Lehtola, C. Steigemann, M. J.T. Oliveira, and M. A.L. Marques.,  SoftwareX 7, 1â€“5 (2018) (10.1016/j.softx.2017.11.002)

   => Composite Functional: B3LYP <=

    B3LYP Hyb-GGA Exchange-Correlation Functional

    P. J. Stephens, F. J. Devlin, C. F. Chabalowski, and M. J. Frisch.,  J. Phys. Chem. 98, 11623 (1994) (10.1021/j100096a001)

    Deriv               =              1
    GGA                 =           TRUE
    Meta                =          FALSE

    Exchange Hybrid     =           TRUE
    MP2 Hybrid          =          FALSE

   => Exchange Functionals <=

    0.0800   Slater exchange
    0.7200         Becke 88

   => Exact (HF) Exchange <=

    0.2000               HF

   => Correlation Functionals <=

    0.1900   Vosko, Wilk & Nusair (VWN5_RPA)
    0.8100   Lee, Yang & Parr

   => LibXC Density Thresholds  <==

    XC_HYB_GGA_XC_B3LYP:  1.00E-15

   => Molecular Quadrature <=

    Radial Scheme          =       TREUTLER
    Pruning Scheme         =           NONE
    Nuclear Scheme         =       TREUTLER

    Blocking Scheme        =         OCTREE
    BS radius alpha        =              1
    Pruning alpha          =              1
    Radial Points          =             75
    Spherical Points       =            302
    Total Points           =          42411
    Total Blocks           =            400
    Max Points             =            255
    Max Functions          =             36
    Weights Tolerance      =       1.00E-15

  -Total Gradient:
     Atom            X                  Y                   Z
    ------   -----------------  -----------------  -----------------
       1       -0.000000000000     0.000000000000    -0.000066325440
       2        0.000000000000    -0.000000000000     0.000069742377

*** tstop() called on Joses-MacBook-Pro-2.local at Wed Jul 16 20:06:57 2025
Module time:
	user time   =       3.65 seconds =       0.06 minutes
	system time =       1.47 seconds =       0.02 minutes
	total time  =          1 seconds =       0.02 minutes
Total time:
	user time   =     202.57 seconds =       3.38 minutes
	system time =      49.36 seconds =       0.82 minutes
	total time  =         25 seconds =       0.42 minutes

    			-----------------------------------------

    			 OPTKING 3.0: for geometry optimizations

    			     By R.A. King, Bethel University

    			        with contributions from

    			    A.V. Copan, J. Cayton, A. Heide

    			-----------------------------------------

	                            ===> Fragment 1 <==

	 Z (Atomic Numbers)          Masses                          Geom
	      13.000000            26.981539          0.00000000  0.00000000  2.35609080
	      14.000000            27.976927          0.00000000  0.00000000 -2.27226370

	 - Coordinate -           - BOHR/RAD -       - ANG/DEG -
	 R(1,2)           =         4.628354           2.449220

	        --- Internal Coordinate Step in ANG or DEG, aJ/ANG or AJ/DEG ---
	-------------------------------------------------------------------------------
	           Coordinate      Previous         Force          Change          New
	           ----------      --------        ------          ------        ------
	               R(1,2)       2.44922        0.00056        0.00045       2.44967
	-------------------------------------------------------------------------------

	                                 ==> Convergence Check <==

	Measures of convergence in internal coordinates in au.

	Criteria marked as inactive (o), active & met (*), and active & unmet ( ).

	----------------------------------------------------------------------------------------------
	   Step    Total Energy     Delta E     Max Force     RMS Force      Max Disp      RMS Disp
	----------------------------------------------------------------------------------------------
	  Convergence Criteria     1.00e-06 *    3.00e-04 *             o    1.20e-03 *             o
	----------------------------------------------------------------------------------------------
	    15    -531.70844967   -6.69e-07 *    6.80e-05 *    6.80e-05 o    8.45e-04 *    8.45e-04 o  ~
	----------------------------------------------------------------------------------------------

Next Geometry in Ang
	Fragment 1 (Ang)

	   Al   0.0000000000   0.0000000000   1.2470130115
	   Si   0.0000000000   0.0000000000  -1.2026536225

    Final optimized geometry and variables:
    Molecular point group: c2v
    Full point group: C_inf_v

    Geometry (in Angstrom), charge = 0, multiplicity = 6:

    AL           0.000000000000     0.000000000000     1.246789555471
    SI           0.000000000000     0.000000000000    -1.202430166447

    Psi4 stopped on: Wednesday, 16 July 2025 08:06PM
    Psi4 wall time for execution: 0:00:25.20

*** Psi4 exiting successfully. Buy a developer a beer!
