                               Psi4 1.9.1 release

  ==> Input File <==

--------------------------------------------------------------------------
molecule {
0 6
H   0.00000        0.60000        0.00000
Si   0.00000       -0.60000        0.00000
}

set {
basis              cc-pvdz
reference          uks
maxiter            500
geom_maxiter       500
DAMPING_PERCENTAGE 1
guess              SAP
}

optimize('b3lyp')
--------------------------------------------------------------------------

    Molecular point group: c2v
  Charge       = 0
  Multiplicity = 6
  Basis Set: CC-PVDZ
    Blend: CC-PVDZ
  Basis Set: (CC-PVDZ AUX)
    Blend: CC-PVDZ-JKFIT
  @DF-UKS Final Energy:  -289.40033317624273
    Total Energy =                       -289.4003331762427251
 Dipole X            :          0.0000000            0.0000000            0.0000000
 Dipole Y            :          0.0000000            0.0000000            0.0000000
 Dipole Z            :          0.0471168            1.0849378            1.1320546
 Magnitude           :                                                    1.1320546
    Molecular point group: c2v
  Basis Set: CC-PVDZ
    Blend: CC-PVDZ
  Basis Set: (CC-PVDZ AUX)
    Blend: CC-PVDZ-JKFIT
  Basis Set: CC-PVDZ
    Blend: CC-PVDZ
  Basis Set: (CC-PVDZ AUX)
    Blend: CC-PVDZ-JKFIT
  @DF-UKS Final Energy:  -289.53356373557597
    Total Energy =                       -289.5335637355759673
  Basis Set: CC-PVDZ
    Blend: CC-PVDZ
  Basis Set: (CC-PVDZ AUX)
    Blend: CC-PVDZ-JKFIT
  Basis Set: CC-PVDZ
    Blend: CC-PVDZ
  @DF-UKS Final Energy:  -289.61200014968279
    Total Energy =                       -289.6120001496827854
  @DF-UKS Final Energy:  -289.65327728041461
    Total Energy =                       -289.6532772804146703
  @DF-UKS Final Energy:  -289.68565215724482
    Total Energy =                       -289.6856521572447605
  @DF-UKS Final Energy:  -289.69554097809493
    Total Energy =                       -289.6955409780949822
  @DF-UKS Final Energy:  -289.70902727395708
    Total Energy =                       -289.7090272739570764
  @DF-UKS Final Energy:  -289.71139399068363
    Total Energy =                       -289.7113939906835753
  @DF-UKS Final Energy:  -289.71752085390108
    Total Energy =                       -289.7175208539010214
  @DF-UKS Final Energy:  -289.71810787493416
    Total Energy =                       -289.7181078749341623
  @DF-UKS Final Energy:  -289.72093804404693
    Total Energy =                       -289.7209380440469317
  @DF-UKS Final Energy:  -289.72108725029341
    Total Energy =                       -289.7210872502933512
  @DF-UKS Final Energy:  -289.72243096379498
    Total Energy =                       -289.7224309637949773
  @DF-UKS Final Energy:  -289.72247025219673
    Total Energy =                       -289.7224702521967288
  @DF-UKS Final Energy:  -289.72313600029054
    Total Energy =                       -289.7231360002905376
  @DF-UKS Final Energy:  -289.72314689758520
    Total Energy =                       -289.7231468975851953
  @DF-UKS Final Energy:  -289.72349545030994
    Total Energy =                       -289.7234954503099402
  @DF-UKS Final Energy:  -289.72349869841196
    Total Energy =                       -289.7234986984119587
  @DF-UKS Final Energy:  -289.72350189860970
    Total Energy =                       -289.7235018986096975
  @DF-UKS Final Energy:  -289.72369363677984
    Total Energy =                       -289.7236936367798421
  @DF-UKS Final Energy:  -289.72369467777389
    Total Energy =                       -289.7236946777739490
  @DF-UKS Final Energy:  -289.72369570062659
    Total Energy =                       -289.7236957006265925
  @DF-UKS Final Energy:  -289.72369671530419
    Total Energy =                       -289.7236967153041860
  Basis Set: (CC-PVDZ AUX)
    Blend: CC-PVDZ-JKFIT
  Basis Set: CC-PVDZ
    Blend: CC-PVDZ
  Basis Set: (CC-PVDZ AUX)
    Blend: CC-PVDZ-JKFIT
  @DF-UKS Final Energy:  -289.72369772181645
    Total Energy =                       -289.7236977218164498
  Basis Set: CC-PVDZ
    Blend: CC-PVDZ
  Basis Set: (CC-PVDZ AUX)
    Blend: CC-PVDZ-JKFIT
  Charge       = 0
  Multiplicity = 6
  Basis Set: CC-PVDZ
    Blend: CC-PVDZ
  Basis Set: (CC-PVDZ AUX)
    Blend: CC-PVDZ-JKFIT

    Orbital Energies [Eh]
    ---------------------

    Alpha Occupied:

       1A1   -66.209020     2A1    -5.353179     1B1    -3.713076
       1B2    -3.713076     3A1    -3.713073     4A1    -0.506715
       5A1    -0.319536     2B1    -0.224454     2B2    -0.224454
       6A1    -0.224247

    Alpha Virtual:

       7A1     0.217284     8A1     0.274180     3B2     0.278423
       3B1     0.278423     9A1     0.303547     4B1     0.303988
       4B2     0.303988     1A2     0.303990    10A1     0.303990
      11A1     0.432552     5B1     1.209956     5B2     1.209956
      12A1     1.210423

    Beta Occupied:

       1A1   -66.192933     2A1    -5.332152     1B1    -3.690515
       1B2    -3.690515     3A1    -3.690495

    Beta Virtual:

       4A1    -0.277767     5A1    -0.041831     2B2    -0.037117
       2B1    -0.037117     6A1    -0.022789     7A1     0.294267
       8A1     0.354633     3B2     0.355130     3B1     0.355130
       9A1     0.447387     1A2     0.447615    10A1     0.447616
       4B1     0.447624     4B2     0.447624    11A1     0.639062
      12A1     1.458418     5B1     1.460647     5B2     1.460647

    Final Occupation by Irrep:
             A1    A2    B1    B2
    DOCC [     3,    0,    1,    1 ]
    SOCC [     3,    0,    1,    1 ]
    NA   [     6,    0,    2,    2 ]
    NB   [     3,    0,    1,    1 ]

  @DF-UKS Final Energy:  -289.72369872034096

   => Energetics <=

    Nuclear Repulsion Energy =              1.5968632414039348
    One-Electron Energy =                -403.7014992308337469
    Two-Electron Energy =                 129.4251360161752586
    DFT Exchange-Correlation Energy =     -17.0441987470863303
    Empirical Dispersion Energy =           0.0000000000000000
    VV10 Nonlocal Energy =                  0.0000000000000000
    Total Energy =                       -289.7236987203409058

  UHF NO Occupations:
  HONO-2 :    5 A1 1.0000000
  HONO-1 :    4 A1 1.0000000
  HONO-0 :    6 A1 1.0000000
  LUNO+0 :    3 B1 0.0000001
  LUNO+1 :    3 B2 0.0000001
  LUNO+2 :    7 A1 0.0000001
  LUNO+3 :    8 A1 0.0000000

Computation Completed

Properties will be evaluated at   0.000000,   0.000000,   0.000000 [a0]

Properties computed using the SCF density matrix

 Multipole Moments:

 ------------------------------------------------------------------------------------
     Multipole            Electronic (a.u.)      Nuclear  (a.u.)        Total (a.u.)
 ------------------------------------------------------------------------------------

 L = 1.  Multiply by 2.5417464519 to convert [e a0] to [Debye]
 Dipole X            :          0.0000000            0.0000000            0.0000000
 Dipole Y            :          0.0000000            0.0000000            0.0000000
 Dipole Z            :         -4.1918798            4.1945466            0.0026668
 Magnitude           :                                                    0.0026668

 ------------------------------------------------------------------------------------

*** tstop() called on Joses-MacBook-Pro-2.local at Wed Jul 16 18:16:35 2025
Module time:
	user time   =       1.45 seconds =       0.02 minutes
	system time =       1.63 seconds =       0.03 minutes
	total time  =          0 seconds =       0.00 minutes
Total time:
	user time   =      79.23 seconds =       1.32 minutes
	system time =      95.44 seconds =       1.59 minutes
	total time  =         16 seconds =       0.27 minutes

*** tstart() called on Joses-MacBook-Pro-2.local
*** at Wed Jul 16 18:16:35 2025

         ------------------------------------------------------------
                                   SCF GRAD
                          Rob Parrish, Justin Turney,
                       Andy Simmonett, and Alex Sokolov
         ------------------------------------------------------------

  ==> Geometry <==

    Molecular point group: c2v
    Full point group: C_inf_v

    Geometry (in Angstrom), charge = 0, multiplicity = 6:

       Center              X                  Y                   Z               Mass
    ------------   -----------------  -----------------  -----------------  -----------------
         H            0.000000000000     0.000000000000     4.478080173106     1.007825032230
         SI           0.000000000000     0.000000000000    -0.161315836077    27.976926534650

  Nuclear repulsion =    1.596863241403935

  ==> Basis Set <==

  Basis Set: CC-PVDZ
    Blend: CC-PVDZ
    Number of shells: 11
    Number of basis functions: 23
    Number of Cartesian functions: 24
    Spherical Harmonics?: true
    Max angular momentum: 2

  ==> DFJKGrad: Density-Fitted SCF Gradients <==

    Gradient:                    1
    J tasked:                  Yes
    K tasked:                  Yes
    wK tasked:                  No
    OpenMP threads:              1
    Integrals threads:           1
    Memory [MiB]:              375
    Schwarz Cutoff:          1E-12
    Fitting Condition:       1E-10

   => Auxiliary Basis Set <=

  Basis Set: (CC-PVDZ AUX)
    Blend: CC-PVDZ-JKFIT
    Number of shells: 45
    Number of basis functions: 135
    Number of Cartesian functions: 155
    Spherical Harmonics?: true
    Max angular momentum: 3

  ==> DFT Potential <==

   => LibXC <=

    Version 6.2.2
    S. Lehtola, C. Steigemann, M. J.T. Oliveira, and M. A.L. Marques.,  SoftwareX 7, 1â€“5 (2018) (10.1016/j.softx.2017.11.002)

   => Composite Functional: B3LYP <=

    B3LYP Hyb-GGA Exchange-Correlation Functional

    P. J. Stephens, F. J. Devlin, C. F. Chabalowski, and M. J. Frisch.,  J. Phys. Chem. 98, 11623 (1994) (10.1021/j100096a001)

    Deriv               =              1
    GGA                 =           TRUE
    Meta                =          FALSE

    Exchange Hybrid     =           TRUE
    MP2 Hybrid          =          FALSE

   => Exchange Functionals <=

    0.0800   Slater exchange
    0.7200         Becke 88

   => Exact (HF) Exchange <=

    0.2000               HF

   => Correlation Functionals <=

    0.1900   Vosko, Wilk & Nusair (VWN5_RPA)
    0.8100   Lee, Yang & Parr

   => LibXC Density Thresholds  <==

    XC_HYB_GGA_XC_B3LYP:  1.00E-15

   => Molecular Quadrature <=

    Radial Scheme          =       TREUTLER
    Pruning Scheme         =           NONE
    Nuclear Scheme         =       TREUTLER

    Blocking Scheme        =         OCTREE
    BS radius alpha        =              1
    Pruning alpha          =              1
    Radial Points          =             75
    Spherical Points       =            302
    Total Points           =          43111
    Total Blocks           =            439
    Max Points             =            255
    Max Functions          =             23
    Weights Tolerance      =       1.00E-15

  -Total Gradient:
     Atom            X                  Y                   Z
    ------   -----------------  -----------------  -----------------
       1       -0.000000000000     0.000000000000    -0.000232162665
       2        0.000000000000    -0.000000000000     0.000230922930

*** tstop() called on Joses-MacBook-Pro-2.local at Wed Jul 16 18:16:35 2025
Module time:
	user time   =       0.61 seconds =       0.01 minutes
	system time =       1.05 seconds =       0.02 minutes
	total time  =          0 seconds =       0.00 minutes
Total time:
	user time   =      79.86 seconds =       1.33 minutes
	system time =      96.49 seconds =       1.61 minutes
	total time  =         16 seconds =       0.27 minutes

    			-----------------------------------------

    			 OPTKING 3.0: for geometry optimizations

    			     By R.A. King, Bethel University

    			        with contributions from

    			    A.V. Copan, J. Cayton, A. Heide

    			-----------------------------------------

	                            ===> Fragment 1 <==

	 Z (Atomic Numbers)          Masses                          Geom
	       1.000000             1.007825          0.00000000  0.00000000  8.46234510
	      14.000000            27.976927          0.00000000  0.00000000 -0.30484275

	 - Coordinate -           - BOHR/RAD -       - ANG/DEG -
	 R(1,2)           =         8.767188           4.639396

	        --- Internal Coordinate Step in ANG or DEG, aJ/ANG or AJ/DEG ---
	-------------------------------------------------------------------------------
	           Coordinate      Previous         Force          Change          New
	           ----------      --------        ------          ------        ------
	               R(1,2)       4.63940        0.00191        0.32907       4.96847
	-------------------------------------------------------------------------------

	                                 ==> Convergence Check <==

	Measures of convergence in internal coordinates in au.

	Criteria marked as inactive (o), active & met (*), and active & unmet ( ).

	----------------------------------------------------------------------------------------------
	   Step    Total Energy     Delta E     Max Force     RMS Force      Max Disp      RMS Disp
	----------------------------------------------------------------------------------------------
	  Convergence Criteria     1.00e-06 *    3.00e-04 *             o    1.20e-03 *             o
	----------------------------------------------------------------------------------------------
	    25    -289.72369872   -9.99e-07 *    2.32e-04 *    2.32e-04 o    6.22e-01      6.22e-01 o  ~
	----------------------------------------------------------------------------------------------

Next Geometry in Ang
	Fragment 1 (Ang)

	    H   0.0000000000   0.0000000000   4.6426163076
	   Si   0.0000000000   0.0000000000  -0.3258519706

    Final optimized geometry and variables:
    Molecular point group: c2v
    Full point group: C_inf_v

    Geometry (in Angstrom), charge = 0, multiplicity = 6:

    H            0.000000000000     0.000000000000     4.478080173106
    SI           0.000000000000     0.000000000000    -0.161315836077

    Psi4 stopped on: Wednesday, 16 July 2025 06:16PM
    Psi4 wall time for execution: 0:00:17.16

*** Psi4 exiting successfully. Buy a developer a beer!
