                               Psi4 1.9.1 release

  ==> Input File <==

--------------------------------------------------------------------------
molecule {
0 6
N   0.00000        0.60000        0.00000
Ar   0.00000       -0.60000        0.00000
}

set {
basis              cc-pvdz
reference          uks
maxiter            500
geom_maxiter       500
DAMPING_PERCENTAGE 1
guess              SAP
}

optimize('b3lyp')
--------------------------------------------------------------------------

    Molecular point group: c2v
  Charge       = 0
  Multiplicity = 6
  Basis Set: CC-PVDZ
    Blend: CC-PVDZ
  Basis Set: (CC-PVDZ AUX)
    Blend: CC-PVDZ-JKFIT
  @DF-UKS Final Energy:  -580.65711317067030
    Total Energy =                       -580.6571131706704136
 Dipole X            :          0.0000000            0.0000000            0.0000000
 Dipole Y            :          0.0000000            0.0000000            0.0000000
 Dipole Z            :         -1.3625907            1.1631923           -0.1993984
 Magnitude           :                                                    0.1993984
    Molecular point group: c2v
  Basis Set: CC-PVDZ
    Blend: CC-PVDZ
  Basis Set: (CC-PVDZ AUX)
    Blend: CC-PVDZ-JKFIT
  Basis Set: CC-PVDZ
    Blend: CC-PVDZ
  Basis Set: (CC-PVDZ AUX)
    Blend: CC-PVDZ-JKFIT
  @DF-UKS Final Energy:  -580.81705988612691
    Total Energy =                       -580.8170598861269127
  Basis Set: CC-PVDZ
    Blend: CC-PVDZ
  Basis Set: (CC-PVDZ AUX)
    Blend: CC-PVDZ-JKFIT
  Basis Set: CC-PVDZ
    Blend: CC-PVDZ
  @DF-UKS Final Energy:  -580.95858693718003
    Total Energy =                       -580.9585869371801437
  @DF-UKS Final Energy:  -581.15422702717058
    Total Energy =                       -581.1542270271705775
  @DF-UKS Final Energy:  -581.19252520324983
    Total Energy =                       -581.1925252032498292
  @DF-UKS Final Energy:  -581.21077782292912
    Total Energy =                       -581.2107778229291171
  @DF-UKS Final Energy:  -581.21466939694699
    Total Energy =                       -581.2146693969469879
  @DF-UKS Final Energy:  -581.21512441876723
    Total Energy =                       -581.2151244187672319
  @DF-UKS Final Energy:  -581.21518305316181
    Total Energy =                       -581.2151830531618089
  Basis Set: (CC-PVDZ AUX)
    Blend: CC-PVDZ-JKFIT
  Basis Set: CC-PVDZ
    Blend: CC-PVDZ
  Basis Set: (CC-PVDZ AUX)
    Blend: CC-PVDZ-JKFIT
  @DF-UKS Final Energy:  -581.21519099981640
    Total Energy =                       -581.2151909998164001
  Basis Set: CC-PVDZ
    Blend: CC-PVDZ
  Basis Set: (CC-PVDZ AUX)
    Blend: CC-PVDZ-JKFIT
  Charge       = 0
  Multiplicity = 6
  Basis Set: CC-PVDZ
    Blend: CC-PVDZ
  Basis Set: (CC-PVDZ AUX)
    Blend: CC-PVDZ-JKFIT

    Orbital Energies [Eh]
    ---------------------

    Alpha Occupied:

       1A1  -115.173306     2A1   -14.456261     3A1   -11.212029
       4A1    -8.780926     1B1    -8.755676     1B2    -8.755676
       5A1    -1.069127     6A1    -0.850689     7A1    -0.560599
       2B2    -0.494205     2B1    -0.494205     3B1    -0.380570
       3B2    -0.380570     8A1    -0.339637     9A1     0.434364

    Alpha Virtual:

       4B1     0.518147     4B2     0.518147     5B1     0.623348
       5B2     0.623348    10A1     0.661204    11A1     0.684497
      12A1     0.699580    13A1     0.771556     1A2     0.771557
       6B1     0.796082     6B2     0.796082    14A1     1.111541
      15A1     1.635256     2A2     1.635263     7B1     1.651252
       7B2     1.651252    16A1     1.885117

    Beta Occupied:

       1A1  -115.158943     2A1   -14.393317     3A1   -11.197816
       1B1    -8.746311     1B2    -8.746311     4A1    -8.740073
       5A1    -0.988380     6A1    -0.649100     2B2    -0.458802
       2B1    -0.458802

    Beta Virtual:

       7A1    -0.336061     3B1    -0.124728     3B2    -0.124728
       8A1    -0.072633     4B1     0.557788     4B2     0.557788
       9A1     0.609619     5B1     0.713193     5B2     0.713193
      10A1     0.739238    11A1     0.793602    12A1     0.793659
       1A2     0.793661    13A1     0.808802     6B1     0.876450
       6B2     0.876450    14A1     1.202304    15A1     1.787788
       2A2     1.787804     7B1     1.800855     7B2     1.800855
      16A1     2.019211

    Final Occupation by Irrep:
             A1    A2    B1    B2
    DOCC [     6,    0,    2,    2 ]
    SOCC [     3,    0,    1,    1 ]
    NA   [     9,    0,    3,    3 ]
    NB   [     6,    0,    2,    2 ]

  @DF-UKS Final Energy:  -581.21519220443190

   => Energetics <=

    Nuclear Repulsion Energy =             31.4994875401829368
    One-Electron Energy =                -862.9938020704598785
    Two-Electron Energy =                 280.6754817925803422
    DFT Exchange-Correlation Energy =     -30.3963594667352410
    Empirical Dispersion Energy =           0.0000000000000000
    VV10 Nonlocal Energy =                  0.0000000000000000
    Total Energy =                       -581.2151922044317871

  UHF NO Occupations:
  HONO-2 :    3 B1 1.0000000
  HONO-1 :    8 A1 1.0000000
  HONO-0 :    9 A1 1.0000000
  LUNO+0 :   10 A1 0.0012296
  LUNO+1 :   11 A1 0.0006534
  LUNO+2 :    4 B2 0.0001483
  LUNO+3 :    4 B1 0.0001483

Computation Completed

Properties will be evaluated at   0.000000,   0.000000,   0.000000 [a0]

Properties computed using the SCF density matrix

 Multipole Moments:

 ------------------------------------------------------------------------------------
     Multipole            Electronic (a.u.)      Nuclear  (a.u.)        Total (a.u.)
 ------------------------------------------------------------------------------------

 L = 1.  Multiply by 2.5417464519 to convert [e a0] to [Debye]
 Dipole X            :          0.0000000            0.0000000            0.0000000
 Dipole Y            :          0.0000000            0.0000000            0.0000000
 Dipole Z            :         -1.2376188            2.0518162            0.8141974
 Magnitude           :                                                    0.8141974

 ------------------------------------------------------------------------------------

*** tstop() called on Joses-MacBook-Pro-2.local at Wed Jul 16 19:16:45 2025
Module time:
	user time   =       5.37 seconds =       0.09 minutes
	system time =       3.75 seconds =       0.06 minutes
	total time  =          1 seconds =       0.02 minutes
Total time:
	user time   =      92.12 seconds =       1.54 minutes
	system time =      64.68 seconds =       1.08 minutes
	total time  =         16 seconds =       0.27 minutes

*** tstart() called on Joses-MacBook-Pro-2.local
*** at Wed Jul 16 19:16:45 2025

         ------------------------------------------------------------
                                   SCF GRAD
                          Rob Parrish, Justin Turney,
                       Andy Simmonett, and Alex Sokolov
         ------------------------------------------------------------

  ==> Geometry <==

    Molecular point group: c2v
    Full point group: C_inf_v

    Geometry (in Angstrom), charge = 0, multiplicity = 6:

       Center              X                  Y                   Z               Mass
    ------------   -----------------  -----------------  -----------------  -----------------
         N            0.000000000000     0.000000000000     1.567486136388    14.003074004430
         AR           0.000000000000     0.000000000000    -0.549257142669    39.962383123700

  Nuclear repulsion =   31.499487540182937

  ==> Basis Set <==

  Basis Set: CC-PVDZ
    Blend: CC-PVDZ
    Number of shells: 14
    Number of basis functions: 32
    Number of Cartesian functions: 34
    Spherical Harmonics?: true
    Max angular momentum: 2

  ==> DFJKGrad: Density-Fitted SCF Gradients <==

    Gradient:                    1
    J tasked:                  Yes
    K tasked:                  Yes
    wK tasked:                  No
    OpenMP threads:              1
    Integrals threads:           1
    Memory [MiB]:              375
    Schwarz Cutoff:          1E-12
    Fitting Condition:       1E-10

   => Auxiliary Basis Set <=

  Basis Set: (CC-PVDZ AUX)
    Blend: CC-PVDZ-JKFIT
    Number of shells: 60
    Number of basis functions: 182
    Number of Cartesian functions: 211
    Spherical Harmonics?: true
    Max angular momentum: 3

  ==> DFT Potential <==

   => LibXC <=

    Version 6.2.2
    S. Lehtola, C. Steigemann, M. J.T. Oliveira, and M. A.L. Marques.,  SoftwareX 7, 1â€“5 (2018) (10.1016/j.softx.2017.11.002)

   => Composite Functional: B3LYP <=

    B3LYP Hyb-GGA Exchange-Correlation Functional

    P. J. Stephens, F. J. Devlin, C. F. Chabalowski, and M. J. Frisch.,  J. Phys. Chem. 98, 11623 (1994) (10.1021/j100096a001)

    Deriv               =              1
    GGA                 =           TRUE
    Meta                =          FALSE

    Exchange Hybrid     =           TRUE
    MP2 Hybrid          =          FALSE

   => Exchange Functionals <=

    0.0800   Slater exchange
    0.7200         Becke 88

   => Exact (HF) Exchange <=

    0.2000               HF

   => Correlation Functionals <=

    0.1900   Vosko, Wilk & Nusair (VWN5_RPA)
    0.8100   Lee, Yang & Parr

   => LibXC Density Thresholds  <==

    XC_HYB_GGA_XC_B3LYP:  1.00E-15

   => Molecular Quadrature <=

    Radial Scheme          =       TREUTLER
    Pruning Scheme         =           NONE
    Nuclear Scheme         =       TREUTLER

    Blocking Scheme        =         OCTREE
    BS radius alpha        =              1
    Pruning alpha          =              1
    Radial Points          =             75
    Spherical Points       =            302
    Total Points           =          40821
    Total Blocks           =            364
    Max Points             =            256
    Max Functions          =             32
    Weights Tolerance      =       1.00E-15

  -Total Gradient:
     Atom            X                  Y                   Z
    ------   -----------------  -----------------  -----------------
       1        0.000000000000    -0.000000000000    -0.000121867701
       2        0.000000000000     0.000000000000     0.000121919175

*** tstop() called on Joses-MacBook-Pro-2.local at Wed Jul 16 19:16:45 2025
Module time:
	user time   =       1.29 seconds =       0.02 minutes
	system time =       1.69 seconds =       0.03 minutes
	total time  =          0 seconds =       0.00 minutes
Total time:
	user time   =      93.42 seconds =       1.56 minutes
	system time =      66.37 seconds =       1.11 minutes
	total time  =         16 seconds =       0.27 minutes

    			-----------------------------------------

    			 OPTKING 3.0: for geometry optimizations

    			     By R.A. King, Bethel University

    			        with contributions from

    			    A.V. Copan, J. Cayton, A. Heide

    			-----------------------------------------

	                            ===> Fragment 1 <==

	 Z (Atomic Numbers)          Masses                          Geom
	       7.000000            14.003074          0.00000000  0.00000000  2.96211950
	      18.000000            39.962383          0.00000000  0.00000000 -1.03794557

	 - Coordinate -           - BOHR/RAD -       - ANG/DEG -
	 R(1,2)           =         4.000065           2.116743

	        --- Internal Coordinate Step in ANG or DEG, aJ/ANG or AJ/DEG ---
	-------------------------------------------------------------------------------
	           Coordinate      Previous         Force          Change          New
	           ----------      --------        ------          ------        ------
	               R(1,2)       2.11674        0.00100        0.00044       2.11718
	-------------------------------------------------------------------------------

	                                 ==> Convergence Check <==

	Measures of convergence in internal coordinates in au.

	Criteria marked as inactive (o), active & met (*), and active & unmet ( ).

	----------------------------------------------------------------------------------------------
	   Step    Total Energy     Delta E     Max Force     RMS Force      Max Disp      RMS Disp
	----------------------------------------------------------------------------------------------
	  Convergence Criteria     1.00e-06 *    3.00e-04 *             o    1.20e-03 *             o
	----------------------------------------------------------------------------------------------
	    11    -581.21519220   -1.20e-06      1.22e-04 *    1.22e-04 o    8.27e-04 *    8.27e-04 o  ~
	----------------------------------------------------------------------------------------------

Next Geometry in Ang
	Fragment 1 (Ang)

	    N   0.0000000000   0.0000000000   1.5677048678
	   Ar   0.0000000000   0.0000000000  -0.5494758740

    Final optimized geometry and variables:
    Molecular point group: c2v
    Full point group: C_inf_v

    Geometry (in Angstrom), charge = 0, multiplicity = 6:

    N            0.000000000000     0.000000000000     1.567486136388
    AR           0.000000000000     0.000000000000    -0.549257142669

    Psi4 stopped on: Wednesday, 16 July 2025 07:16PM
    Psi4 wall time for execution: 0:00:17.12

*** Psi4 exiting successfully. Buy a developer a beer!
