                               Psi4 1.9.1 release

  ==> Input File <==

--------------------------------------------------------------------------
molecule {
0 6
B   0.00000        0.60000        0.00000
O   0.00000       -0.60000        0.00000
}

set {
basis              cc-pvdz
reference          uks
maxiter            500
geom_maxiter       500
DAMPING_PERCENTAGE 1
guess              SAP
}

optimize('b3lyp')
--------------------------------------------------------------------------

    Molecular point group: c2v
  Charge       = 0
  Multiplicity = 6
  Basis Set: CC-PVDZ
    Blend: CC-PVDZ
  Basis Set: (CC-PVDZ AUX)
    Blend: CC-PVDZ-JKFIT
  @DF-UKS Final Energy:   -99.45249556549510
    Total Energy =                        -99.4524955654950986
 Dipole X            :          0.0000000            0.0000000            0.0000000
 Dipole Y            :          0.0000000            0.0000000            0.0000000
 Dipole Z            :         -0.6970709           -0.6801842           -1.3772550
 Magnitude           :                                                    1.3772550
    Molecular point group: c2v
  Basis Set: CC-PVDZ
    Blend: CC-PVDZ
  Basis Set: (CC-PVDZ AUX)
    Blend: CC-PVDZ-JKFIT
  Basis Set: CC-PVDZ
    Blend: CC-PVDZ
  Basis Set: (CC-PVDZ AUX)
    Blend: CC-PVDZ-JKFIT
  @DF-UKS Final Energy:   -99.58031889689435
    Total Energy =                        -99.5803188968943545
  Basis Set: CC-PVDZ
    Blend: CC-PVDZ
  Basis Set: (CC-PVDZ AUX)
    Blend: CC-PVDZ-JKFIT
  Basis Set: CC-PVDZ
    Blend: CC-PVDZ
  @DF-UKS Final Energy:   -99.60375777137506
    Total Energy =                        -99.6037577713750579
  @DF-UKS Final Energy:   -99.61926064953261
    Total Energy =                        -99.6192606495326061
  @DF-UKS Final Energy:   -99.62388799595328
    Total Energy =                        -99.6238879959532824
  @DF-UKS Final Energy:   -99.62598788637541
    Total Energy =                        -99.6259878863754125
  @DF-UKS Final Energy:   -99.62679071206416
    Total Energy =                        -99.6267907120641496
  @DF-UKS Final Energy:   -99.62693823265252
    Total Energy =                        -99.6269382326525346
  @DF-UKS Final Energy:   -99.62696848563903
    Total Energy =                        -99.6269684856390114
  Basis Set: (CC-PVDZ AUX)
    Blend: CC-PVDZ-JKFIT
  Basis Set: CC-PVDZ
    Blend: CC-PVDZ
  Basis Set: (CC-PVDZ AUX)
    Blend: CC-PVDZ-JKFIT
  @DF-UKS Final Energy:   -99.62697585201171
    Total Energy =                        -99.6269758520116966
  Basis Set: CC-PVDZ
    Blend: CC-PVDZ
  Basis Set: (CC-PVDZ AUX)
    Blend: CC-PVDZ-JKFIT
  Charge       = 0
  Multiplicity = 6
  Basis Set: CC-PVDZ
    Blend: CC-PVDZ
  Basis Set: (CC-PVDZ AUX)
    Blend: CC-PVDZ-JKFIT

    Orbital Energies [Eh]
    ---------------------

    Alpha Occupied:

       1A1   -19.417775     2A1    -6.818060     3A1    -1.141105
       1B2    -0.566517     1B1    -0.566517     4A1    -0.548257
       5A1    -0.354971     2B1    -0.171302     2B2    -0.171302

    Alpha Virtual:

       6A1    -0.009411     3B1     0.287129     3B2     0.287129
       7A1     0.291560     8A1     0.351399     4B1     0.637850
       4B2     0.637850     9A1     0.680690     1A2     0.680690
      10A1     0.760521     5B1     0.871560     5B2     0.871560
      11A1     0.927891    12A1     1.494693     2A2     2.325720
      13A1     2.325726     6B1     2.429885     6B2     2.429885
      14A1     2.590354

    Beta Occupied:

       1A1   -19.361237     2A1    -6.782669     3A1    -0.972111
       4A1    -0.471424

    Beta Virtual:

       1B2    -0.275113     1B1    -0.275113     5A1    -0.134592
       2B2     0.027836     2B1     0.027836     6A1     0.067672
       7A1     0.324847     3B1     0.379468     3B2     0.379468
       8A1     0.436661     4B1     0.747085     4B2     0.747085
       1A2     0.822030     9A1     0.822030    10A1     0.825624
       5B1     0.977737     5B2     0.977737    11A1     0.998283
      12A1     1.575200     2A2     2.505117    13A1     2.505120
       6B1     2.533715     6B2     2.533715    14A1     2.682726

    Final Occupation by Irrep:
             A1    A2    B1    B2
    DOCC [     4,    0,    0,    0 ]
    SOCC [     1,    0,    2,    2 ]
    NA   [     5,    0,    2,    2 ]
    NB   [     4,    0,    0,    0 ]

  @DF-UKS Final Energy:   -99.62697676793782

   => Energetics <=

    Nuclear Repulsion Energy =             11.2783821543582565
    One-Electron Energy =                -157.2544329067056594
    Two-Electron Energy =                  56.3745552526078342
    DFT Exchange-Correlation Energy =     -10.0254812681982592
    Empirical Dispersion Energy =           0.0000000000000000
    VV10 Nonlocal Energy =                  0.0000000000000000
    Total Energy =                        -99.6269767679378191

  UHF NO Occupations:
  HONO-2 :    5 A1 1.0000000
  HONO-1 :    1 B1 1.0000000
  HONO-0 :    2 B1 1.0000000
  LUNO+0 :    6 A1 0.0014708
  LUNO+1 :    7 A1 0.0005594
  LUNO+2 :    8 A1 0.0000005
  LUNO+3 :    9 A1 0.0000002

Computation Completed

Properties will be evaluated at   0.000000,   0.000000,   0.000000 [a0]

Properties computed using the SCF density matrix

 Multipole Moments:

 ------------------------------------------------------------------------------------
     Multipole            Electronic (a.u.)      Nuclear  (a.u.)        Total (a.u.)
 ------------------------------------------------------------------------------------

 L = 1.  Multiply by 2.5417464519 to convert [e a0] to [Debye]
 Dipole X            :          0.0000000            0.0000000            0.0000000
 Dipole Y            :          0.0000000            0.0000000            0.0000000
 Dipole Z            :          0.1088211           -1.0637990           -0.9549779
 Magnitude           :                                                    0.9549779

 ------------------------------------------------------------------------------------

*** tstop() called on Joses-MacBook-Pro-2.local at Wed Jul 16 18:50:32 2025
Module time:
	user time   =       2.24 seconds =       0.04 minutes
	system time =       3.90 seconds =       0.07 minutes
	total time  =          1 seconds =       0.02 minutes
Total time:
	user time   =      49.69 seconds =       0.83 minutes
	system time =      66.43 seconds =       1.11 minutes
	total time  =         15 seconds =       0.25 minutes

*** tstart() called on Joses-MacBook-Pro-2.local
*** at Wed Jul 16 18:50:32 2025

         ------------------------------------------------------------
                                   SCF GRAD
                          Rob Parrish, Justin Turney,
                       Andy Simmonett, and Alex Sokolov
         ------------------------------------------------------------

  ==> Geometry <==

    Molecular point group: c2v
    Full point group: C_inf_v

    Geometry (in Angstrom), charge = 0, multiplicity = 6:

       Center              X                  Y                   Z               Mass
    ------------   -----------------  -----------------  -----------------  -----------------
         B            0.000000000000     0.000000000000     1.111641130162    11.009305360000
         O            0.000000000000     0.000000000000    -0.765142980990    15.994914619570

  Nuclear repulsion =   11.278382154358257

  ==> Basis Set <==

  Basis Set: CC-PVDZ
    Blend: CC-PVDZ
    Number of shells: 12
    Number of basis functions: 28
    Number of Cartesian functions: 30
    Spherical Harmonics?: true
    Max angular momentum: 2

  ==> DFJKGrad: Density-Fitted SCF Gradients <==

    Gradient:                    1
    J tasked:                  Yes
    K tasked:                  Yes
    wK tasked:                  No
    OpenMP threads:              1
    Integrals threads:           1
    Memory [MiB]:              375
    Schwarz Cutoff:          1E-12
    Fitting Condition:       1E-10

   => Auxiliary Basis Set <=

  Basis Set: (CC-PVDZ AUX)
    Blend: CC-PVDZ-JKFIT
    Number of shells: 48
    Number of basis functions: 140
    Number of Cartesian functions: 162
    Spherical Harmonics?: true
    Max angular momentum: 3

  ==> DFT Potential <==

   => LibXC <=

    Version 6.2.2
    S. Lehtola, C. Steigemann, M. J.T. Oliveira, and M. A.L. Marques.,  SoftwareX 7, 1â€“5 (2018) (10.1016/j.softx.2017.11.002)

   => Composite Functional: B3LYP <=

    B3LYP Hyb-GGA Exchange-Correlation Functional

    P. J. Stephens, F. J. Devlin, C. F. Chabalowski, and M. J. Frisch.,  J. Phys. Chem. 98, 11623 (1994) (10.1021/j100096a001)

    Deriv               =              1
    GGA                 =           TRUE
    Meta                =          FALSE

    Exchange Hybrid     =           TRUE
    MP2 Hybrid          =          FALSE

   => Exchange Functionals <=

    0.0800   Slater exchange
    0.7200         Becke 88

   => Exact (HF) Exchange <=

    0.2000               HF

   => Correlation Functionals <=

    0.1900   Vosko, Wilk & Nusair (VWN5_RPA)
    0.8100   Lee, Yang & Parr

   => LibXC Density Thresholds  <==

    XC_HYB_GGA_XC_B3LYP:  1.00E-15

   => Molecular Quadrature <=

    Radial Scheme          =       TREUTLER
    Pruning Scheme         =           NONE
    Nuclear Scheme         =       TREUTLER

    Blocking Scheme        =         OCTREE
    BS radius alpha        =              1
    Pruning alpha          =              1
    Radial Points          =             75
    Spherical Points       =            302
    Total Points           =          43351
    Total Blocks           =            395
    Max Points             =            255
    Max Functions          =             28
    Weights Tolerance      =       1.00E-15

  -Total Gradient:
     Atom            X                  Y                   Z
    ------   -----------------  -----------------  -----------------
       1       -0.000000000000     0.000000000000    -0.000064898624
       2       -0.000000000000     0.000000000000     0.000079749345

*** tstop() called on Joses-MacBook-Pro-2.local at Wed Jul 16 18:50:32 2025
Module time:
	user time   =       0.61 seconds =       0.01 minutes
	system time =       1.26 seconds =       0.02 minutes
	total time  =          0 seconds =       0.00 minutes
Total time:
	user time   =      50.30 seconds =       0.84 minutes
	system time =      67.70 seconds =       1.13 minutes
	total time  =         15 seconds =       0.25 minutes

    			-----------------------------------------

    			 OPTKING 3.0: for geometry optimizations

    			     By R.A. King, Bethel University

    			        with contributions from

    			    A.V. Copan, J. Cayton, A. Heide

    			-----------------------------------------

	                            ===> Fragment 1 <==

	 Z (Atomic Numbers)          Masses                          Geom
	       5.000000            11.009305          0.00000000  0.00000000  2.10069729
	       8.000000            15.994915          0.00000000  0.00000000 -1.44591068

	 - Coordinate -           - BOHR/RAD -       - ANG/DEG -
	 R(1,2)           =         3.546608           1.876784

	        --- Internal Coordinate Step in ANG or DEG, aJ/ANG or AJ/DEG ---
	-------------------------------------------------------------------------------
	           Coordinate      Previous         Force          Change          New
	           ----------      --------        ------          ------        ------
	               R(1,2)       1.87678        0.00060        0.00069       1.87747
	-------------------------------------------------------------------------------

	                                 ==> Convergence Check <==

	Measures of convergence in internal coordinates in au.

	Criteria marked as inactive (o), active & met (*), and active & unmet ( ).

	----------------------------------------------------------------------------------------------
	   Step    Total Energy     Delta E     Max Force     RMS Force      Max Disp      RMS Disp
	----------------------------------------------------------------------------------------------
	  Convergence Criteria     1.00e-06 *    3.00e-04 *             o    1.20e-03 *             o
	----------------------------------------------------------------------------------------------
	    11     -99.62697677   -9.16e-07 *    7.23e-05 *    7.23e-05 o    1.30e-03      1.30e-03 o  ~
	----------------------------------------------------------------------------------------------

Next Geometry in Ang
	Fragment 1 (Ang)

	    B   0.0000000000   0.0000000000   1.1119856789
	    O   0.0000000000   0.0000000000  -0.7654875297

    Final optimized geometry and variables:
    Molecular point group: c2v
    Full point group: C_inf_v

    Geometry (in Angstrom), charge = 0, multiplicity = 6:

    B            0.000000000000     0.000000000000     1.111641130162
    O            0.000000000000     0.000000000000    -0.765142980990

    Psi4 stopped on: Wednesday, 16 July 2025 06:50PM
    Psi4 wall time for execution: 0:00:15.36

*** Psi4 exiting successfully. Buy a developer a beer!
