                               Psi4 1.9.1 release

  ==> Input File <==

--------------------------------------------------------------------------
molecule {
0 6
Ne   0.00000        0.60000        0.00000
Cl   0.00000       -0.60000        0.00000
}

set {
basis              cc-pvdz
reference          uks
maxiter            500
geom_maxiter       500
DAMPING_PERCENTAGE 1
guess              SAP
}

optimize('b3lyp')
--------------------------------------------------------------------------

    Molecular point group: c2v
  Charge       = 0
  Multiplicity = 6
  Basis Set: CC-PVDZ
    Blend: CC-PVDZ
  Basis Set: (CC-PVDZ AUX)
    Blend: CC-PVDZ-JKFIT
  @DF-UKS Final Energy:  -586.98359468630952
    Total Energy =                       -586.9835946863092886
 Dipole X            :          0.0000000            0.0000000            0.0000000
 Dipole Y            :          0.0000000            0.0000000            0.0000000
 Dipole Z            :          1.3088150            0.4050456            1.7138606
 Magnitude           :                                                    1.7138606
    Molecular point group: c2v
  Basis Set: CC-PVDZ
    Blend: CC-PVDZ
  Basis Set: (CC-PVDZ AUX)
    Blend: CC-PVDZ-JKFIT
  Basis Set: CC-PVDZ
    Blend: CC-PVDZ
  Basis Set: (CC-PVDZ AUX)
    Blend: CC-PVDZ-JKFIT
  @DF-UKS Final Energy:  -587.23034144713245
    Total Energy =                       -587.2303414471325596
  Basis Set: CC-PVDZ
    Blend: CC-PVDZ
  Basis Set: (CC-PVDZ AUX)
    Blend: CC-PVDZ-JKFIT
  Basis Set: CC-PVDZ
    Blend: CC-PVDZ
  @DF-UKS Final Energy:  -587.38931366162149
    Total Energy =                       -587.3893136616214861
  @DF-UKS Final Energy:  -587.48159263476157
    Total Energy =                       -587.4815926347614550
  @DF-UKS Final Energy:  -587.53325118004909
    Total Energy =                       -587.5332511800490920
  @DF-UKS Final Energy:  -587.56154523516295
    Total Energy =                       -587.5615452351629528
  @DF-UKS Final Energy:  -587.57390345187036
    Total Energy =                       -587.5739034518703647
  @DF-UKS Final Energy:  -587.57887497755848
    Total Energy =                       -587.5788749775584847
  @DF-UKS Final Energy:  -587.58066898879463
    Total Energy =                       -587.5806689887946277
  @DF-UKS Final Energy:  -587.58110637499863
    Total Energy =                       -587.5811063749987397
  @DF-UKS Final Energy:  -587.58127228602166
    Total Energy =                       -587.5812722860217718
  @DF-UKS Final Energy:  -587.58130560870620
    Total Energy =                       -587.5813056087062023
  @DF-UKS Final Energy:  -587.58131303435584
    Total Energy =                       -587.5813130343558441
  Basis Set: (CC-PVDZ AUX)
    Blend: CC-PVDZ-JKFIT
  Basis Set: CC-PVDZ
    Blend: CC-PVDZ
  Basis Set: (CC-PVDZ AUX)
    Blend: CC-PVDZ-JKFIT
  @DF-UKS Final Energy:  -587.58131499988644
    Total Energy =                       -587.5813149998864446
  Basis Set: CC-PVDZ
    Blend: CC-PVDZ
  Basis Set: (CC-PVDZ AUX)
    Blend: CC-PVDZ-JKFIT
  Charge       = 0
  Multiplicity = 6
  Basis Set: CC-PVDZ
    Blend: CC-PVDZ
  Basis Set: (CC-PVDZ AUX)
    Blend: CC-PVDZ-JKFIT

    Orbital Energies [Eh]
    ---------------------

    Alpha Occupied:

       1A1  -101.694537     2A1   -31.005809     3A1    -9.644866
       4A1    -7.407967     1B2    -7.405106     1B1    -7.405106
       5A1    -1.469195     6A1    -1.032807     7A1    -0.594687
       2B2    -0.575242     2B1    -0.575242     3B2    -0.536821
       3B1    -0.536821     8A1    -0.528446     4B1     0.329785
       4B2     0.329785

    Alpha Virtual:

       9A1     0.413970    10A1     0.433273    11A1     0.495832
       5B1     0.504078     5B2     0.504078    12A1     0.519119
       1A2     0.519120     6B2     1.335517     6B1     1.335517
      13A1     1.413851    14A1     1.860903     7B2     4.686909
       7B1     4.686909    15A1     4.688588     2A2     4.691054
      16A1     4.691192

    Beta Occupied:

       1A1  -101.659653     2A1   -31.004134     3A1    -9.611238
       4A1    -7.368750     1B2    -7.349060     1B1    -7.349060
       5A1    -1.465843     6A1    -0.845734     7A1    -0.577617
       2B2    -0.572839     2B1    -0.572839

    Beta Virtual:

       8A1    -0.328825     3B2    -0.302643     3B1    -0.302643
       9A1     0.493275     4B1     0.508711     4B2     0.508711
      10A1     0.541992    11A1     0.627031     5B1     0.641498
       5B2     0.641498     1A2     0.664185    12A1     0.664187
       6B2     1.336693     6B1     1.336693    13A1     1.421367
      14A1     1.866753     7B2     4.690405     7B1     4.690405
       2A2     4.692312    15A1     4.692449    16A1     4.692830

    Final Occupation by Irrep:
             A1    A2    B1    B2
    DOCC [     7,    0,    2,    2 ]
    SOCC [     1,    0,    2,    2 ]
    NA   [     8,    0,    4,    4 ]
    NB   [     7,    0,    2,    2 ]

  @DF-UKS Final Energy:  -587.58131511657780

   => Energetics <=

    Nuclear Repulsion Energy =             34.4705359886248104
    One-Electron Energy =                -882.6184422316478049
    Two-Electron Energy =                 293.3696340739097650
    DFT Exchange-Correlation Energy =     -32.8030429474645757
    Empirical Dispersion Energy =           0.0000000000000000
    VV10 Nonlocal Energy =                  0.0000000000000000
    Total Energy =                       -587.5813151165777981

  UHF NO Occupations:
  HONO-2 :    4 B1 1.0000000
  HONO-1 :    8 A1 1.0000000
  HONO-0 :    4 B2 1.0000000
  LUNO+0 :    9 A1 0.0005043
  LUNO+1 :   10 A1 0.0000325
  LUNO+2 :    5 B1 0.0000007
  LUNO+3 :    5 B2 0.0000007

Computation Completed

Properties will be evaluated at   0.000000,   0.000000,   0.000000 [a0]

Properties computed using the SCF density matrix

 Multipole Moments:

 ------------------------------------------------------------------------------------
     Multipole            Electronic (a.u.)      Nuclear  (a.u.)        Total (a.u.)
 ------------------------------------------------------------------------------------

 L = 1.  Multiply by 2.5417464519 to convert [e a0] to [Debye]
 Dipole X            :          0.0000000            0.0000000            0.0000000
 Dipole Y            :          0.0000000            0.0000000            0.0000000
 Dipole Z            :         -0.7352942            0.8808961            0.1456019
 Magnitude           :                                                    0.1456019

 ------------------------------------------------------------------------------------

*** tstop() called on Joses-MacBook-Pro-2.local at Wed Jul 16 19:38:05 2025
Module time:
	user time   =       2.56 seconds =       0.04 minutes
	system time =       2.51 seconds =       0.04 minutes
	total time  =          1 seconds =       0.02 minutes
Total time:
	user time   =      71.32 seconds =       1.19 minutes
	system time =      75.98 seconds =       1.27 minutes
	total time  =         14 seconds =       0.23 minutes

*** tstart() called on Joses-MacBook-Pro-2.local
*** at Wed Jul 16 19:38:05 2025

         ------------------------------------------------------------
                                   SCF GRAD
                          Rob Parrish, Justin Turney,
                       Andy Simmonett, and Alex Sokolov
         ------------------------------------------------------------

  ==> Geometry <==

    Molecular point group: c2v
    Full point group: C_inf_v

    Geometry (in Angstrom), charge = 0, multiplicity = 6:

       Center              X                  Y                   Z               Mass
    ------------   -----------------  -----------------  -----------------  -----------------
         NE           0.000000000000     0.000000000000     1.660452518052    19.992440176200
         CL           0.000000000000     0.000000000000    -0.949316179586    34.968852682000

  Nuclear repulsion =   34.470535988624810

  ==> Basis Set <==

  Basis Set: CC-PVDZ
    Blend: CC-PVDZ
    Number of shells: 14
    Number of basis functions: 32
    Number of Cartesian functions: 34
    Spherical Harmonics?: true
    Max angular momentum: 2

  ==> DFJKGrad: Density-Fitted SCF Gradients <==

    Gradient:                    1
    J tasked:                  Yes
    K tasked:                  Yes
    wK tasked:                  No
    OpenMP threads:              1
    Integrals threads:           1
    Memory [MiB]:              375
    Schwarz Cutoff:          1E-12
    Fitting Condition:       1E-10

   => Auxiliary Basis Set <=

  Basis Set: (CC-PVDZ AUX)
    Blend: CC-PVDZ-JKFIT
    Number of shells: 60
    Number of basis functions: 182
    Number of Cartesian functions: 211
    Spherical Harmonics?: true
    Max angular momentum: 3

  ==> DFT Potential <==

   => LibXC <=

    Version 6.2.2
    S. Lehtola, C. Steigemann, M. J.T. Oliveira, and M. A.L. Marques.,  SoftwareX 7, 1â€“5 (2018) (10.1016/j.softx.2017.11.002)

   => Composite Functional: B3LYP <=

    B3LYP Hyb-GGA Exchange-Correlation Functional

    P. J. Stephens, F. J. Devlin, C. F. Chabalowski, and M. J. Frisch.,  J. Phys. Chem. 98, 11623 (1994) (10.1021/j100096a001)

    Deriv               =              1
    GGA                 =           TRUE
    Meta                =          FALSE

    Exchange Hybrid     =           TRUE
    MP2 Hybrid          =          FALSE

   => Exchange Functionals <=

    0.0800   Slater exchange
    0.7200         Becke 88

   => Exact (HF) Exchange <=

    0.2000               HF

   => Correlation Functionals <=

    0.1900   Vosko, Wilk & Nusair (VWN5_RPA)
    0.8100   Lee, Yang & Parr

   => LibXC Density Thresholds  <==

    XC_HYB_GGA_XC_B3LYP:  1.00E-15

   => Molecular Quadrature <=

    Radial Scheme          =       TREUTLER
    Pruning Scheme         =           NONE
    Nuclear Scheme         =       TREUTLER

    Blocking Scheme        =         OCTREE
    BS radius alpha        =              1
    Pruning alpha          =              1
    Radial Points          =             75
    Spherical Points       =            302
    Total Points           =          41972
    Total Blocks           =            379
    Max Points             =            256
    Max Functions          =             32
    Weights Tolerance      =       1.00E-15

  -Total Gradient:
     Atom            X                  Y                   Z
    ------   -----------------  -----------------  -----------------
       1        0.000000000000     0.000000000000    -0.000023497071
       2        0.000000000000    -0.000000000000     0.000015168512

*** tstop() called on Joses-MacBook-Pro-2.local at Wed Jul 16 19:38:05 2025
Module time:
	user time   =       0.85 seconds =       0.01 minutes
	system time =       1.28 seconds =       0.02 minutes
	total time  =          0 seconds =       0.00 minutes
Total time:
	user time   =      72.17 seconds =       1.20 minutes
	system time =      77.27 seconds =       1.29 minutes
	total time  =         14 seconds =       0.23 minutes

    			-----------------------------------------

    			 OPTKING 3.0: for geometry optimizations

    			     By R.A. King, Bethel University

    			        with contributions from

    			    A.V. Copan, J. Cayton, A. Heide

    			-----------------------------------------

	                            ===> Fragment 1 <==

	 Z (Atomic Numbers)          Masses                          Geom
	      10.000000            19.992440          0.00000000  0.00000000  3.13780050
	      17.000000            34.968853          0.00000000  0.00000000 -1.79394759

	 - Coordinate -           - BOHR/RAD -       - ANG/DEG -
	 R(1,2)           =         4.931748           2.609769

	        --- Internal Coordinate Step in ANG or DEG, aJ/ANG or AJ/DEG ---
	-------------------------------------------------------------------------------
	           Coordinate      Previous         Force          Change          New
	           ----------      --------        ------          ------        ------
	               R(1,2)       2.60977        0.00016        0.00077       2.61054
	-------------------------------------------------------------------------------

	                                 ==> Convergence Check <==

	Measures of convergence in internal coordinates in au.

	Criteria marked as inactive (o), active & met (*), and active & unmet ( ).

	----------------------------------------------------------------------------------------------
	   Step    Total Energy     Delta E     Max Force     RMS Force      Max Disp      RMS Disp
	----------------------------------------------------------------------------------------------
	  Convergence Criteria     1.00e-06 *    3.00e-04 *             o    1.20e-03 *             o
	----------------------------------------------------------------------------------------------
	    15    -587.58131512   -1.17e-07 *    1.93e-05 *    1.93e-05 o    1.46e-03      1.46e-03 o  ~
	----------------------------------------------------------------------------------------------

Next Geometry in Ang
	Fragment 1 (Ang)

	   Ne   0.0000000000   0.0000000000   1.6608392105
	   Cl   0.0000000000   0.0000000000  -0.9497028720

    Final optimized geometry and variables:
    Molecular point group: c2v
    Full point group: C_inf_v

    Geometry (in Angstrom), charge = 0, multiplicity = 6:

    NE           0.000000000000     0.000000000000     1.660452518052
    CL           0.000000000000     0.000000000000    -0.949316179586

    Psi4 stopped on: Wednesday, 16 July 2025 07:38PM
    Psi4 wall time for execution: 0:00:14.94

*** Psi4 exiting successfully. Buy a developer a beer!
