                               Psi4 1.9.1 release

  ==> Input File <==

--------------------------------------------------------------------------
molecule {
0 6
Li   0.00000        0.60000        0.00000
O   0.00000       -0.60000        0.00000
}

set {
basis              cc-pvdz
reference          uks
maxiter            500
geom_maxiter       500
DAMPING_PERCENTAGE 1
guess              SAP
}

optimize('b3lyp')
--------------------------------------------------------------------------

    Molecular point group: c2v
  Charge       = 0
  Multiplicity = 6
  Basis Set: CC-PVDZ
    Blend: CC-PVDZ
  Basis Set: (CC-PVDZ AUX)
    Blend: CC-PVDZ-JKFIT + DEF2-UNIVERSAL-JKFIT
  @DF-UKS Final Energy:   -81.89032664188025
    Total Energy =                        -81.8903266418802360
 Dipole X            :          0.0000000            0.0000000            0.0000000
 Dipole Y            :          0.0000000            0.0000000            0.0000000
 Dipole Z            :         -0.8309757           -0.8025013           -1.6334770
 Magnitude           :                                                    1.6334770
    Molecular point group: c2v
  Basis Set: CC-PVDZ
    Blend: CC-PVDZ
  Basis Set: (CC-PVDZ AUX)
    Blend: CC-PVDZ-JKFIT + DEF2-UNIVERSAL-JKFIT
  Basis Set: CC-PVDZ
    Blend: CC-PVDZ
  Basis Set: (CC-PVDZ AUX)
    Blend: CC-PVDZ-JKFIT + DEF2-UNIVERSAL-JKFIT
  @DF-UKS Final Energy:   -82.03066562017653
    Total Energy =                        -82.0306656201765350
  Basis Set: CC-PVDZ
    Blend: CC-PVDZ
  Basis Set: (CC-PVDZ AUX)
    Blend: CC-PVDZ-JKFIT + DEF2-UNIVERSAL-JKFIT
  Basis Set: CC-PVDZ
    Blend: CC-PVDZ
  @DF-UKS Final Energy:   -82.08313567469891
    Total Energy =                        -82.0831356746989087
  @DF-UKS Final Energy:   -82.12149472097181
    Total Energy =                        -82.1214947209717963
  @DF-UKS Final Energy:   -82.14803384829020
    Total Energy =                        -82.1480338482901971
  @DF-UKS Final Energy:   -82.16727966795420
    Total Energy =                        -82.1672796679542046
  @DF-UKS Final Energy:   -82.17039872261196
    Total Energy =                        -82.1703987226119636
  @DF-UKS Final Energy:   -82.17998608440723
    Total Energy =                        -82.1799860844072327
  @DF-UKS Final Energy:   -82.18056448316952
    Total Energy =                        -82.1805644831695190
  @DF-UKS Final Energy:   -82.18280088166043
    Total Energy =                        -82.1828008816604267
  @DF-UKS Final Energy:   -82.18299925160595
    Total Energy =                        -82.1829992516059633
  Basis Set: (CC-PVDZ AUX)
    Blend: CC-PVDZ-JKFIT + DEF2-UNIVERSAL-JKFIT
  Basis Set: CC-PVDZ
    Blend: CC-PVDZ
  Basis Set: (CC-PVDZ AUX)
    Blend: CC-PVDZ-JKFIT + DEF2-UNIVERSAL-JKFIT
  @DF-UKS Final Energy:   -82.18300817548030
    Total Energy =                        -82.1830081754802961
  Basis Set: CC-PVDZ
    Blend: CC-PVDZ
  Basis Set: (CC-PVDZ AUX)
    Blend: CC-PVDZ-JKFIT + DEF2-UNIVERSAL-JKFIT
  Charge       = 0
  Multiplicity = 6
  Basis Set: CC-PVDZ
    Blend: CC-PVDZ
  Basis Set: (CC-PVDZ AUX)
    Blend: CC-PVDZ-JKFIT + DEF2-UNIVERSAL-JKFIT

    Orbital Energies [Eh]
    ---------------------

    Alpha Occupied:

       1A1   -19.792821     2A1    -1.999557     3A1    -1.443530
       4A1    -0.851464     1B1    -0.851123     1B2    -0.850442
       5A1    -0.146777     2B2    -0.068912

    Alpha Virtual:

       6A1    -0.026554     2B1    -0.024501     7A1     0.035301
       3B2     0.067196     3B1     0.084255     8A1     0.103960
       4B2     0.205568     4B1     0.222370     1A2     0.229185
       9A1     0.233103    10A1     0.245136     5B1     0.568948
       5B2     0.569758    11A1     0.613236    12A1     0.985872
      13A1     2.058583     2A2     2.058783     6B1     2.063279
       6B2     2.064178    14A1     2.071381

    Beta Occupied:

       1A1   -19.707462     2A1    -1.993010     3A1    -1.190924

    Beta Virtual:

       4A1    -0.513956     1B1    -0.513879     1B2    -0.512266
       5A1    -0.052304     6A1    -0.007667     2B1     0.007957
       2B2     0.016236     7A1     0.080039     3B1     0.099005
       3B2     0.110851     8A1     0.115632     4B1     0.253277
       4B2     0.266084     9A1     0.273934     1A2     0.288811
      10A1     0.294026     5B1     0.673879     5B2     0.676960
      11A1     0.719919    12A1     1.096401    13A1     2.247078
       2A2     2.247279     6B1     2.251384     6B2     2.252521
      14A1     2.259168

    Final Occupation by Irrep:
             A1    A2    B1    B2
    DOCC [     3,    0,    0,    0 ]
    SOCC [     2,    0,    1,    2 ]
    NA   [     5,    0,    1,    2 ]
    NB   [     3,    0,    0,    0 ]

  @DF-UKS Final Energy:   -82.18300818409298

   => Energetics <=

    Nuclear Repulsion Energy =              4.3113152482243278
    One-Electron Energy =                -118.2524247130479864
    Two-Electron Energy =                  39.8799164437482645
    DFT Exchange-Correlation Energy =      -8.1218151630175814
    Empirical Dispersion Energy =           0.0000000000000000
    VV10 Nonlocal Energy =                  0.0000000000000000
    Total Energy =                        -82.1830081840929694

  UHF NO Occupations:
  HONO-2 :    5 A1 1.0000000
  HONO-1 :    2 B2 1.0000000
  HONO-0 :    1 B1 1.0000000
  LUNO+0 :    6 A1 0.0009528
  LUNO+1 :    7 A1 0.0000008
  LUNO+2 :    8 A1 0.0000001
  LUNO+3 :    9 A1 0.0000000

Computation Completed

Properties will be evaluated at   0.000000,   0.000000,   0.000000 [a0]

Properties computed using the SCF density matrix

 Multipole Moments:

 ------------------------------------------------------------------------------------
     Multipole            Electronic (a.u.)      Nuclear  (a.u.)        Total (a.u.)
 ------------------------------------------------------------------------------------

 L = 1.  Multiply by 2.5417464519 to convert [e a0] to [Debye]
 Dipole X            :          0.0000000            0.0000000            0.0000000
 Dipole Y            :          0.0000000            0.0000000            0.0000000
 Dipole Z            :         -1.2169320           -1.9700039           -3.1869358
 Magnitude           :                                                    3.1869358

 ------------------------------------------------------------------------------------

*** tstop() called on Joses-MacBook-Pro-2.local at Wed Jul 16 18:31:08 2025
Module time:
	user time   =       2.31 seconds =       0.04 minutes
	system time =       2.74 seconds =       0.05 minutes
	total time  =          0 seconds =       0.00 minutes
Total time:
	user time   =      45.90 seconds =       0.77 minutes
	system time =      60.20 seconds =       1.00 minutes
	total time  =         10 seconds =       0.17 minutes

*** tstart() called on Joses-MacBook-Pro-2.local
*** at Wed Jul 16 18:31:08 2025

         ------------------------------------------------------------
                                   SCF GRAD
                          Rob Parrish, Justin Turney,
                       Andy Simmonett, and Alex Sokolov
         ------------------------------------------------------------

  ==> Geometry <==

    Molecular point group: c2v
    Full point group: C_inf_v

    Geometry (in Angstrom), charge = 0, multiplicity = 6:

       Center              X                  Y                   Z               Mass
    ------------   -----------------  -----------------  -----------------  -----------------
         LI           0.000000000000     0.000000000000     2.047625713571     7.016003436600
         O            0.000000000000     0.000000000000    -0.898169786146    15.994914619570

  Nuclear repulsion =    4.311315248224328

  ==> Basis Set <==

  Basis Set: CC-PVDZ
    Blend: CC-PVDZ
    Number of shells: 12
    Number of basis functions: 28
    Number of Cartesian functions: 30
    Spherical Harmonics?: true
    Max angular momentum: 2

  ==> DFJKGrad: Density-Fitted SCF Gradients <==

    Gradient:                    1
    J tasked:                  Yes
    K tasked:                  Yes
    wK tasked:                  No
    OpenMP threads:              1
    Integrals threads:           1
    Memory [MiB]:              375
    Schwarz Cutoff:          1E-12
    Fitting Condition:       1E-10

   => Auxiliary Basis Set <=

  Basis Set: (CC-PVDZ AUX)
    Blend: CC-PVDZ-JKFIT + DEF2-UNIVERSAL-JKFIT
    Number of shells: 41
    Number of basis functions: 121
    Number of Cartesian functions: 141
    Spherical Harmonics?: true
    Max angular momentum: 3

  ==> DFT Potential <==

   => LibXC <=

    Version 6.2.2
    S. Lehtola, C. Steigemann, M. J.T. Oliveira, and M. A.L. Marques.,  SoftwareX 7, 1â€“5 (2018) (10.1016/j.softx.2017.11.002)

   => Composite Functional: B3LYP <=

    B3LYP Hyb-GGA Exchange-Correlation Functional

    P. J. Stephens, F. J. Devlin, C. F. Chabalowski, and M. J. Frisch.,  J. Phys. Chem. 98, 11623 (1994) (10.1021/j100096a001)

    Deriv               =              1
    GGA                 =           TRUE
    Meta                =          FALSE

    Exchange Hybrid     =           TRUE
    MP2 Hybrid          =          FALSE

   => Exchange Functionals <=

    0.0800   Slater exchange
    0.7200         Becke 88

   => Exact (HF) Exchange <=

    0.2000               HF

   => Correlation Functionals <=

    0.1900   Vosko, Wilk & Nusair (VWN5_RPA)
    0.8100   Lee, Yang & Parr

   => LibXC Density Thresholds  <==

    XC_HYB_GGA_XC_B3LYP:  1.00E-15

   => Molecular Quadrature <=

    Radial Scheme          =       TREUTLER
    Pruning Scheme         =           NONE
    Nuclear Scheme         =       TREUTLER

    Blocking Scheme        =         OCTREE
    BS radius alpha        =              1
    Pruning alpha          =              1
    Radial Points          =             75
    Spherical Points       =            302
    Total Points           =          44367
    Total Blocks           =            424
    Max Points             =            254
    Max Functions          =             28
    Weights Tolerance      =       1.00E-15

  -Total Gradient:
     Atom            X                  Y                   Z
    ------   -----------------  -----------------  -----------------
       1        0.000000000000     0.000000000000    -0.000009032763
       2        0.000000000000    -0.000000000000    -0.000004361386

*** tstop() called on Joses-MacBook-Pro-2.local at Wed Jul 16 18:31:09 2025
Module time:
	user time   =       0.46 seconds =       0.01 minutes
	system time =       1.10 seconds =       0.02 minutes
	total time  =          1 seconds =       0.02 minutes
Total time:
	user time   =      46.37 seconds =       0.77 minutes
	system time =      61.30 seconds =       1.02 minutes
	total time  =         11 seconds =       0.18 minutes

    			-----------------------------------------

    			 OPTKING 3.0: for geometry optimizations

    			     By R.A. King, Bethel University

    			        with contributions from

    			    A.V. Copan, J. Cayton, A. Heide

    			-----------------------------------------

	                            ===> Fragment 1 <==

	 Z (Atomic Numbers)          Masses                          Geom
	       3.000000             7.016003          0.00000000  0.00000000  3.86945181
	       8.000000            15.994915          0.00000000  0.00000000 -1.69729491

	 - Coordinate -           - BOHR/RAD -       - ANG/DEG -
	 R(1,2)           =         5.566747           2.945795

	        --- Internal Coordinate Step in ANG or DEG, aJ/ANG or AJ/DEG ---
	-------------------------------------------------------------------------------
	           Coordinate      Previous         Force          Change          New
	           ----------      --------        ------          ------        ------
	               R(1,2)       2.94580        0.00002        0.00008       2.94588
	-------------------------------------------------------------------------------

	                                 ==> Convergence Check <==

	Measures of convergence in internal coordinates in au.

	Criteria marked as inactive (o), active & met (*), and active & unmet ( ).

	----------------------------------------------------------------------------------------------
	   Step    Total Energy     Delta E     Max Force     RMS Force      Max Disp      RMS Disp
	----------------------------------------------------------------------------------------------
	  Convergence Criteria     1.00e-06 *    3.00e-04 *             o    1.20e-03 *             o
	----------------------------------------------------------------------------------------------
	    13     -82.18300818   -8.61e-09 *    2.34e-06 *    2.34e-06 o    1.59e-04 *    1.59e-04 o  ~
	----------------------------------------------------------------------------------------------

Next Geometry in Ang
	Fragment 1 (Ang)

	   Li   0.0000000000   0.0000000000   2.0476676745
	    O   0.0000000000   0.0000000000  -0.8982117471

    Final optimized geometry and variables:
    Molecular point group: c2v
    Full point group: C_inf_v

    Geometry (in Angstrom), charge = 0, multiplicity = 6:

    LI           0.000000000000     0.000000000000     2.047625713571
    O            0.000000000000     0.000000000000    -0.898169786146

    Psi4 stopped on: Wednesday, 16 July 2025 06:31PM
    Psi4 wall time for execution: 0:00:10.80

*** Psi4 exiting successfully. Buy a developer a beer!
