                               Psi4 1.9.1 release

  ==> Input File <==

--------------------------------------------------------------------------
molecule {
0 6
Be   0.00000        0.60000        0.00000
N   0.00000       -0.60000        0.00000
}

set {
basis              cc-pvdz
reference          uks
maxiter            500
geom_maxiter       500
DAMPING_PERCENTAGE 1
guess              SAP
}

optimize('b3lyp')
--------------------------------------------------------------------------

    Molecular point group: c2v
  Charge       = 0
  Multiplicity = 6
  Basis Set: CC-PVDZ
    Blend: CC-PVDZ
  Basis Set: (CC-PVDZ AUX)
    Blend: CC-PVDZ-JKFIT + DEF2-UNIVERSAL-JKFIT
  @DF-UKS Final Energy:   -68.93051408162660
    Total Energy =                        -68.9305140816265975
 Dipole X            :          0.0000000            0.0000000            0.0000000
 Dipole Y            :          0.0000000            0.0000000            0.0000000
 Dipole Z            :         -1.0866437           -0.6968945           -1.7835383
 Magnitude           :                                                    1.7835383
    Molecular point group: c2v
  Basis Set: CC-PVDZ
    Blend: CC-PVDZ
  Basis Set: (CC-PVDZ AUX)
    Blend: CC-PVDZ-JKFIT + DEF2-UNIVERSAL-JKFIT
  Basis Set: CC-PVDZ
    Blend: CC-PVDZ
  Basis Set: (CC-PVDZ AUX)
    Blend: CC-PVDZ-JKFIT + DEF2-UNIVERSAL-JKFIT
  @DF-UKS Final Energy:   -69.06844531078997
    Total Energy =                        -69.0684453107899685
  Basis Set: CC-PVDZ
    Blend: CC-PVDZ
  Basis Set: (CC-PVDZ AUX)
    Blend: CC-PVDZ-JKFIT + DEF2-UNIVERSAL-JKFIT
  Basis Set: CC-PVDZ
    Blend: CC-PVDZ
  @DF-UKS Final Energy:   -69.10463035958747
    Total Energy =                        -69.1046303595874747
  @DF-UKS Final Energy:   -69.13010587784449
    Total Energy =                        -69.1301058778444855
  @DF-UKS Final Energy:   -69.14410685524213
    Total Energy =                        -69.1441068552421285
  @DF-UKS Final Energy:   -69.15320913683288
    Total Energy =                        -69.1532091368328850
  @DF-UKS Final Energy:   -69.15947417650948
    Total Energy =                        -69.1594741765094767
  @DF-UKS Final Energy:   -69.16389710537452
    Total Energy =                        -69.1638971053745166
  @DF-UKS Final Energy:   -69.16664669985038
    Total Energy =                        -69.1666466998503751
  @DF-UKS Final Energy:   -69.16673655102672
    Total Energy =                        -69.1667365510267160
  @DF-UKS Final Energy:   -69.16831387560320
    Total Energy =                        -69.1683138756032037
  @DF-UKS Final Energy:   -69.16833860533890
    Total Energy =                        -69.1683386053389029
  @DF-UKS Final Energy:   -69.16904012500684
    Total Energy =                        -69.1690401250068447
  @DF-UKS Final Energy:   -69.16904592273420
    Total Energy =                        -69.1690459227341989
  @DF-UKS Final Energy:   -69.16905160289839
    Total Energy =                        -69.1690516028983922
  @DF-UKS Final Energy:   -69.16931785933977
    Total Energy =                        -69.1693178593397704
  @DF-UKS Final Energy:   -69.16938568364425
    Total Energy =                        -69.1693856836442507
  @DF-UKS Final Energy:   -69.16940554904846
    Total Energy =                        -69.1694055490484629
  Basis Set: (CC-PVDZ AUX)
    Blend: CC-PVDZ-JKFIT + DEF2-UNIVERSAL-JKFIT
  Basis Set: CC-PVDZ
    Blend: CC-PVDZ
  Basis Set: (CC-PVDZ AUX)
    Blend: CC-PVDZ-JKFIT + DEF2-UNIVERSAL-JKFIT
  @DF-UKS Final Energy:   -69.16940865999476
    Total Energy =                        -69.1694086599947582
  Basis Set: CC-PVDZ
    Blend: CC-PVDZ
  Basis Set: (CC-PVDZ AUX)
    Blend: CC-PVDZ-JKFIT + DEF2-UNIVERSAL-JKFIT
  Charge       = 0
  Multiplicity = 6
  Basis Set: CC-PVDZ
    Blend: CC-PVDZ
  Basis Set: (CC-PVDZ AUX)
    Blend: CC-PVDZ-JKFIT + DEF2-UNIVERSAL-JKFIT

    Orbital Energies [Eh]
    ---------------------

    Alpha Occupied:

       1A1   -14.442918     2A1    -4.114490     3A1    -0.809240
       4A1    -0.352778     1B1    -0.351685     1B2    -0.351503
       5A1    -0.267838     2B2    -0.137709

    Alpha Virtual:

       2B1    -0.065571     6A1    -0.063394     3B2     0.166386
       7A1     0.179543     3B1     0.185727     8A1     0.193154
       4B2     0.442309     1A2     0.442455     9A1     0.446459
      10A1     0.456658     4B1     0.460721     5B1     0.653985
       5B2     0.654385    11A1     0.683749    12A1     0.814852
       6B1     1.671860     6B2     1.672026    13A1     1.672044
       2A2     1.672048    14A1     1.673596

    Beta Occupied:

       1A1   -14.386605     2A1    -4.095891     3A1    -0.612414

    Beta Virtual:

       4A1    -0.121911     1B1    -0.097686     1B2    -0.097345
       5A1    -0.097092     2B1    -0.001347     6A1     0.002085
       2B2     0.027708     3B1     0.212842     7A1     0.216518
       8A1     0.230956     3B2     0.238665     9A1     0.525804
       4B1     0.530078     1A2     0.558578     4B2     0.558883
      10A1     0.564467     5B1     0.761286     5B2     0.761773
      11A1     0.788619    12A1     0.912460     6B1     1.819194
       6B2     1.819390    13A1     1.819787     2A2     1.819788
      14A1     1.820739

    Final Occupation by Irrep:
             A1    A2    B1    B2
    DOCC [     3,    0,    0,    0 ]
    SOCC [     2,    0,    1,    2 ]
    NA   [     5,    0,    1,    2 ]
    NB   [     3,    0,    0,    0 ]

  @DF-UKS Final Energy:   -69.16940880444454

   => Energetics <=

    Nuclear Repulsion Energy =              3.7278846893229312
    One-Electron Energy =                -100.2981158930447805
    Two-Electron Energy =                  35.1371074478128378
    DFT Exchange-Correlation Energy =      -7.7362850485355406
    Empirical Dispersion Energy =           0.0000000000000000
    VV10 Nonlocal Energy =                  0.0000000000000000
    Total Energy =                        -69.1694088044445436

  UHF NO Occupations:
  HONO-2 :    1 B2 1.0000000
  HONO-1 :    5 A1 1.0000000
  HONO-0 :    2 B2 1.0000000
  LUNO+0 :    6 A1 0.0010765
  LUNO+1 :    7 A1 0.0000007
  LUNO+2 :    8 A1 0.0000001
  LUNO+3 :    9 A1 0.0000000

Computation Completed

Properties will be evaluated at   0.000000,   0.000000,   0.000000 [a0]

Properties computed using the SCF density matrix

 Multipole Moments:

 ------------------------------------------------------------------------------------
     Multipole            Electronic (a.u.)      Nuclear  (a.u.)        Total (a.u.)
 ------------------------------------------------------------------------------------

 L = 1.  Multiply by 2.5417464519 to convert [e a0] to [Debye]
 Dipole X            :          0.0000000            0.0000000            0.0000000
 Dipole Y            :          0.0000000            0.0000000            0.0000000
 Dipole Z            :          2.2494282           -2.3082481           -0.0588200
 Magnitude           :                                                    0.0588200

 ------------------------------------------------------------------------------------

*** tstop() called on Joses-MacBook-Pro-2.local at Wed Jul 16 18:40:46 2025
Module time:
	user time   =       2.55 seconds =       0.04 minutes
	system time =       2.53 seconds =       0.04 minutes
	total time  =          0 seconds =       0.00 minutes
Total time:
	user time   =      76.94 seconds =       1.28 minutes
	system time =      81.69 seconds =       1.36 minutes
	total time  =         14 seconds =       0.23 minutes

*** tstart() called on Joses-MacBook-Pro-2.local
*** at Wed Jul 16 18:40:46 2025

         ------------------------------------------------------------
                                   SCF GRAD
                          Rob Parrish, Justin Turney,
                       Andy Simmonett, and Alex Sokolov
         ------------------------------------------------------------

  ==> Geometry <==

    Molecular point group: c2v
    Full point group: C_inf_v

    Geometry (in Angstrom), charge = 0, multiplicity = 6:

       Center              X                  Y                   Z               Mass
    ------------   -----------------  -----------------  -----------------  -----------------
         BE           0.000000000000     0.000000000000     2.418266990014     9.012183065000
         N            0.000000000000     0.000000000000    -1.556362896258    14.003074004430

  Nuclear repulsion =    3.727884689322931

  ==> Basis Set <==

  Basis Set: CC-PVDZ
    Blend: CC-PVDZ
    Number of shells: 12
    Number of basis functions: 28
    Number of Cartesian functions: 30
    Spherical Harmonics?: true
    Max angular momentum: 2

  ==> DFJKGrad: Density-Fitted SCF Gradients <==

    Gradient:                    1
    J tasked:                  Yes
    K tasked:                  Yes
    wK tasked:                  No
    OpenMP threads:              1
    Integrals threads:           1
    Memory [MiB]:              375
    Schwarz Cutoff:          1E-12
    Fitting Condition:       1E-10

   => Auxiliary Basis Set <=

  Basis Set: (CC-PVDZ AUX)
    Blend: CC-PVDZ-JKFIT + DEF2-UNIVERSAL-JKFIT
    Number of shells: 41
    Number of basis functions: 121
    Number of Cartesian functions: 141
    Spherical Harmonics?: true
    Max angular momentum: 3

  ==> DFT Potential <==

   => LibXC <=

    Version 6.2.2
    S. Lehtola, C. Steigemann, M. J.T. Oliveira, and M. A.L. Marques.,  SoftwareX 7, 1â€“5 (2018) (10.1016/j.softx.2017.11.002)

   => Composite Functional: B3LYP <=

    B3LYP Hyb-GGA Exchange-Correlation Functional

    P. J. Stephens, F. J. Devlin, C. F. Chabalowski, and M. J. Frisch.,  J. Phys. Chem. 98, 11623 (1994) (10.1021/j100096a001)

    Deriv               =              1
    GGA                 =           TRUE
    Meta                =          FALSE

    Exchange Hybrid     =           TRUE
    MP2 Hybrid          =          FALSE

   => Exchange Functionals <=

    0.0800   Slater exchange
    0.7200         Becke 88

   => Exact (HF) Exchange <=

    0.2000               HF

   => Correlation Functionals <=

    0.1900   Vosko, Wilk & Nusair (VWN5_RPA)
    0.8100   Lee, Yang & Parr

   => LibXC Density Thresholds  <==

    XC_HYB_GGA_XC_B3LYP:  1.00E-15

   => Molecular Quadrature <=

    Radial Scheme          =       TREUTLER
    Pruning Scheme         =           NONE
    Nuclear Scheme         =       TREUTLER

    Blocking Scheme        =         OCTREE
    BS radius alpha        =              1
    Pruning alpha          =              1
    Radial Points          =             75
    Spherical Points       =            302
    Total Points           =          43677
    Total Blocks           =            429
    Max Points             =            255
    Max Functions          =             28
    Weights Tolerance      =       1.00E-15

  -Total Gradient:
     Atom            X                  Y                   Z
    ------   -----------------  -----------------  -----------------
       1        0.000000000000    -0.000000000000    -0.000001201747
       2        0.000000000000     0.000000000000     0.000003451811

*** tstop() called on Joses-MacBook-Pro-2.local at Wed Jul 16 18:40:47 2025
Module time:
	user time   =       0.53 seconds =       0.01 minutes
	system time =       0.98 seconds =       0.02 minutes
	total time  =          1 seconds =       0.02 minutes
Total time:
	user time   =      77.48 seconds =       1.29 minutes
	system time =      82.67 seconds =       1.38 minutes
	total time  =         15 seconds =       0.25 minutes

    			-----------------------------------------

    			 OPTKING 3.0: for geometry optimizations

    			     By R.A. King, Bethel University

    			        with contributions from

    			    A.V. Copan, J. Cayton, A. Heide

    			-----------------------------------------

	                            ===> Fragment 1 <==

	 Z (Atomic Numbers)          Masses                          Geom
	       4.000000             9.012183          0.00000000  0.00000000  4.56986231
	       7.000000            14.003074          0.00000000  0.00000000 -2.94109963

	 - Coordinate -           - BOHR/RAD -       - ANG/DEG -
	 R(1,2)           =         7.510962           3.974630

	        --- Internal Coordinate Step in ANG or DEG, aJ/ANG or AJ/DEG ---
	-------------------------------------------------------------------------------
	           Coordinate      Previous         Force          Change          New
	           ----------      --------        ------          ------        ------
	               R(1,2)       3.97463        0.00002        0.00291       3.97754
	-------------------------------------------------------------------------------

	                                 ==> Convergence Check <==

	Measures of convergence in internal coordinates in au.

	Criteria marked as inactive (o), active & met (*), and active & unmet ( ).

	----------------------------------------------------------------------------------------------
	   Step    Total Energy     Delta E     Max Force     RMS Force      Max Disp      RMS Disp
	----------------------------------------------------------------------------------------------
	  Convergence Criteria     1.00e-06 *    3.00e-04 *             o    1.20e-03 *             o
	----------------------------------------------------------------------------------------------
	    20     -69.16940880   -1.44e-07 *    2.33e-06 *    2.33e-06 o    5.49e-03      5.49e-03 o  ~
	----------------------------------------------------------------------------------------------

Next Geometry in Ang
	Fragment 1 (Ang)

	   Be   0.0000000000   0.0000000000   2.4197197802
	    N   0.0000000000   0.0000000000  -1.5578156865

    Final optimized geometry and variables:
    Molecular point group: c2v
    Full point group: C_inf_v

    Geometry (in Angstrom), charge = 0, multiplicity = 6:

    BE           0.000000000000     0.000000000000     2.418266990014
    N            0.000000000000     0.000000000000    -1.556362896258

    Psi4 stopped on: Wednesday, 16 July 2025 06:40PM
    Psi4 wall time for execution: 0:00:15.64

*** Psi4 exiting successfully. Buy a developer a beer!
