                               Psi4 1.9.1 release

  ==> Input File <==

--------------------------------------------------------------------------
molecule {
0 6
B   0.00000        0.60000        0.00000
Mg   0.00000       -0.60000        0.00000
}

set {
basis              cc-pvdz
reference          uks
maxiter            500
geom_maxiter       500
DAMPING_PERCENTAGE 1
guess              SAP
}

optimize('b3lyp')
--------------------------------------------------------------------------

    Molecular point group: c2v
  Charge       = 0
  Multiplicity = 6
  Basis Set: CC-PVDZ
    Blend: CC-PVDZ
  Basis Set: (CC-PVDZ AUX)
    Blend: CC-PVDZ-JKFIT + DEF2-UNIVERSAL-JKFIT
  @DF-UKS Final Energy:  -224.05985224334216
    Total Energy =                       -224.0598522433421635
 Dipole X            :          0.0000000            0.0000000            0.0000000
 Dipole Y            :          0.0000000            0.0000000            0.0000000
 Dipole Z            :          0.9035539           -0.7896955            0.1138584
 Magnitude           :                                                    0.1138584
    Molecular point group: c2v
  Basis Set: CC-PVDZ
    Blend: CC-PVDZ
  Basis Set: (CC-PVDZ AUX)
    Blend: CC-PVDZ-JKFIT + DEF2-UNIVERSAL-JKFIT
  Basis Set: CC-PVDZ
    Blend: CC-PVDZ
  Basis Set: (CC-PVDZ AUX)
    Blend: CC-PVDZ-JKFIT + DEF2-UNIVERSAL-JKFIT
  @DF-UKS Final Energy:  -224.24072130176094
    Total Energy =                       -224.2407213017609422
  Basis Set: CC-PVDZ
    Blend: CC-PVDZ
  Basis Set: (CC-PVDZ AUX)
    Blend: CC-PVDZ-JKFIT + DEF2-UNIVERSAL-JKFIT
  Basis Set: CC-PVDZ
    Blend: CC-PVDZ
  @DF-UKS Final Energy:  -224.40066646102818
    Total Energy =                       -224.4006664610281803
  @DF-UKS Final Energy:  -224.50632920447757
    Total Energy =                       -224.5063292044775665
  @DF-UKS Final Energy:  -224.55997961835811
    Total Energy =                       -224.5599796183581134
  @DF-UKS Final Energy:  -224.58377817106665
    Total Energy =                       -224.5837781710666547
  @DF-UKS Final Energy:  -224.59343771234467
    Total Energy =                       -224.5934377123446950
  @DF-UKS Final Energy:  -224.59636895915204
    Total Energy =                       -224.5963689591520449
  @DF-UKS Final Energy:  -224.59683040093995
    Total Energy =                       -224.5968304009399787
  @DF-UKS Final Energy:  -224.59691861154323
    Total Energy =                       -224.5969186115432308
  Basis Set: (CC-PVDZ AUX)
    Blend: CC-PVDZ-JKFIT + DEF2-UNIVERSAL-JKFIT
  Basis Set: CC-PVDZ
    Blend: CC-PVDZ
  Basis Set: (CC-PVDZ AUX)
    Blend: CC-PVDZ-JKFIT + DEF2-UNIVERSAL-JKFIT
  @DF-UKS Final Energy:  -224.59692453271126
    Total Energy =                       -224.5969245327112276
  Basis Set: CC-PVDZ
    Blend: CC-PVDZ
  Basis Set: (CC-PVDZ AUX)
    Blend: CC-PVDZ-JKFIT + DEF2-UNIVERSAL-JKFIT
  Charge       = 0
  Multiplicity = 6
  Basis Set: CC-PVDZ
    Blend: CC-PVDZ
  Basis Set: (CC-PVDZ AUX)
    Blend: CC-PVDZ-JKFIT + DEF2-UNIVERSAL-JKFIT

    Orbital Energies [Eh]
    ---------------------

    Alpha Occupied:

       1A1   -46.895031     2A1    -6.810816     3A1    -3.174421
       1B2    -1.918107     1B1    -1.918107     4A1    -1.917374
       5A1    -0.450722     6A1    -0.254230     2B2    -0.189454
       2B1    -0.189454     7A1    -0.178327

    Alpha Virtual:

       3B2    -0.044007     3B1    -0.044007     8A1     0.014170
       9A1     0.080577     4B2     0.128681     4B1     0.128681
      10A1     0.181663    11A1     0.261115    12A1     0.264746
       1A2     0.264746     5B1     0.278228     5B2     0.278228
       6B1     0.327552     6B2     0.327552    13A1     0.491254
      14A1     0.525399     2A2     0.692580    15A1     0.692583
       7B2     0.804381     7B1     0.804381    16A1     1.050433

    Beta Occupied:

       1A1   -46.890655     2A1    -6.770634     3A1    -3.167226
       1B2    -1.912940     1B1    -1.912940     4A1    -1.909563

    Beta Virtual:

       5A1    -0.207988     6A1    -0.103460     2B2    -0.032828
       2B1    -0.032828     7A1     0.006546     3B2     0.061663
       3B1     0.061663     8A1     0.069369     9A1     0.117810
       4B2     0.157372     4B1     0.157372    10A1     0.247819
      11A1     0.310745     1A2     0.310746    12A1     0.338787
       5B1     0.358608     5B2     0.358608     6B1     0.413262
       6B2     0.413262    13A1     0.576238    14A1     0.637652
       2A2     0.860392    15A1     0.860397     7B2     0.963776
       7B1     0.963776    16A1     1.187539

    Final Occupation by Irrep:
             A1    A2    B1    B2
    DOCC [     4,    0,    1,    1 ]
    SOCC [     3,    0,    1,    1 ]
    NA   [     7,    0,    2,    2 ]
    NB   [     4,    0,    1,    1 ]

  @DF-UKS Final Energy:  -224.59692493140651

   => Energetics <=

    Nuclear Repulsion Energy =             13.6783274911828165
    One-Electron Energy =                -338.2947049848995675
    Two-Electron Energy =                 116.5177297456761210
    DFT Exchange-Correlation Energy =     -16.4982771833658539
    Empirical Dispersion Energy =           0.0000000000000000
    VV10 Nonlocal Energy =                  0.0000000000000000
    Total Energy =                       -224.5969249314064768

  UHF NO Occupations:
  HONO-2 :    2 B1 1.0000000
  HONO-1 :    2 B2 1.0000000
  HONO-0 :    7 A1 1.0000000
  LUNO+0 :    8 A1 0.0000006
  LUNO+1 :    3 B1 0.0000006
  LUNO+2 :    3 B2 0.0000006
  LUNO+3 :    9 A1 0.0000005

Computation Completed

Properties will be evaluated at   0.000000,   0.000000,   0.000000 [a0]

Properties computed using the SCF density matrix

 Multipole Moments:

 ------------------------------------------------------------------------------------
     Multipole            Electronic (a.u.)      Nuclear  (a.u.)        Total (a.u.)
 ------------------------------------------------------------------------------------

 L = 1.  Multiply by 2.5417464519 to convert [e a0] to [Debye]
 Dipole X            :          0.0000000            0.0000000            0.0000000
 Dipole Y            :          0.0000000            0.0000000            0.0000000
 Dipole Z            :          0.3978767           -1.5275582           -1.1296815
 Magnitude           :                                                    1.1296815

 ------------------------------------------------------------------------------------

*** tstop() called on Joses-MacBook-Pro-2.local at Wed Jul 16 18:53:50 2025
Module time:
	user time   =       2.17 seconds =       0.04 minutes
	system time =       2.98 seconds =       0.05 minutes
	total time  =          1 seconds =       0.02 minutes
Total time:
	user time   =      43.32 seconds =       0.72 minutes
	system time =      80.92 seconds =       1.35 minutes
	total time  =         14 seconds =       0.23 minutes

*** tstart() called on Joses-MacBook-Pro-2.local
*** at Wed Jul 16 18:53:50 2025

         ------------------------------------------------------------
                                   SCF GRAD
                          Rob Parrish, Justin Turney,
                       Andy Simmonett, and Alex Sokolov
         ------------------------------------------------------------

  ==> Geometry <==

    Molecular point group: c2v
    Full point group: C_inf_v

    Geometry (in Angstrom), charge = 0, multiplicity = 6:

       Center              X                  Y                   Z               Mass
    ------------   -----------------  -----------------  -----------------  -----------------
         B            0.000000000000     0.000000000000     1.590969920493    11.009305360000
         MG           0.000000000000     0.000000000000    -0.730266550901    23.985041697000

  Nuclear repulsion =   13.678327491182817

  ==> Basis Set <==

  Basis Set: CC-PVDZ
    Blend: CC-PVDZ
    Number of shells: 14
    Number of basis functions: 32
    Number of Cartesian functions: 34
    Spherical Harmonics?: true
    Max angular momentum: 2

  ==> DFJKGrad: Density-Fitted SCF Gradients <==

    Gradient:                    1
    J tasked:                  Yes
    K tasked:                  Yes
    wK tasked:                  No
    OpenMP threads:              1
    Integrals threads:           1
    Memory [MiB]:              375
    Schwarz Cutoff:          1E-12
    Fitting Condition:       1E-10

   => Auxiliary Basis Set <=

  Basis Set: (CC-PVDZ AUX)
    Blend: CC-PVDZ-JKFIT + DEF2-UNIVERSAL-JKFIT
    Number of shells: 58
    Number of basis functions: 182
    Number of Cartesian functions: 218
    Spherical Harmonics?: true
    Max angular momentum: 4

  ==> DFT Potential <==

   => LibXC <=

    Version 6.2.2
    S. Lehtola, C. Steigemann, M. J.T. Oliveira, and M. A.L. Marques.,  SoftwareX 7, 1â€“5 (2018) (10.1016/j.softx.2017.11.002)

   => Composite Functional: B3LYP <=

    B3LYP Hyb-GGA Exchange-Correlation Functional

    P. J. Stephens, F. J. Devlin, C. F. Chabalowski, and M. J. Frisch.,  J. Phys. Chem. 98, 11623 (1994) (10.1021/j100096a001)

    Deriv               =              1
    GGA                 =           TRUE
    Meta                =          FALSE

    Exchange Hybrid     =           TRUE
    MP2 Hybrid          =          FALSE

   => Exchange Functionals <=

    0.0800   Slater exchange
    0.7200         Becke 88

   => Exact (HF) Exchange <=

    0.2000               HF

   => Correlation Functionals <=

    0.1900   Vosko, Wilk & Nusair (VWN5_RPA)
    0.8100   Lee, Yang & Parr

   => LibXC Density Thresholds  <==

    XC_HYB_GGA_XC_B3LYP:  1.00E-15

   => Molecular Quadrature <=

    Radial Scheme          =       TREUTLER
    Pruning Scheme         =           NONE
    Nuclear Scheme         =       TREUTLER

    Blocking Scheme        =         OCTREE
    BS radius alpha        =              1
    Pruning alpha          =              1
    Radial Points          =             75
    Spherical Points       =            302
    Total Points           =          43274
    Total Blocks           =            418
    Max Points             =            256
    Max Functions          =             32
    Weights Tolerance      =       1.00E-15

  -Total Gradient:
     Atom            X                  Y                   Z
    ------   -----------------  -----------------  -----------------
       1        0.000000000000    -0.000000000000    -0.000063244793
       2        0.000000000000     0.000000000000     0.000048906589

*** tstop() called on Joses-MacBook-Pro-2.local at Wed Jul 16 18:53:50 2025
Module time:
	user time   =       1.23 seconds =       0.02 minutes
	system time =       1.74 seconds =       0.03 minutes
	total time  =          0 seconds =       0.00 minutes
Total time:
	user time   =      44.55 seconds =       0.74 minutes
	system time =      82.67 seconds =       1.38 minutes
	total time  =         14 seconds =       0.23 minutes

    			-----------------------------------------

    			 OPTKING 3.0: for geometry optimizations

    			     By R.A. King, Bethel University

    			        with contributions from

    			    A.V. Copan, J. Cayton, A. Heide

    			-----------------------------------------

	                            ===> Fragment 1 <==

	 Z (Atomic Numbers)          Masses                          Geom
	       5.000000            11.009305          0.00000000  0.00000000  3.00649742
	      12.000000            23.985042          0.00000000  0.00000000 -1.38000378

	 - Coordinate -           - BOHR/RAD -       - ANG/DEG -
	 R(1,2)           =         4.386501           2.321236

	        --- Internal Coordinate Step in ANG or DEG, aJ/ANG or AJ/DEG ---
	-------------------------------------------------------------------------------
	           Coordinate      Previous         Force          Change          New
	           ----------      --------        ------          ------        ------
	               R(1,2)       2.32124        0.00046        0.00054       2.32177
	-------------------------------------------------------------------------------

	                                 ==> Convergence Check <==

	Measures of convergence in internal coordinates in au.

	Criteria marked as inactive (o), active & met (*), and active & unmet ( ).

	----------------------------------------------------------------------------------------------
	   Step    Total Energy     Delta E     Max Force     RMS Force      Max Disp      RMS Disp
	----------------------------------------------------------------------------------------------
	  Convergence Criteria     1.00e-06 *    3.00e-04 *             o    1.20e-03 *             o
	----------------------------------------------------------------------------------------------
	    12    -224.59692493   -3.99e-07 *    5.61e-05 *    5.61e-05 o    1.01e-03 *    1.01e-03 o  ~
	----------------------------------------------------------------------------------------------

Next Geometry in Ang
	Fragment 1 (Ang)

	    B   0.0000000000   0.0000000000   1.5912375251
	   Mg   0.0000000000   0.0000000000  -0.7305341555

    Final optimized geometry and variables:
    Molecular point group: c2v
    Full point group: C_inf_v

    Geometry (in Angstrom), charge = 0, multiplicity = 6:

    B            0.000000000000     0.000000000000     1.590969920493
    MG           0.000000000000     0.000000000000    -0.730266550901

    Psi4 stopped on: Wednesday, 16 July 2025 06:53PM
    Psi4 wall time for execution: 0:00:14.54

*** Psi4 exiting successfully. Buy a developer a beer!
