                               Psi4 1.9.1 release

  ==> Input File <==

--------------------------------------------------------------------------
molecule {
0 6
Ne   0.00000        0.60000        0.00000
Al   0.00000       -0.60000        0.00000
}

set {
basis              cc-pvdz
reference          uks
maxiter            500
geom_maxiter       500
DAMPING_PERCENTAGE 1
guess              SAP
}

optimize('b3lyp')
--------------------------------------------------------------------------

    Molecular point group: c2v
  Charge       = 0
  Multiplicity = 6
  Basis Set: CC-PVDZ
    Blend: CC-PVDZ
  Basis Set: (CC-PVDZ AUX)
    Blend: CC-PVDZ-JKFIT
  @DF-UKS Final Energy:  -369.82579489091557
    Total Energy =                       -369.8257948909156312
 Dipole X            :          0.0000000            0.0000000            0.0000000
 Dipole Y            :          0.0000000            0.0000000            0.0000000
 Dipole Z            :          1.0154859            0.4785826            1.4940685
 Magnitude           :                                                    1.4940685
    Molecular point group: c2v
  Basis Set: CC-PVDZ
    Blend: CC-PVDZ
  Basis Set: (CC-PVDZ AUX)
    Blend: CC-PVDZ-JKFIT
  Basis Set: CC-PVDZ
    Blend: CC-PVDZ
  Basis Set: (CC-PVDZ AUX)
    Blend: CC-PVDZ-JKFIT
  @DF-UKS Final Energy:  -370.06920592689136
    Total Energy =                       -370.0692059268914136
  Basis Set: CC-PVDZ
    Blend: CC-PVDZ
  Basis Set: (CC-PVDZ AUX)
    Blend: CC-PVDZ-JKFIT
  Basis Set: CC-PVDZ
    Blend: CC-PVDZ
  @DF-UKS Final Energy:  -370.23782067753922
    Total Energy =                       -370.2378206775392187
  @DF-UKS Final Energy:  -370.36323791298997
    Total Energy =                       -370.3632379129899732
  @DF-UKS Final Energy:  -370.46726945820780
    Total Energy =                       -370.4672694582077952
  @DF-UKS Final Energy:  -370.52574406690360
    Total Energy =                       -370.5257440669035987
  @DF-UKS Final Energy:  -370.55148890567574
    Total Energy =                       -370.5514889056757397
  @DF-UKS Final Energy:  -370.56140550450192
    Total Energy =                       -370.5614055045019768
  @DF-UKS Final Energy:  -370.56439516375622
    Total Energy =                       -370.5643951637562168
  @DF-UKS Final Energy:  -370.56492572559057
    Total Energy =                       -370.5649257255905127
  @DF-UKS Final Energy:  -370.56495958318067
    Total Energy =                       -370.5649595831806664
  Basis Set: (CC-PVDZ AUX)
    Blend: CC-PVDZ-JKFIT
  Basis Set: CC-PVDZ
    Blend: CC-PVDZ
  Basis Set: (CC-PVDZ AUX)
    Blend: CC-PVDZ-JKFIT
  @DF-UKS Final Energy:  -370.56496188283120
    Total Energy =                       -370.5649618828311986
  Basis Set: CC-PVDZ
    Blend: CC-PVDZ
  Basis Set: (CC-PVDZ AUX)
    Blend: CC-PVDZ-JKFIT
  Charge       = 0
  Multiplicity = 6
  Basis Set: CC-PVDZ
    Blend: CC-PVDZ
  Basis Set: (CC-PVDZ AUX)
    Blend: CC-PVDZ-JKFIT

    Orbital Energies [Eh]
    ---------------------

    Alpha Occupied:

       1A1   -56.024114     2A1   -31.652426     3A1    -4.108081
       4A1    -2.662189     1B1    -2.660691     1B2    -2.660691
       5A1    -2.022119     6A1    -1.194788     2B1    -1.084636
       2B2    -1.084636     7A1    -0.324965     8A1    -0.133910
       3B1    -0.110840     3B2    -0.110840

    Alpha Virtual:

       9A1     0.160003    10A1     0.221954     4B1     0.234233
       4B2     0.234233    11A1     0.257972     5B1     0.262861
       5B2     0.262861     1A2     0.282730    12A1     0.282730
      13A1     0.963185     6B2     0.968438     6B1     0.968438
      14A1     1.537870    15A1     4.080872     7B2     4.104287
       7B1     4.104287     2A2     4.185981    16A1     4.186376

    Beta Occupied:

       1A1   -56.014621     2A1   -31.611171     3A1    -4.094539
       4A1    -2.648784     1B1    -2.647086     1B2    -2.647086
       5A1    -1.912639     2B1    -1.043950     2B2    -1.043950

    Beta Virtual:

       6A1    -0.832211     7A1    -0.146409     8A1     0.003601
       3B1     0.031393     3B2     0.031393     9A1     0.223187
      10A1     0.288904     4B1     0.300433     4B2     0.300433
      11A1     0.363921     5B1     0.375502     5B2     0.375502
      12A1     0.395114     1A2     0.395116     6B2     0.987934
       6B1     0.987934    13A1     1.072099    14A1     1.597516
       2A2     4.205772    15A1     4.206132     7B1     4.219497
       7B2     4.219497    16A1     4.245733

    Final Occupation by Irrep:
             A1    A2    B1    B2
    DOCC [     5,    0,    2,    2 ]
    SOCC [     3,    0,    1,    1 ]
    NA   [     8,    0,    3,    3 ]
    NB   [     5,    0,    2,    2 ]

  @DF-UKS Final Energy:  -370.56496206747113

   => Energetics <=

    Nuclear Repulsion Energy =             24.0055968301793143
    One-Electron Energy =                -561.9273042095225037
    Two-Electron Energy =                 192.1581003243417456
    DFT Exchange-Correlation Energy =     -24.8013550124696742
    Empirical Dispersion Energy =           0.0000000000000000
    VV10 Nonlocal Energy =                  0.0000000000000000
    Total Energy =                       -370.5649620674711286

  UHF NO Occupations:
  HONO-2 :    8 A1 1.0000000
  HONO-1 :    3 B2 1.0000000
  HONO-0 :    3 B1 1.0000000
  LUNO+0 :    9 A1 0.0002677
  LUNO+1 :    4 B2 0.0000502
  LUNO+2 :    4 B1 0.0000502
  LUNO+3 :   10 A1 0.0000002

Computation Completed

Properties will be evaluated at   0.000000,   0.000000,   0.000000 [a0]

Properties computed using the SCF density matrix

 Multipole Moments:

 ------------------------------------------------------------------------------------
     Multipole            Electronic (a.u.)      Nuclear  (a.u.)        Total (a.u.)
 ------------------------------------------------------------------------------------

 L = 1.  Multiply by 2.5417464519 to convert [e a0] to [Debye]
 Dipole X            :          0.0000000            0.0000000            0.0000000
 Dipole Y            :          0.0000000            0.0000000            0.0000000
 Dipole Z            :          3.4327885            1.1428985            4.5756870
 Magnitude           :                                                    4.5756870

 ------------------------------------------------------------------------------------

*** tstop() called on Joses-MacBook-Pro-2.local at Wed Jul 16 19:34:53 2025
Module time:
	user time   =       2.14 seconds =       0.04 minutes
	system time =       3.50 seconds =       0.06 minutes
	total time  =          1 seconds =       0.02 minutes
Total time:
	user time   =      67.65 seconds =       1.13 minutes
	system time =      56.96 seconds =       0.95 minutes
	total time  =         12 seconds =       0.20 minutes

*** tstart() called on Joses-MacBook-Pro-2.local
*** at Wed Jul 16 19:34:53 2025

         ------------------------------------------------------------
                                   SCF GRAD
                          Rob Parrish, Justin Turney,
                       Andy Simmonett, and Alex Sokolov
         ------------------------------------------------------------

  ==> Geometry <==

    Molecular point group: c2v
    Full point group: C_inf_v

    Geometry (in Angstrom), charge = 0, multiplicity = 6:

       Center              X                  Y                   Z               Mass
    ------------   -----------------  -----------------  -----------------  -----------------
         NE           0.000000000000     0.000000000000     1.646043623726    19.992440176200
         AL           0.000000000000     0.000000000000    -1.219664647298    26.981538530000

  Nuclear repulsion =   24.005596830179314

  ==> Basis Set <==

  Basis Set: CC-PVDZ
    Blend: CC-PVDZ
    Number of shells: 14
    Number of basis functions: 32
    Number of Cartesian functions: 34
    Spherical Harmonics?: true
    Max angular momentum: 2

  ==> DFJKGrad: Density-Fitted SCF Gradients <==

    Gradient:                    1
    J tasked:                  Yes
    K tasked:                  Yes
    wK tasked:                  No
    OpenMP threads:              1
    Integrals threads:           1
    Memory [MiB]:              375
    Schwarz Cutoff:          1E-12
    Fitting Condition:       1E-10

   => Auxiliary Basis Set <=

  Basis Set: (CC-PVDZ AUX)
    Blend: CC-PVDZ-JKFIT
    Number of shells: 60
    Number of basis functions: 182
    Number of Cartesian functions: 211
    Spherical Harmonics?: true
    Max angular momentum: 3

  ==> DFT Potential <==

   => LibXC <=

    Version 6.2.2
    S. Lehtola, C. Steigemann, M. J.T. Oliveira, and M. A.L. Marques.,  SoftwareX 7, 1â€“5 (2018) (10.1016/j.softx.2017.11.002)

   => Composite Functional: B3LYP <=

    B3LYP Hyb-GGA Exchange-Correlation Functional

    P. J. Stephens, F. J. Devlin, C. F. Chabalowski, and M. J. Frisch.,  J. Phys. Chem. 98, 11623 (1994) (10.1021/j100096a001)

    Deriv               =              1
    GGA                 =           TRUE
    Meta                =          FALSE

    Exchange Hybrid     =           TRUE
    MP2 Hybrid          =          FALSE

   => Exchange Functionals <=

    0.0800   Slater exchange
    0.7200         Becke 88

   => Exact (HF) Exchange <=

    0.2000               HF

   => Correlation Functionals <=

    0.1900   Vosko, Wilk & Nusair (VWN5_RPA)
    0.8100   Lee, Yang & Parr

   => LibXC Density Thresholds  <==

    XC_HYB_GGA_XC_B3LYP:  1.00E-15

   => Molecular Quadrature <=

    Radial Scheme          =       TREUTLER
    Pruning Scheme         =           NONE
    Nuclear Scheme         =       TREUTLER

    Blocking Scheme        =         OCTREE
    BS radius alpha        =              1
    Pruning alpha          =              1
    Radial Points          =             75
    Spherical Points       =            302
    Total Points           =          43534
    Total Blocks           =            403
    Max Points             =            256
    Max Functions          =             32
    Weights Tolerance      =       1.00E-15

  -Total Gradient:
     Atom            X                  Y                   Z
    ------   -----------------  -----------------  -----------------
       1        0.000000000000     0.000000000000    -0.000022942552
       2        0.000000000000    -0.000000000000     0.000024419925

*** tstop() called on Joses-MacBook-Pro-2.local at Wed Jul 16 19:34:53 2025
Module time:
	user time   =       0.64 seconds =       0.01 minutes
	system time =       2.08 seconds =       0.03 minutes
	total time  =          0 seconds =       0.00 minutes
Total time:
	user time   =      68.29 seconds =       1.14 minutes
	system time =      59.04 seconds =       0.98 minutes
	total time  =         12 seconds =       0.20 minutes

    			-----------------------------------------

    			 OPTKING 3.0: for geometry optimizations

    			     By R.A. King, Bethel University

    			        with contributions from

    			    A.V. Copan, J. Cayton, A. Heide

    			-----------------------------------------

	                            ===> Fragment 1 <==

	 Z (Atomic Numbers)          Masses                          Geom
	      10.000000            19.992440          0.00000000  0.00000000  3.11057164
	      13.000000            26.981539          0.00000000  0.00000000 -2.30483215

	 - Coordinate -           - BOHR/RAD -       - ANG/DEG -
	 R(1,2)           =         5.415404           2.865708

	        --- Internal Coordinate Step in ANG or DEG, aJ/ANG or AJ/DEG ---
	-------------------------------------------------------------------------------
	           Coordinate      Previous         Force          Change          New
	           ----------      --------        ------          ------        ------
	               R(1,2)       2.86571        0.00020        0.00038       2.86609
	-------------------------------------------------------------------------------

	                                 ==> Convergence Check <==

	Measures of convergence in internal coordinates in au.

	Criteria marked as inactive (o), active & met (*), and active & unmet ( ).

	----------------------------------------------------------------------------------------------
	   Step    Total Energy     Delta E     Max Force     RMS Force      Max Disp      RMS Disp
	----------------------------------------------------------------------------------------------
	  Convergence Criteria     1.00e-06 *    3.00e-04 *             o    1.20e-03 *             o
	----------------------------------------------------------------------------------------------
	    13    -370.56496207   -1.85e-07 *    2.37e-05 *    2.37e-05 o    7.17e-04 *    7.17e-04 o  ~
	----------------------------------------------------------------------------------------------

Next Geometry in Ang
	Fragment 1 (Ang)

	   Ne   0.0000000000   0.0000000000   1.6462334143
	   Al   0.0000000000   0.0000000000  -1.2198544379

    Final optimized geometry and variables:
    Molecular point group: c2v
    Full point group: C_inf_v

    Geometry (in Angstrom), charge = 0, multiplicity = 6:

    NE           0.000000000000     0.000000000000     1.646043623726
    AL           0.000000000000     0.000000000000    -1.219664647298

    Psi4 stopped on: Wednesday, 16 July 2025 07:34PM
    Psi4 wall time for execution: 0:00:13.10

*** Psi4 exiting successfully. Buy a developer a beer!
