                               Psi4 1.9.1 release

  ==> Input File <==

--------------------------------------------------------------------------
molecule {
0 6
Al   0.00000        0.60000        0.00000
Ar   0.00000       -0.60000        0.00000
}

set {
basis              cc-pvdz
reference          uks
maxiter            500
geom_maxiter       500
DAMPING_PERCENTAGE 1
guess              SAP
}

optimize('b3lyp')
--------------------------------------------------------------------------

    Molecular point group: c2v
  Charge       = 0
  Multiplicity = 6
  Basis Set: CC-PVDZ
    Blend: CC-PVDZ
  Basis Set: (CC-PVDZ AUX)
    Blend: CC-PVDZ-JKFIT
  @DF-UKS Final Energy:  -767.87432370002568
    Total Energy =                       -767.8743237000256840
 Dipole X            :          0.0000000            0.0000000            0.0000000
 Dipole Y            :          0.0000000            0.0000000            0.0000000
 Dipole Z            :         -3.1028141            1.1464141           -1.9564000
 Magnitude           :                                                    1.9564000
    Molecular point group: c2v
  Basis Set: CC-PVDZ
    Blend: CC-PVDZ
  Basis Set: (CC-PVDZ AUX)
    Blend: CC-PVDZ-JKFIT
  Basis Set: CC-PVDZ
    Blend: CC-PVDZ
  Basis Set: (CC-PVDZ AUX)
    Blend: CC-PVDZ-JKFIT
  @DF-UKS Final Energy:  -767.90627614452114
    Total Energy =                       -767.9062761445210299
  Basis Set: CC-PVDZ
    Blend: CC-PVDZ
  Basis Set: (CC-PVDZ AUX)
    Blend: CC-PVDZ-JKFIT
  Basis Set: CC-PVDZ
    Blend: CC-PVDZ
  @DF-UKS Final Energy:  -767.96638067856964
    Total Energy =                       -767.9663806785695215
  @DF-UKS Final Energy:  -768.16921090755841
    Total Energy =                       -768.1692109075584085
  @DF-UKS Final Energy:  -768.70537513969055
    Total Energy =                       -768.7053751396905454
  @DF-UKS Final Energy:  -768.91085350412516
    Total Energy =                       -768.9108535041251571
  @DF-UKS Final Energy:  -769.06099924226271
    Total Energy =                       -769.0609992422627101
  @DF-UKS Final Energy:  -769.18666422330853
    Total Energy =                       -769.1866642233085258
  @DF-UKS Final Energy:  -769.28539029537501
    Total Energy =                       -769.2853902953750094
  @DF-UKS Final Energy:  -769.30012630823910
    Total Energy =                       -769.3001263082391006
  @DF-UKS Final Energy:  -769.34184369288653
    Total Energy =                       -769.3418436928865276
  @DF-UKS Final Energy:  -769.36661514428465
    Total Energy =                       -769.3666151442845376
  @DF-UKS Final Energy:  -769.37647729601667
    Total Energy =                       -769.3764772960166738
  @DF-UKS Final Energy:  -769.37987786547967
    Total Energy =                       -769.3798778654796706
  @DF-UKS Final Energy:  -769.38061309704449
    Total Energy =                       -769.3806130970446020
  @DF-UKS Final Energy:  -769.38067631338924
    Total Energy =                       -769.3806763133892446
  Basis Set: (CC-PVDZ AUX)
    Blend: CC-PVDZ-JKFIT
  Basis Set: CC-PVDZ
    Blend: CC-PVDZ
  Basis Set: (CC-PVDZ AUX)
    Blend: CC-PVDZ-JKFIT
  @DF-UKS Final Energy:  -769.38068177996922
    Total Energy =                       -769.3806817799691089
  Basis Set: CC-PVDZ
    Blend: CC-PVDZ
  Basis Set: (CC-PVDZ AUX)
    Blend: CC-PVDZ-JKFIT
  Charge       = 0
  Multiplicity = 6
  Basis Set: CC-PVDZ
    Blend: CC-PVDZ
  Basis Set: (CC-PVDZ AUX)
    Blend: CC-PVDZ-JKFIT

    Orbital Energies [Eh]
    ---------------------

    Alpha Occupied:

       1A1  -115.459509     2A1   -56.009121     3A1   -11.485997
       4A1    -9.058576     1B1    -9.028644     1B2    -9.028644
       5A1    -4.092421     6A1    -2.646221     2B1    -2.645226
       2B2    -2.645226     7A1    -1.284412     8A1    -0.762119
       3B1    -0.697766     3B2    -0.697766     9A1    -0.303962
      10A1    -0.110846     4B1    -0.096363     4B2    -0.096363

    Alpha Virtual:

      11A1     0.180578    12A1     0.227429     5B1     0.242382
       5B2     0.242382    13A1     0.262358     6B2     0.272417
       6B1     0.272417     1A2     0.297072    14A1     0.297073
      15A1     0.392984     7B2     0.409285     7B1     0.409285
      16A1     0.496698     8B1     0.516521     8B2     0.516521
      17A1     0.558339     2A2     0.558375    18A1     0.718406

    Beta Occupied:

       1A1  -115.450045     2A1   -55.999714     3A1   -11.476869
       4A1    -9.029552     1B1    -9.022963     1B2    -9.022963
       5A1    -4.078996     6A1    -2.632730     2B1    -2.631856
       2B2    -2.631856     7A1    -1.220050     3B1    -0.677009
       3B2    -0.677009

    Beta Virtual:

       8A1    -0.569382     9A1    -0.124923    10A1     0.027237
       4B2     0.045643     4B1     0.045643    11A1     0.241425
      12A1     0.296708     5B1     0.304837     5B2     0.304837
      13A1     0.357509     6B2     0.366289     6B1     0.366289
      14A1     0.411144     1A2     0.411157    15A1     0.437695
       7B2     0.441933     7B1     0.441933    16A1     0.569701
       2A2     0.569735     8B1     0.584581     8B2     0.584581
      17A1     0.586613    18A1     0.764042

    Final Occupation by Irrep:
             A1    A2    B1    B2
    DOCC [     7,    0,    3,    3 ]
    SOCC [     3,    0,    1,    1 ]
    NA   [    10,    0,    4,    4 ]
    NB   [     7,    0,    3,    3 ]

  @DF-UKS Final Energy:  -769.38068187576926

   => Energetics <=

    Nuclear Repulsion Energy =             37.1888374662375440
    One-Electron Energy =               -1134.1980231579566407
    Two-Electron Energy =                 367.3418219616591500
    DFT Exchange-Correlation Energy =     -39.7133181457094580
    Empirical Dispersion Energy =           0.0000000000000000
    VV10 Nonlocal Energy =                  0.0000000000000000
    Total Energy =                       -769.3806818757692554

  UHF NO Occupations:
  HONO-2 :    9 A1 1.0000000
  HONO-1 :    4 B1 1.0000000
  HONO-0 :   10 A1 1.0000000
  LUNO+0 :   11 A1 0.0008158
  LUNO+1 :    5 B1 0.0000402
  LUNO+2 :    5 B2 0.0000402
  LUNO+3 :   12 A1 0.0000002

Computation Completed

Properties will be evaluated at   0.000000,   0.000000,   0.000000 [a0]

Properties computed using the SCF density matrix

 Multipole Moments:

 ------------------------------------------------------------------------------------
     Multipole            Electronic (a.u.)      Nuclear  (a.u.)        Total (a.u.)
 ------------------------------------------------------------------------------------

 L = 1.  Multiply by 2.5417464519 to convert [e a0] to [Debye]
 Dipole X            :          0.0000000            0.0000000            0.0000000
 Dipole Y            :          0.0000000            0.0000000            0.0000000
 Dipole Z            :         -8.6619969            3.1810071           -5.4809898
 Magnitude           :                                                    5.4809898

 ------------------------------------------------------------------------------------

*** tstop() called on Joses-MacBook-Pro-2.local at Wed Jul 16 20:12:38 2025
Module time:
	user time   =       6.11 seconds =       0.10 minutes
	system time =       2.14 seconds =       0.04 minutes
	total time  =          1 seconds =       0.02 minutes
Total time:
	user time   =     207.74 seconds =       3.46 minutes
	system time =      51.45 seconds =       0.86 minutes
	total time  =         24 seconds =       0.40 minutes

*** tstart() called on Joses-MacBook-Pro-2.local
*** at Wed Jul 16 20:12:38 2025

         ------------------------------------------------------------
                                   SCF GRAD
                          Rob Parrish, Justin Turney,
                       Andy Simmonett, and Alex Sokolov
         ------------------------------------------------------------

  ==> Geometry <==

    Molecular point group: c2v
    Full point group: C_inf_v

    Geometry (in Angstrom), charge = 0, multiplicity = 6:

       Center              X                  Y                   Z               Mass
    ------------   -----------------  -----------------  -----------------  -----------------
         AL           0.000000000000     0.000000000000     1.987671527307    26.981538530000
         AR           0.000000000000     0.000000000000    -1.342022965273    39.962383123700

  Nuclear repulsion =   37.188837466237544

  ==> Basis Set <==

  Basis Set: CC-PVDZ
    Blend: CC-PVDZ
    Number of shells: 16
    Number of basis functions: 36
    Number of Cartesian functions: 38
    Spherical Harmonics?: true
    Max angular momentum: 2

  ==> DFJKGrad: Density-Fitted SCF Gradients <==

    Gradient:                    1
    J tasked:                  Yes
    K tasked:                  Yes
    wK tasked:                  No
    OpenMP threads:              1
    Integrals threads:           1
    Memory [MiB]:              375
    Schwarz Cutoff:          1E-12
    Fitting Condition:       1E-10

   => Auxiliary Basis Set <=

  Basis Set: (CC-PVDZ AUX)
    Blend: CC-PVDZ-JKFIT
    Number of shells: 72
    Number of basis functions: 224
    Number of Cartesian functions: 260
    Spherical Harmonics?: true
    Max angular momentum: 3

  ==> DFT Potential <==

   => LibXC <=

    Version 6.2.2
    S. Lehtola, C. Steigemann, M. J.T. Oliveira, and M. A.L. Marques.,  SoftwareX 7, 1â€“5 (2018) (10.1016/j.softx.2017.11.002)

   => Composite Functional: B3LYP <=

    B3LYP Hyb-GGA Exchange-Correlation Functional

    P. J. Stephens, F. J. Devlin, C. F. Chabalowski, and M. J. Frisch.,  J. Phys. Chem. 98, 11623 (1994) (10.1021/j100096a001)

    Deriv               =              1
    GGA                 =           TRUE
    Meta                =          FALSE

    Exchange Hybrid     =           TRUE
    MP2 Hybrid          =          FALSE

   => Exchange Functionals <=

    0.0800   Slater exchange
    0.7200         Becke 88

   => Exact (HF) Exchange <=

    0.2000               HF

   => Correlation Functionals <=

    0.1900   Vosko, Wilk & Nusair (VWN5_RPA)
    0.8100   Lee, Yang & Parr

   => LibXC Density Thresholds  <==

    XC_HYB_GGA_XC_B3LYP:  1.00E-15

   => Molecular Quadrature <=

    Radial Scheme          =       TREUTLER
    Pruning Scheme         =           NONE
    Nuclear Scheme         =       TREUTLER

    Blocking Scheme        =         OCTREE
    BS radius alpha        =              1
    Pruning alpha          =              1
    Radial Points          =             75
    Spherical Points       =            302
    Total Points           =          42751
    Total Blocks           =            408
    Max Points             =            256
    Max Functions          =             36
    Weights Tolerance      =       1.00E-15

  -Total Gradient:
     Atom            X                  Y                   Z
    ------   -----------------  -----------------  -----------------
       1        0.000000000000    -0.000000000000    -0.000001642677
       2        0.000000000000    -0.000000000000     0.000019163370

*** tstop() called on Joses-MacBook-Pro-2.local at Wed Jul 16 20:12:39 2025
Module time:
	user time   =       2.02 seconds =       0.03 minutes
	system time =       1.18 seconds =       0.02 minutes
	total time  =          1 seconds =       0.02 minutes
Total time:
	user time   =     209.76 seconds =       3.50 minutes
	system time =      52.64 seconds =       0.88 minutes
	total time  =         25 seconds =       0.42 minutes

    			-----------------------------------------

    			 OPTKING 3.0: for geometry optimizations

    			     By R.A. King, Bethel University

    			        with contributions from

    			    A.V. Copan, J. Cayton, A. Heide

    			-----------------------------------------

	                            ===> Fragment 1 <==

	 Z (Atomic Numbers)          Masses                          Geom
	      13.000000            26.981539          0.00000000  0.00000000  3.75615481
	      18.000000            39.962383          0.00000000  0.00000000 -2.53605586

	 - Coordinate -           - BOHR/RAD -       - ANG/DEG -
	 R(1,2)           =         6.292211           3.329694

	        --- Internal Coordinate Step in ANG or DEG, aJ/ANG or AJ/DEG ---
	-------------------------------------------------------------------------------
	           Coordinate      Previous         Force          Change          New
	           ----------      --------        ------          ------        ------
	               R(1,2)       3.32969        0.00009        0.00023       3.32993
	-------------------------------------------------------------------------------

	                                 ==> Convergence Check <==

	Measures of convergence in internal coordinates in au.

	Criteria marked as inactive (o), active & met (*), and active & unmet ( ).

	----------------------------------------------------------------------------------------------
	   Step    Total Energy     Delta E     Max Force     RMS Force      Max Disp      RMS Disp
	----------------------------------------------------------------------------------------------
	  Convergence Criteria     1.00e-06 *    3.00e-04 *             o    1.20e-03 *             o
	----------------------------------------------------------------------------------------------
	    18    -769.38068188   -9.58e-08 *    1.04e-05 *    1.04e-05 o    4.36e-04 *    4.36e-04 o  ~
	----------------------------------------------------------------------------------------------

Next Geometry in Ang
	Fragment 1 (Ang)

	   Al   0.0000000000   0.0000000000   1.9877869211
	   Ar   0.0000000000   0.0000000000  -1.3421383591

    Final optimized geometry and variables:
    Molecular point group: c2v
    Full point group: C_inf_v

    Geometry (in Angstrom), charge = 0, multiplicity = 6:

    AL           0.000000000000     0.000000000000     1.987671527307
    AR           0.000000000000     0.000000000000    -1.342022965273

    Psi4 stopped on: Wednesday, 16 July 2025 08:12PM
    Psi4 wall time for execution: 0:00:25.62

*** Psi4 exiting successfully. Buy a developer a beer!
