                               Psi4 1.9.1 release

  ==> Input File <==

--------------------------------------------------------------------------
molecule {
0 6
Be   0.00000        0.60000        0.00000
Na   0.00000       -0.60000        0.00000
}

set {
basis              cc-pvdz
reference          uks
maxiter            500
geom_maxiter       500
DAMPING_PERCENTAGE 1
guess              SAP
}

optimize('b3lyp')
--------------------------------------------------------------------------

    Molecular point group: c2v
  Charge       = 0
  Multiplicity = 6
  Basis Set: CC-PVDZ
    Blend: CC-PVDZ
  Basis Set: (CC-PVDZ AUX)
    Blend: DEF2-UNIVERSAL-JKFIT
  @DF-UKS Final Energy:  -175.22334552888822
    Total Energy =                       -175.2233455288882169
 Dipole X            :          0.0000000            0.0000000            0.0000000
 Dipole Y            :          0.0000000            0.0000000            0.0000000
 Dipole Z            :          0.1905377           -0.5084189           -0.3178812
 Magnitude           :                                                    0.3178812
    Molecular point group: c2v
  Basis Set: CC-PVDZ
    Blend: CC-PVDZ
  Basis Set: (CC-PVDZ AUX)
    Blend: DEF2-UNIVERSAL-JKFIT
  Basis Set: CC-PVDZ
    Blend: CC-PVDZ
  Basis Set: (CC-PVDZ AUX)
    Blend: DEF2-UNIVERSAL-JKFIT
  @DF-UKS Final Energy:  -175.30364774757953
    Total Energy =                       -175.3036477475795323
  Basis Set: CC-PVDZ
    Blend: CC-PVDZ
  Basis Set: (CC-PVDZ AUX)
    Blend: DEF2-UNIVERSAL-JKFIT
  Basis Set: CC-PVDZ
    Blend: CC-PVDZ
  @DF-UKS Final Energy:  -175.39266679363433
    Total Energy =                       -175.3926667936343335
  @DF-UKS Final Energy:  -175.48916180888807
    Total Energy =                       -175.4891618088880705
  @DF-UKS Final Energy:  -175.54341458607820
    Total Energy =                       -175.5434145860781996
  @DF-UKS Final Energy:  -175.56341845476746
    Total Energy =                       -175.5634184547674863
  @DF-UKS Final Energy:  -175.56936256544921
    Total Energy =                       -175.5693625654492394
  @DF-UKS Final Energy:  -175.57100319907008
    Total Energy =                       -175.5710031990700770
  @DF-UKS Final Energy:  -175.57131883109449
    Total Energy =                       -175.5713188310944872
  @DF-UKS Final Energy:  -175.57139837248187
    Total Energy =                       -175.5713983724818945
  @DF-UKS Final Energy:  -175.57142127125485
    Total Energy =                       -175.5714212712548772
  @DF-UKS Final Energy:  -175.57143000357186
    Total Energy =                       -175.5714300035718622
  Basis Set: (CC-PVDZ AUX)
    Blend: DEF2-UNIVERSAL-JKFIT
  Basis Set: CC-PVDZ
    Blend: CC-PVDZ
  Basis Set: (CC-PVDZ AUX)
    Blend: DEF2-UNIVERSAL-JKFIT
  @DF-UKS Final Energy:  -175.57143155750262
    Total Energy =                       -175.5714315575026205
  Basis Set: CC-PVDZ
    Blend: CC-PVDZ
  Basis Set: (CC-PVDZ AUX)
    Blend: DEF2-UNIVERSAL-JKFIT
  Charge       = 0
  Multiplicity = 6
  Basis Set: CC-PVDZ
    Blend: CC-PVDZ
  Basis Set: (CC-PVDZ AUX)
    Blend: DEF2-UNIVERSAL-JKFIT

    Orbital Energies [Eh]
    ---------------------

    Alpha Occupied:

       1A1   -39.723970     2A1    -4.094466     3A1    -3.029971
       1B1    -2.040972     4A1    -1.925527     1B2    -1.921297
       5A1    -0.346274     6A1    -0.196238     2B1    -0.162648
       2B2    -0.160435

    Alpha Virtual:

       7A1    -0.100083     3B1    -0.038373     3B2    -0.034988
       8A1     0.006372     9A1     0.024268     4B1     0.036760
       4B2     0.038471    10A1     0.089658     1A2     0.090894
      11A1     0.094292     5B1     0.142689     5B2     0.145239
      12A1     0.192780     6B1     0.197356     6B2     0.197410
      13A1     0.312390    14A1     0.442407     2A2     0.462326
      15A1     0.462353     7B1     0.556647     7B2     0.557449
      16A1     0.708940

    Beta Occupied:

       1A1   -39.679458     2A1    -4.074028     3A1    -2.909300
       4A1    -1.878665     1B2    -1.874852

    Beta Virtual:

       1B1    -1.639268     5A1    -0.177498     6A1    -0.088073
       2B2    -0.035402     2B1    -0.032510     7A1    -0.026058
       8A1     0.034950     3B2     0.037276     3B1     0.037607
       9A1     0.042114     4B2     0.057850     4B1     0.060503
      10A1     0.144516     1A2     0.148327    11A1     0.151638
       5B2     0.196491     5B1     0.197832    12A1     0.229232
       6B1     0.255770     6B2     0.255820    13A1     0.373144
      14A1     0.506728    15A1     0.579272     2A2     0.579337
       7B1     0.652806     7B2     0.652851    16A1     0.759093

    Final Occupation by Irrep:
             A1    A2    B1    B2
    DOCC [     4,    0,    0,    1 ]
    SOCC [     2,    0,    2,    1 ]
    NA   [     6,    0,    2,    2 ]
    NB   [     4,    0,    0,    1 ]

  @DF-UKS Final Energy:  -175.57143163857984

   => Energetics <=

    Nuclear Repulsion Energy =             10.3189395606320655
    One-Electron Energy =                -258.2340016763031940
    Two-Electron Energy =                  85.6341110555032259
    DFT Exchange-Correlation Energy =     -13.2904805784119446
    Empirical Dispersion Energy =           0.0000000000000000
    VV10 Nonlocal Energy =                  0.0000000000000000
    Total Energy =                       -175.5714316385798668

  UHF NO Occupations:
  HONO-2 :    2 B2 1.0000000
  HONO-1 :    2 B1 1.0000000
  HONO-0 :    6 A1 1.0000000
  LUNO+0 :    7 A1 0.0000071
  LUNO+1 :    8 A1 0.0000021
  LUNO+2 :    3 B2 0.0000015
  LUNO+3 :    9 A1 0.0000001

Computation Completed

Properties will be evaluated at   0.000000,   0.000000,   0.000000 [a0]

Properties computed using the SCF density matrix

 Multipole Moments:

 ------------------------------------------------------------------------------------
     Multipole            Electronic (a.u.)      Nuclear  (a.u.)        Total (a.u.)
 ------------------------------------------------------------------------------------

 L = 1.  Multiply by 2.5417464519 to convert [e a0] to [Debye]
 Dipole X            :          0.0000000            0.0000000            0.0000000
 Dipole Y            :          0.0000000            0.0000000            0.0000000
 Dipole Z            :          0.4936851           -0.9560029           -0.4623178
 Magnitude           :                                                    0.4623178

 ------------------------------------------------------------------------------------

*** tstop() called on Joses-MacBook-Pro-2.local at Wed Jul 16 18:42:58 2025
Module time:
	user time   =       3.37 seconds =       0.06 minutes
	system time =       2.80 seconds =       0.05 minutes
	total time  =          0 seconds =       0.00 minutes
Total time:
	user time   =      69.39 seconds =       1.16 minutes
	system time =      71.97 seconds =       1.20 minutes
	total time  =         14 seconds =       0.23 minutes

*** tstart() called on Joses-MacBook-Pro-2.local
*** at Wed Jul 16 18:42:58 2025

         ------------------------------------------------------------
                                   SCF GRAD
                          Rob Parrish, Justin Turney,
                       Andy Simmonett, and Alex Sokolov
         ------------------------------------------------------------

  ==> Geometry <==

    Molecular point group: c2v
    Full point group: C_inf_v

    Geometry (in Angstrom), charge = 0, multiplicity = 6:

       Center              X                  Y                   Z               Mass
    ------------   -----------------  -----------------  -----------------  -----------------
         BE           0.000000000000     0.000000000000     1.620977098834     9.012183065000
         NA           0.000000000000     0.000000000000    -0.635436666618    22.989769282000

  Nuclear repulsion =   10.318939560632066

  ==> Basis Set <==

  Basis Set: CC-PVDZ
    Blend: CC-PVDZ
    Number of shells: 14
    Number of basis functions: 32
    Number of Cartesian functions: 34
    Spherical Harmonics?: true
    Max angular momentum: 2

  ==> DFJKGrad: Density-Fitted SCF Gradients <==

    Gradient:                    1
    J tasked:                  Yes
    K tasked:                  Yes
    wK tasked:                  No
    OpenMP threads:              1
    Integrals threads:           1
    Memory [MiB]:              375
    Schwarz Cutoff:          1E-12
    Fitting Condition:       1E-10

   => Auxiliary Basis Set <=

  Basis Set: (CC-PVDZ AUX)
    Blend: DEF2-UNIVERSAL-JKFIT
    Number of shells: 51
    Number of basis functions: 163
    Number of Cartesian functions: 197
    Spherical Harmonics?: true
    Max angular momentum: 4

  ==> DFT Potential <==

   => LibXC <=

    Version 6.2.2
    S. Lehtola, C. Steigemann, M. J.T. Oliveira, and M. A.L. Marques.,  SoftwareX 7, 1â€“5 (2018) (10.1016/j.softx.2017.11.002)

   => Composite Functional: B3LYP <=

    B3LYP Hyb-GGA Exchange-Correlation Functional

    P. J. Stephens, F. J. Devlin, C. F. Chabalowski, and M. J. Frisch.,  J. Phys. Chem. 98, 11623 (1994) (10.1021/j100096a001)

    Deriv               =              1
    GGA                 =           TRUE
    Meta                =          FALSE

    Exchange Hybrid     =           TRUE
    MP2 Hybrid          =          FALSE

   => Exchange Functionals <=

    0.0800   Slater exchange
    0.7200         Becke 88

   => Exact (HF) Exchange <=

    0.2000               HF

   => Correlation Functionals <=

    0.1900   Vosko, Wilk & Nusair (VWN5_RPA)
    0.8100   Lee, Yang & Parr

   => LibXC Density Thresholds  <==

    XC_HYB_GGA_XC_B3LYP:  1.00E-15

   => Molecular Quadrature <=

    Radial Scheme          =       TREUTLER
    Pruning Scheme         =           NONE
    Nuclear Scheme         =       TREUTLER

    Blocking Scheme        =         OCTREE
    BS radius alpha        =              1
    Pruning alpha          =              1
    Radial Points          =             75
    Spherical Points       =            302
    Total Points           =          43829
    Total Blocks           =            441
    Max Points             =            256
    Max Functions          =             32
    Weights Tolerance      =       1.00E-15

  -Total Gradient:
     Atom            X                  Y                   Z
    ------   -----------------  -----------------  -----------------
       1       -0.000000000000    -0.000000000000    -0.000008047078
       2        0.000000000000    -0.000000000000     0.000012231637

*** tstop() called on Joses-MacBook-Pro-2.local at Wed Jul 16 18:42:59 2025
Module time:
	user time   =       0.86 seconds =       0.01 minutes
	system time =       1.98 seconds =       0.03 minutes
	total time  =          1 seconds =       0.02 minutes
Total time:
	user time   =      70.25 seconds =       1.17 minutes
	system time =      73.95 seconds =       1.23 minutes
	total time  =         15 seconds =       0.25 minutes

    			-----------------------------------------

    			 OPTKING 3.0: for geometry optimizations

    			     By R.A. King, Bethel University

    			        with contributions from

    			    A.V. Copan, J. Cayton, A. Heide

    			-----------------------------------------

	                            ===> Fragment 1 <==

	 Z (Atomic Numbers)          Masses                          Geom
	       4.000000             9.012183          0.00000000  0.00000000  3.06320277
	      11.000000            22.989769          0.00000000  0.00000000 -1.20080127

	 - Coordinate -           - BOHR/RAD -       - ANG/DEG -
	 R(1,2)           =         4.264004           2.256414

	        --- Internal Coordinate Step in ANG or DEG, aJ/ANG or AJ/DEG ---
	-------------------------------------------------------------------------------
	           Coordinate      Previous         Force          Change          New
	           ----------      --------        ------          ------        ------
	               R(1,2)       2.25641        0.00008        0.00016       2.25658
	-------------------------------------------------------------------------------

	                                 ==> Convergence Check <==

	Measures of convergence in internal coordinates in au.

	Criteria marked as inactive (o), active & met (*), and active & unmet ( ).

	----------------------------------------------------------------------------------------------
	   Step    Total Energy     Delta E     Max Force     RMS Force      Max Disp      RMS Disp
	----------------------------------------------------------------------------------------------
	  Convergence Criteria     1.00e-06 *    3.00e-04 *             o    1.20e-03 *             o
	----------------------------------------------------------------------------------------------
	    14    -175.57143164   -8.11e-08 *    1.01e-05 *    1.01e-05 o    3.11e-04 *    3.11e-04 o  ~
	----------------------------------------------------------------------------------------------

Next Geometry in Ang
	Fragment 1 (Ang)

	   Be   0.0000000000   0.0000000000   1.6210594282
	   Na   0.0000000000   0.0000000000  -0.6355189960

    Final optimized geometry and variables:
    Molecular point group: c2v
    Full point group: C_inf_v

    Geometry (in Angstrom), charge = 0, multiplicity = 6:

    BE           0.000000000000     0.000000000000     1.620977098834
    NA           0.000000000000     0.000000000000    -0.635436666618

    Psi4 stopped on: Wednesday, 16 July 2025 06:42PM
    Psi4 wall time for execution: 0:00:14.80

*** Psi4 exiting successfully. Buy a developer a beer!
