                               Psi4 1.9.1 release

  ==> Input File <==

--------------------------------------------------------------------------
molecule {
0 6
N   0.00000        0.60000        0.00000
Ne   0.00000       -0.60000        0.00000
}

set {
basis              cc-pvdz
reference          uks
maxiter            500
geom_maxiter       500
DAMPING_PERCENTAGE 1
guess              SAP
}

optimize('b3lyp')
--------------------------------------------------------------------------

    Molecular point group: c2v
  Charge       = 0
  Multiplicity = 6
  Basis Set: CC-PVDZ
    Blend: CC-PVDZ
  Basis Set: (CC-PVDZ AUX)
    Blend: CC-PVDZ-JKFIT
  @DF-UKS Final Energy:  -182.11225526766555
    Total Energy =                       -182.1122552676655459
 Dipole X            :          0.0000000            0.0000000            0.0000000
 Dipole Y            :          0.0000000            0.0000000            0.0000000
 Dipole Z            :         -0.7981238           -0.0055805           -0.8037043
 Magnitude           :                                                    0.8037043
    Molecular point group: c2v
  Basis Set: CC-PVDZ
    Blend: CC-PVDZ
  Basis Set: (CC-PVDZ AUX)
    Blend: CC-PVDZ-JKFIT
  Basis Set: CC-PVDZ
    Blend: CC-PVDZ
  Basis Set: (CC-PVDZ AUX)
    Blend: CC-PVDZ-JKFIT
  @DF-UKS Final Energy:  -182.30082600178849
    Total Energy =                       -182.3008260017884936
  Basis Set: CC-PVDZ
    Blend: CC-PVDZ
  Basis Set: (CC-PVDZ AUX)
    Blend: CC-PVDZ-JKFIT
  Basis Set: CC-PVDZ
    Blend: CC-PVDZ
  @DF-UKS Final Energy:  -182.31325585537044
    Total Energy =                       -182.3132558553704712
  @DF-UKS Final Energy:  -182.32621066440629
    Total Energy =                       -182.3262106644062897
  @DF-UKS Final Energy:  -182.33038974389137
    Total Energy =                       -182.3303897438914305
  @DF-UKS Final Energy:  -182.33231106486500
    Total Energy =                       -182.3323110648649958
  @DF-UKS Final Energy:  -182.33376095719578
    Total Energy =                       -182.3337609571957785
  @DF-UKS Final Energy:  -182.33565238184249
    Total Energy =                       -182.3356523818424932
  @DF-UKS Final Energy:  -182.33981090262586
    Total Energy =                       -182.3398109026258567
  @DF-UKS Final Energy:  -182.37853422267642
    Total Energy =                       -182.3785342226764215
  @DF-UKS Final Energy:  -182.37980348496757
    Total Energy =                       -182.3798034849675958
  @DF-UKS Final Energy:  -182.38214830339518
    Total Energy =                       -182.3821483033951836
  @DF-UKS Final Energy:  -182.38230418071640
    Total Energy =                       -182.3823041807164032
  @DF-UKS Final Energy:  -182.38231832238489
    Total Energy =                       -182.3823183223848901
  Basis Set: (CC-PVDZ AUX)
    Blend: CC-PVDZ-JKFIT
  Basis Set: CC-PVDZ
    Blend: CC-PVDZ
  Basis Set: (CC-PVDZ AUX)
    Blend: CC-PVDZ-JKFIT
  @DF-UKS Final Energy:  -182.38231979468998
    Total Energy =                       -182.3823197946899768
  Basis Set: CC-PVDZ
    Blend: CC-PVDZ
  Basis Set: (CC-PVDZ AUX)
    Blend: CC-PVDZ-JKFIT
  Charge       = 0
  Multiplicity = 6
  Basis Set: CC-PVDZ
    Blend: CC-PVDZ
  Basis Set: (CC-PVDZ AUX)
    Blend: CC-PVDZ-JKFIT

    Orbital Energies [Eh]
    ---------------------

    Alpha Occupied:

       1A1   -31.007634     2A1   -14.466626     3A1    -1.467024
       4A1    -0.881587     5A1    -0.583716     1B2    -0.569958
       1B1    -0.569958     6A1    -0.425781     2B1    -0.419564
       2B2    -0.419564     7A1     0.509049

    Alpha Virtual:

       3B2     0.610892     3B1     0.610892     8A1     0.701325
       4B2     1.341833     4B1     1.341833     9A1     1.382443
       1A2     1.597691    10A1     1.597695     5B1     1.616680
       5B2     1.616680    11A1     1.629892    12A1     1.821892
      13A1     4.685049     6B2     4.686736     6B1     4.686736
       2A2     4.695462    14A1     4.695526

    Beta Occupied:

       1A1   -31.001142     2A1   -14.357280     3A1    -1.452762
       1B2    -0.564334     1B1    -0.564334     4A1    -0.545979

    Beta Virtual:

       5A1    -0.479156     2B1    -0.080195     2B2    -0.080195
       6A1    -0.042264     3B1     0.766737     3B2     0.766737
       7A1     0.796118     8A1     0.887641     4B2     1.344907
       4B1     1.344907     9A1     1.413486     1A2     1.817146
      10A1     1.817150    11A1     1.819801     5B1     1.838472
       5B2     1.838472    12A1     1.862565     2A2     4.698525
      13A1     4.698588     6B2     4.702031     6B1     4.702031
      14A1     4.704570

    Final Occupation by Irrep:
             A1    A2    B1    B2
    DOCC [     4,    0,    1,    1 ]
    SOCC [     3,    0,    1,    1 ]
    NA   [     7,    0,    2,    2 ]
    NB   [     4,    0,    1,    1 ]

  @DF-UKS Final Energy:  -182.38231995040852

   => Energetics <=

    Nuclear Repulsion Energy =             13.5034803354332080
    One-Electron Energy =                -281.7932996804549930
    Two-Electron Energy =                 101.5328779041591361
    DFT Exchange-Correlation Energy =     -15.6253785095458575
    Empirical Dispersion Energy =           0.0000000000000000
    VV10 Nonlocal Energy =                  0.0000000000000000
    Total Energy =                       -182.3823199504085153

  UHF NO Occupations:
  HONO-2 :    2 B1 1.0000000
  HONO-1 :    6 A1 1.0000000
  HONO-0 :    7 A1 1.0000000
  LUNO+0 :    8 A1 0.0004701
  LUNO+1 :    9 A1 0.0000052
  LUNO+2 :    3 B1 0.0000020
  LUNO+3 :    3 B2 0.0000020

Computation Completed

Properties will be evaluated at   0.000000,   0.000000,   0.000000 [a0]

Properties computed using the SCF density matrix

 Multipole Moments:

 ------------------------------------------------------------------------------------
     Multipole            Electronic (a.u.)      Nuclear  (a.u.)        Total (a.u.)
 ------------------------------------------------------------------------------------

 L = 1.  Multiply by 2.5417464519 to convert [e a0] to [Debye]
 Dipole X            :          0.0000000            0.0000000            0.0000000
 Dipole Y            :          0.0000000            0.0000000            0.0000000
 Dipole Z            :         -0.3880294           -0.0127568           -0.4007862
 Magnitude           :                                                    0.4007862

 ------------------------------------------------------------------------------------

*** tstop() called on Joses-MacBook-Pro-2.local at Wed Jul 16 19:09:11 2025
Module time:
	user time   =       3.18 seconds =       0.05 minutes
	system time =       3.18 seconds =       0.05 minutes
	total time  =          0 seconds =       0.00 minutes
Total time:
	user time   =      95.20 seconds =       1.59 minutes
	system time =      67.00 seconds =       1.12 minutes
	total time  =         16 seconds =       0.27 minutes

*** tstart() called on Joses-MacBook-Pro-2.local
*** at Wed Jul 16 19:09:11 2025

         ------------------------------------------------------------
                                   SCF GRAD
                          Rob Parrish, Justin Turney,
                       Andy Simmonett, and Alex Sokolov
         ------------------------------------------------------------

  ==> Geometry <==

    Molecular point group: c2v
    Full point group: C_inf_v

    Geometry (in Angstrom), charge = 0, multiplicity = 6:

       Center              X                  Y                   Z               Mass
    ------------   -----------------  -----------------  -----------------  -----------------
         N            0.000000000000     0.000000000000     1.613235043346    14.003074004430
         NE           0.000000000000     0.000000000000    -1.129939592137    19.992440176200

  Nuclear repulsion =   13.503480335433208

  ==> Basis Set <==

  Basis Set: CC-PVDZ
    Blend: CC-PVDZ
    Number of shells: 12
    Number of basis functions: 28
    Number of Cartesian functions: 30
    Spherical Harmonics?: true
    Max angular momentum: 2

  ==> DFJKGrad: Density-Fitted SCF Gradients <==

    Gradient:                    1
    J tasked:                  Yes
    K tasked:                  Yes
    wK tasked:                  No
    OpenMP threads:              1
    Integrals threads:           1
    Memory [MiB]:              375
    Schwarz Cutoff:          1E-12
    Fitting Condition:       1E-10

   => Auxiliary Basis Set <=

  Basis Set: (CC-PVDZ AUX)
    Blend: CC-PVDZ-JKFIT
    Number of shells: 48
    Number of basis functions: 140
    Number of Cartesian functions: 162
    Spherical Harmonics?: true
    Max angular momentum: 3

  ==> DFT Potential <==

   => LibXC <=

    Version 6.2.2
    S. Lehtola, C. Steigemann, M. J.T. Oliveira, and M. A.L. Marques.,  SoftwareX 7, 1â€“5 (2018) (10.1016/j.softx.2017.11.002)

   => Composite Functional: B3LYP <=

    B3LYP Hyb-GGA Exchange-Correlation Functional

    P. J. Stephens, F. J. Devlin, C. F. Chabalowski, and M. J. Frisch.,  J. Phys. Chem. 98, 11623 (1994) (10.1021/j100096a001)

    Deriv               =              1
    GGA                 =           TRUE
    Meta                =          FALSE

    Exchange Hybrid     =           TRUE
    MP2 Hybrid          =          FALSE

   => Exchange Functionals <=

    0.0800   Slater exchange
    0.7200         Becke 88

   => Exact (HF) Exchange <=

    0.2000               HF

   => Correlation Functionals <=

    0.1900   Vosko, Wilk & Nusair (VWN5_RPA)
    0.8100   Lee, Yang & Parr

   => LibXC Density Thresholds  <==

    XC_HYB_GGA_XC_B3LYP:  1.00E-15

   => Molecular Quadrature <=

    Radial Scheme          =       TREUTLER
    Pruning Scheme         =           NONE
    Nuclear Scheme         =       TREUTLER

    Blocking Scheme        =         OCTREE
    BS radius alpha        =              1
    Pruning alpha          =              1
    Radial Points          =             75
    Spherical Points       =            302
    Total Points           =          42884
    Total Blocks           =            382
    Max Points             =            256
    Max Functions          =             28
    Weights Tolerance      =       1.00E-15

  -Total Gradient:
     Atom            X                  Y                   Z
    ------   -----------------  -----------------  -----------------
       1       -0.000000000000     0.000000000000    -0.000032541561
       2        0.000000000000    -0.000000000000     0.000036250511

*** tstop() called on Joses-MacBook-Pro-2.local at Wed Jul 16 19:09:11 2025
Module time:
	user time   =       0.92 seconds =       0.02 minutes
	system time =       0.80 seconds =       0.01 minutes
	total time  =          0 seconds =       0.00 minutes
Total time:
	user time   =      96.13 seconds =       1.60 minutes
	system time =      67.80 seconds =       1.13 minutes
	total time  =         16 seconds =       0.27 minutes

    			-----------------------------------------

    			 OPTKING 3.0: for geometry optimizations

    			     By R.A. King, Bethel University

    			        with contributions from

    			    A.V. Copan, J. Cayton, A. Heide

    			-----------------------------------------

	                            ===> Fragment 1 <==

	 Z (Atomic Numbers)          Masses                          Geom
	       7.000000            14.003074          0.00000000  0.00000000  3.04857241
	      10.000000            19.992440          0.00000000  0.00000000 -2.13527637

	 - Coordinate -           - BOHR/RAD -       - ANG/DEG -
	 R(1,2)           =         5.183849           2.743175

	        --- Internal Coordinate Step in ANG or DEG, aJ/ANG or AJ/DEG ---
	-------------------------------------------------------------------------------
	           Coordinate      Previous         Force          Change          New
	           ----------      --------        ------          ------        ------
	               R(1,2)       2.74317        0.00028        0.00049       2.74366
	-------------------------------------------------------------------------------

	                                 ==> Convergence Check <==

	Measures of convergence in internal coordinates in au.

	Criteria marked as inactive (o), active & met (*), and active & unmet ( ).

	----------------------------------------------------------------------------------------------
	   Step    Total Energy     Delta E     Max Force     RMS Force      Max Disp      RMS Disp
	----------------------------------------------------------------------------------------------
	  Convergence Criteria     1.00e-06 *    3.00e-04 *             o    1.20e-03 *             o
	----------------------------------------------------------------------------------------------
	    16    -182.38231995   -1.56e-07 *    3.44e-05 *    3.44e-05 o    9.25e-04 *    9.25e-04 o  ~
	----------------------------------------------------------------------------------------------

Next Geometry in Ang
	Fragment 1 (Ang)

	    N   0.0000000000   0.0000000000   1.6134798158
	   Ne   0.0000000000   0.0000000000  -1.1301843646

    Final optimized geometry and variables:
    Molecular point group: c2v
    Full point group: C_inf_v

    Geometry (in Angstrom), charge = 0, multiplicity = 6:

    N            0.000000000000     0.000000000000     1.613235043346
    NE           0.000000000000     0.000000000000    -1.129939592137

    Psi4 stopped on: Wednesday, 16 July 2025 07:09PM
    Psi4 wall time for execution: 0:00:17.14

*** Psi4 exiting successfully. Buy a developer a beer!
