                               Psi4 1.9.1 release

  ==> Input File <==

--------------------------------------------------------------------------
molecule {
0 6
N   0.00000        0.60000        0.00000
Si   0.00000       -0.60000        0.00000
}

set {
basis              cc-pvdz
reference          uks
maxiter            500
geom_maxiter       500
DAMPING_PERCENTAGE 1
guess              SAP
}

optimize('b3lyp')
--------------------------------------------------------------------------

    Molecular point group: c2v
  Charge       = 0
  Multiplicity = 6
  Basis Set: CC-PVDZ
    Blend: CC-PVDZ
  Basis Set: (CC-PVDZ AUX)
    Blend: CC-PVDZ-JKFIT
  @DF-UKS Final Energy:  -343.41629605443848
    Total Energy =                       -343.4162960544384191
 Dipole X            :          0.0000000            0.0000000            0.0000000
 Dipole Y            :          0.0000000            0.0000000            0.0000000
 Dipole Z            :          0.7851649           -0.0110494            0.7741155
 Magnitude           :                                                    0.7741155
    Molecular point group: c2v
  Basis Set: CC-PVDZ
    Blend: CC-PVDZ
  Basis Set: (CC-PVDZ AUX)
    Blend: CC-PVDZ-JKFIT
  Basis Set: CC-PVDZ
    Blend: CC-PVDZ
  Basis Set: (CC-PVDZ AUX)
    Blend: CC-PVDZ-JKFIT
  @DF-UKS Final Energy:  -343.65507385800373
    Total Energy =                       -343.6550738580037319
  Basis Set: CC-PVDZ
    Blend: CC-PVDZ
  Basis Set: (CC-PVDZ AUX)
    Blend: CC-PVDZ-JKFIT
  Basis Set: CC-PVDZ
    Blend: CC-PVDZ
  @DF-UKS Final Energy:  -343.76383709019160
    Total Energy =                       -343.7638370901916005
  @DF-UKS Final Energy:  -343.81209900450665
    Total Energy =                       -343.8120990045066492
  @DF-UKS Final Energy:  -343.92064857326926
    Total Energy =                       -343.9206485732692613
  @DF-UKS Final Energy:  -343.96342914806149
    Total Energy =                       -343.9634291480614934
  @DF-UKS Final Energy:  -343.97185631531676
    Total Energy =                       -343.9718563153167565
  @DF-UKS Final Energy:  -343.97706010021068
    Total Energy =                       -343.9770601002106787
  @DF-UKS Final Energy:  -343.97881903815357
    Total Energy =                       -343.9788190381535742
  @DF-UKS Final Energy:  -343.97984839646887
    Total Energy =                       -343.9798483964688671
  @DF-UKS Final Energy:  -343.98046152199794
    Total Energy =                       -343.9804615219979382
  @DF-UKS Final Energy:  -343.98069213136273
    Total Energy =                       -343.9806921313627868
  @DF-UKS Final Energy:  -343.98082085375506
    Total Energy =                       -343.9808208537550627
  @DF-UKS Final Energy:  -343.98088096161314
    Total Energy =                       -343.9808809616131384
  @DF-UKS Final Energy:  -343.98089865505079
    Total Energy =                       -343.9808986550507939
  @DF-UKS Final Energy:  -343.98090549560300
    Total Energy =                       -343.9809054956029968
  Basis Set: (CC-PVDZ AUX)
    Blend: CC-PVDZ-JKFIT
  Basis Set: CC-PVDZ
    Blend: CC-PVDZ
  Basis Set: (CC-PVDZ AUX)
    Blend: CC-PVDZ-JKFIT
  @DF-UKS Final Energy:  -343.98090699061589
    Total Energy =                       -343.9809069906158925
  Basis Set: CC-PVDZ
    Blend: CC-PVDZ
  Basis Set: (CC-PVDZ AUX)
    Blend: CC-PVDZ-JKFIT
  Charge       = 0
  Multiplicity = 6
  Basis Set: CC-PVDZ
    Blend: CC-PVDZ
  Basis Set: (CC-PVDZ AUX)
    Blend: CC-PVDZ-JKFIT

    Orbital Energies [Eh]
    ---------------------

    Alpha Occupied:

       1A1   -66.162623     2A1   -14.477541     3A1    -5.304787
       4A1    -3.666352     1B2    -3.662720     1B1    -3.662720
       5A1    -0.842714     6A1    -0.464230     2B2    -0.383207
       2B1    -0.383207     7A1    -0.371329     3B2    -0.184167
       3B1    -0.184167

    Alpha Virtual:

       8A1    -0.085415     9A1     0.251225    10A1     0.296443
       4B2     0.307013     4B1     0.307013     5B2     0.340451
       5B1     0.340451     1A2     0.343176    11A1     0.343176
      12A1     0.412800     6B1     0.669718     6B2     0.669718
      13A1     0.685562    14A1     1.048371     2A2     1.643116
      15A1     1.643162     7B1     1.652270     7B2     1.652270
      16A1     1.715723

    Beta Occupied:

       1A1   -66.156186     2A1   -14.422226     3A1    -5.297432
       4A1    -3.662021     1B2    -3.649513     1B1    -3.649513
       5A1    -0.653710     6A1    -0.380243

    Beta Virtual:

       7A1    -0.170423     2B2    -0.135773     2B1    -0.135773
       3B2    -0.057945     3B1    -0.057945     8A1    -0.025845
       9A1     0.279848    10A1     0.313086     4B2     0.348090
       4B1     0.348090     5B2     0.395115     5B1     0.395115
      11A1     0.424532     1A2     0.424532    12A1     0.460183
       6B1     0.771501     6B2     0.771501    13A1     0.781770
      14A1     1.136484     2A2     1.791384    15A1     1.791443
       7B1     1.792983     7B2     1.792983    16A1     1.850095

    Final Occupation by Irrep:
             A1    A2    B1    B2
    DOCC [     6,    0,    1,    1 ]
    SOCC [     1,    0,    2,    2 ]
    NA   [     7,    0,    3,    3 ]
    NB   [     6,    0,    1,    1 ]

  @DF-UKS Final Energy:  -343.98090720011038

   => Energetics <=

    Nuclear Repulsion Energy =             20.2728859893425835
    One-Electron Energy =                -514.9885990681195835
    Two-Electron Energy =                 172.9934854123294770
    DFT Exchange-Correlation Energy =     -22.2586795336628960
    Empirical Dispersion Energy =           0.0000000000000000
    VV10 Nonlocal Energy =                  0.0000000000000000
    Total Energy =                       -343.9809072001104369

  UHF NO Occupations:
  HONO-2 :    2 B2 1.0000000
  HONO-1 :    3 B1 1.0000000
  HONO-0 :    3 B2 1.0000000
  LUNO+0 :    8 A1 0.0028159
  LUNO+1 :    9 A1 0.0009495
  LUNO+2 :   10 A1 0.0000002
  LUNO+3 :   11 A1 0.0000001

Computation Completed

Properties will be evaluated at   0.000000,   0.000000,   0.000000 [a0]

Properties computed using the SCF density matrix

 Multipole Moments:

 ------------------------------------------------------------------------------------
     Multipole            Electronic (a.u.)      Nuclear  (a.u.)        Total (a.u.)
 ------------------------------------------------------------------------------------

 L = 1.  Multiply by 2.5417464519 to convert [e a0] to [Debye]
 Dipole X            :          0.0000000            0.0000000            0.0000000
 Dipole Y            :          0.0000000            0.0000000            0.0000000
 Dipole Z            :          0.2740591           -0.0235542            0.2505049
 Magnitude           :                                                    0.2505049

 ------------------------------------------------------------------------------------

*** tstop() called on Joses-MacBook-Pro-2.local at Wed Jul 16 19:13:03 2025
Module time:
	user time   =       4.56 seconds =       0.08 minutes
	system time =       3.35 seconds =       0.06 minutes
	total time  =          1 seconds =       0.02 minutes
Total time:
	user time   =     130.02 seconds =       2.17 minutes
	system time =     102.02 seconds =       1.70 minutes
	total time  =         24 seconds =       0.40 minutes

*** tstart() called on Joses-MacBook-Pro-2.local
*** at Wed Jul 16 19:13:03 2025

         ------------------------------------------------------------
                                   SCF GRAD
                          Rob Parrish, Justin Turney,
                       Andy Simmonett, and Alex Sokolov
         ------------------------------------------------------------

  ==> Geometry <==

    Molecular point group: c2v
    Full point group: C_inf_v

    Geometry (in Angstrom), charge = 0, multiplicity = 6:

       Center              X                  Y                   Z               Mass
    ------------   -----------------  -----------------  -----------------  -----------------
         N            0.000000000000     0.000000000000     1.704783341884    14.003074004430
         SI           0.000000000000     0.000000000000    -0.853281981076    27.976926534650

  Nuclear repulsion =   20.272885989342583

  ==> Basis Set <==

  Basis Set: CC-PVDZ
    Blend: CC-PVDZ
    Number of shells: 14
    Number of basis functions: 32
    Number of Cartesian functions: 34
    Spherical Harmonics?: true
    Max angular momentum: 2

  ==> DFJKGrad: Density-Fitted SCF Gradients <==

    Gradient:                    1
    J tasked:                  Yes
    K tasked:                  Yes
    wK tasked:                  No
    OpenMP threads:              1
    Integrals threads:           1
    Memory [MiB]:              375
    Schwarz Cutoff:          1E-12
    Fitting Condition:       1E-10

   => Auxiliary Basis Set <=

  Basis Set: (CC-PVDZ AUX)
    Blend: CC-PVDZ-JKFIT
    Number of shells: 60
    Number of basis functions: 182
    Number of Cartesian functions: 211
    Spherical Harmonics?: true
    Max angular momentum: 3

  ==> DFT Potential <==

   => LibXC <=

    Version 6.2.2
    S. Lehtola, C. Steigemann, M. J.T. Oliveira, and M. A.L. Marques.,  SoftwareX 7, 1â€“5 (2018) (10.1016/j.softx.2017.11.002)

   => Composite Functional: B3LYP <=

    B3LYP Hyb-GGA Exchange-Correlation Functional

    P. J. Stephens, F. J. Devlin, C. F. Chabalowski, and M. J. Frisch.,  J. Phys. Chem. 98, 11623 (1994) (10.1021/j100096a001)

    Deriv               =              1
    GGA                 =           TRUE
    Meta                =          FALSE

    Exchange Hybrid     =           TRUE
    MP2 Hybrid          =          FALSE

   => Exchange Functionals <=

    0.0800   Slater exchange
    0.7200         Becke 88

   => Exact (HF) Exchange <=

    0.2000               HF

   => Correlation Functionals <=

    0.1900   Vosko, Wilk & Nusair (VWN5_RPA)
    0.8100   Lee, Yang & Parr

   => LibXC Density Thresholds  <==

    XC_HYB_GGA_XC_B3LYP:  1.00E-15

   => Molecular Quadrature <=

    Radial Scheme          =       TREUTLER
    Pruning Scheme         =           NONE
    Nuclear Scheme         =       TREUTLER

    Blocking Scheme        =         OCTREE
    BS radius alpha        =              1
    Pruning alpha          =              1
    Radial Points          =             75
    Spherical Points       =            302
    Total Points           =          42753
    Total Blocks           =            394
    Max Points             =            256
    Max Functions          =             32
    Weights Tolerance      =       1.00E-15

  -Total Gradient:
     Atom            X                  Y                   Z
    ------   -----------------  -----------------  -----------------
       1       -0.000000000000    -0.000000000000    -0.000012527000
       2        0.000000000000    -0.000000000000     0.000006188398

*** tstop() called on Joses-MacBook-Pro-2.local at Wed Jul 16 19:13:03 2025
Module time:
	user time   =       1.46 seconds =       0.02 minutes
	system time =       1.67 seconds =       0.03 minutes
	total time  =          0 seconds =       0.00 minutes
Total time:
	user time   =     131.48 seconds =       2.19 minutes
	system time =     103.69 seconds =       1.73 minutes
	total time  =         24 seconds =       0.40 minutes

    			-----------------------------------------

    			 OPTKING 3.0: for geometry optimizations

    			     By R.A. King, Bethel University

    			        with contributions from

    			    A.V. Copan, J. Cayton, A. Heide

    			-----------------------------------------

	                            ===> Fragment 1 <==

	 Z (Atomic Numbers)          Masses                          Geom
	       7.000000            14.003074          0.00000000  0.00000000  3.22157362
	      14.000000            27.976927          0.00000000  0.00000000 -1.61246925

	 - Coordinate -           - BOHR/RAD -       - ANG/DEG -
	 R(1,2)           =         4.834043           2.558065

	        --- Internal Coordinate Step in ANG or DEG, aJ/ANG or AJ/DEG ---
	-------------------------------------------------------------------------------
	           Coordinate      Previous         Force          Change          New
	           ----------      --------        ------          ------        ------
	               R(1,2)       2.55807        0.00008        0.00108       2.55915
	-------------------------------------------------------------------------------

	                                 ==> Convergence Check <==

	Measures of convergence in internal coordinates in au.

	Criteria marked as inactive (o), active & met (*), and active & unmet ( ).

	----------------------------------------------------------------------------------------------
	   Step    Total Energy     Delta E     Max Force     RMS Force      Max Disp      RMS Disp
	----------------------------------------------------------------------------------------------
	  Convergence Criteria     1.00e-06 *    3.00e-04 *             o    1.20e-03 *             o
	----------------------------------------------------------------------------------------------
	    18    -343.98090720   -2.09e-07 *    9.36e-06 *    9.36e-06 o    2.05e-03      2.05e-03 o  ~
	----------------------------------------------------------------------------------------------

Next Geometry in Ang
	Fragment 1 (Ang)

	    N   0.0000000000   0.0000000000   1.7053255202
	   Si   0.0000000000   0.0000000000  -0.8538241594

    Final optimized geometry and variables:
    Molecular point group: c2v
    Full point group: C_inf_v

    Geometry (in Angstrom), charge = 0, multiplicity = 6:

    N            0.000000000000     0.000000000000     1.704783341884
    SI           0.000000000000     0.000000000000    -0.853281981076

    Psi4 stopped on: Wednesday, 16 July 2025 07:13PM
    Psi4 wall time for execution: 0:00:24.71

*** Psi4 exiting successfully. Buy a developer a beer!
