                               Psi4 1.9.1 release

  ==> Input File <==

--------------------------------------------------------------------------
molecule {
0 6
B   0.00000        0.60000        0.00000
Si   0.00000       -0.60000        0.00000
}

set {
basis              cc-pvdz
reference          uks
maxiter            500
geom_maxiter       500
DAMPING_PERCENTAGE 1
guess              SAP
}

optimize('b3lyp')
--------------------------------------------------------------------------

    Molecular point group: c2v
  Charge       = 0
  Multiplicity = 6
  Basis Set: CC-PVDZ
    Blend: CC-PVDZ
  Basis Set: (CC-PVDZ AUX)
    Blend: CC-PVDZ-JKFIT
  @DF-UKS Final Energy:  -313.46028976625325
    Total Energy =                       -313.4602897662532541
 Dipole X            :          0.0000000            0.0000000            0.0000000
 Dipole Y            :          0.0000000            0.0000000            0.0000000
 Dipole Z            :          0.5757712           -0.8286114           -0.2528402
 Magnitude           :                                                    0.2528402
    Molecular point group: c2v
  Basis Set: CC-PVDZ
    Blend: CC-PVDZ
  Basis Set: (CC-PVDZ AUX)
    Blend: CC-PVDZ-JKFIT
  Basis Set: CC-PVDZ
    Blend: CC-PVDZ
  Basis Set: (CC-PVDZ AUX)
    Blend: CC-PVDZ-JKFIT
  @DF-UKS Final Energy:  -313.73946851090005
    Total Energy =                       -313.7394685109000534
  Basis Set: CC-PVDZ
    Blend: CC-PVDZ
  Basis Set: (CC-PVDZ AUX)
    Blend: CC-PVDZ-JKFIT
  Basis Set: CC-PVDZ
    Blend: CC-PVDZ
  @DF-UKS Final Energy:  -313.90329406454197
    Total Energy =                       -313.9032940645419671
  @DF-UKS Final Energy:  -313.97529702678582
    Total Energy =                       -313.9752970267858245
  @DF-UKS Final Energy:  -314.00410707063543
    Total Energy =                       -314.0041070706354276
  @DF-UKS Final Energy:  -314.01344171403696
    Total Energy =                       -314.0134417140369578
  @DF-UKS Final Energy:  -314.01520868639426
    Total Energy =                       -314.0152086863942600
  @DF-UKS Final Energy:  -314.01566595013372
    Total Energy =                       -314.0156659501337231
  @DF-UKS Final Energy:  -314.01571497154634
    Total Energy =                       -314.0157149715463447
  Basis Set: (CC-PVDZ AUX)
    Blend: CC-PVDZ-JKFIT
  Basis Set: CC-PVDZ
    Blend: CC-PVDZ
  Basis Set: (CC-PVDZ AUX)
    Blend: CC-PVDZ-JKFIT
  @DF-UKS Final Energy:  -314.01572057448038
    Total Energy =                       -314.0157205744803832
  Basis Set: CC-PVDZ
    Blend: CC-PVDZ
  Basis Set: (CC-PVDZ AUX)
    Blend: CC-PVDZ-JKFIT
  Charge       = 0
  Multiplicity = 6
  Basis Set: CC-PVDZ
    Blend: CC-PVDZ
  Basis Set: (CC-PVDZ AUX)
    Blend: CC-PVDZ-JKFIT

    Orbital Energies [Eh]
    ---------------------

    Alpha Occupied:

       1A1   -66.189117     2A1    -6.831612     3A1    -5.333530
       1B2    -3.694194     4A1    -3.692306     1B1    -3.692252
       5A1    -0.558106     6A1    -0.391624     2B1    -0.255667
       7A1    -0.252427     2B2    -0.244086     3B1    -0.142585

    Alpha Virtual:

       3B2    -0.080670     8A1     0.050647     9A1     0.214126
      10A1     0.254429     4B2     0.267166     4B1     0.267921
      11A1     0.301836     5B1     0.308394     1A2     0.309109
      12A1     0.309848     5B2     0.319647     6B1     0.354065
       6B2     0.356151    13A1     0.542045    14A1     0.666641
       2A2     0.689023    15A1     0.692330     7B1     0.865892
       7B2     0.867957    16A1     1.106508

    Beta Occupied:

       1A1   -66.179813     2A1    -6.800885     3A1    -5.322084
       1B2    -3.681356     4A1    -3.679346     1B1    -3.675906
       5A1    -0.458453

    Beta Virtual:

       6A1    -0.214781     2B2    -0.124790     2B1    -0.106703
       7A1    -0.072179     3B2     0.005599     3B1     0.028538
       8A1     0.109547     9A1     0.255927     4B2     0.303166
      10A1     0.313570     4B1     0.316193     5B2     0.365685
      11A1     0.373548     5B1     0.384645     1A2     0.392842
      12A1     0.393140     6B2     0.429897     6B1     0.447566
      13A1     0.597486    14A1     0.740960     2A2     0.787108
      15A1     0.787443     7B2     0.955177     7B1     0.977125
      16A1     1.194408

    Final Occupation by Irrep:
             A1    A2    B1    B2
    DOCC [     5,    0,    1,    1 ]
    SOCC [     2,    0,    2,    1 ]
    NA   [     7,    0,    3,    2 ]
    NB   [     5,    0,    1,    1 ]

  @DF-UKS Final Energy:  -314.01572130158303

   => Energetics <=

    Nuclear Repulsion Energy =             18.7191069037240787
    One-Electron Energy =                -470.1024803809280002
    Two-Electron Energy =                 157.3915831162064194
    DFT Exchange-Correlation Energy =     -20.0239309405855366
    Empirical Dispersion Energy =           0.0000000000000000
    VV10 Nonlocal Energy =                  0.0000000000000000
    Total Energy =                       -314.0157213015830280

  UHF NO Occupations:
  HONO-2 :    3 B1 1.0000000
  HONO-1 :    2 B2 1.0000000
  HONO-0 :    7 A1 1.0000000
  LUNO+0 :    8 A1 0.0006417
  LUNO+1 :    9 A1 0.0000003
  LUNO+2 :    3 B2 0.0000002
  LUNO+3 :    4 B1 0.0000002

Computation Completed

Properties will be evaluated at   0.000000,   0.000000,   0.000000 [a0]

Properties computed using the SCF density matrix

 Multipole Moments:

 ------------------------------------------------------------------------------------
     Multipole            Electronic (a.u.)      Nuclear  (a.u.)        Total (a.u.)
 ------------------------------------------------------------------------------------

 L = 1.  Multiply by 2.5417464519 to convert [e a0] to [Debye]
 Dipole X            :          0.0000000            0.0000000            0.0000000
 Dipole Y            :          0.0000000            0.0000000            0.0000000
 Dipole Z            :          0.8118748           -1.3664184           -0.5545436
 Magnitude           :                                                    0.5545436

 ------------------------------------------------------------------------------------

*** tstop() called on Joses-MacBook-Pro-2.local at Wed Jul 16 18:55:39 2025
Module time:
	user time   =       4.00 seconds =       0.07 minutes
	system time =       2.20 seconds =       0.04 minutes
	total time  =          0 seconds =       0.00 minutes
Total time:
	user time   =     117.42 seconds =       1.96 minutes
	system time =      51.64 seconds =       0.86 minutes
	total time  =         21 seconds =       0.35 minutes

*** tstart() called on Joses-MacBook-Pro-2.local
*** at Wed Jul 16 18:55:39 2025

         ------------------------------------------------------------
                                   SCF GRAD
                          Rob Parrish, Justin Turney,
                       Andy Simmonett, and Alex Sokolov
         ------------------------------------------------------------

  ==> Geometry <==

    Molecular point group: c2v
    Full point group: C_inf_v

    Geometry (in Angstrom), charge = 0, multiplicity = 6:

       Center              X                  Y                   Z               Mass
    ------------   -----------------  -----------------  -----------------  -----------------
         B            0.000000000000     0.000000000000     1.420047229869    11.009305360000
         SI           0.000000000000     0.000000000000    -0.558808114962    27.976926534650

  Nuclear repulsion =   18.719106903724079

  ==> Basis Set <==

  Basis Set: CC-PVDZ
    Blend: CC-PVDZ
    Number of shells: 14
    Number of basis functions: 32
    Number of Cartesian functions: 34
    Spherical Harmonics?: true
    Max angular momentum: 2

  ==> DFJKGrad: Density-Fitted SCF Gradients <==

    Gradient:                    1
    J tasked:                  Yes
    K tasked:                  Yes
    wK tasked:                  No
    OpenMP threads:              1
    Integrals threads:           1
    Memory [MiB]:              375
    Schwarz Cutoff:          1E-12
    Fitting Condition:       1E-10

   => Auxiliary Basis Set <=

  Basis Set: (CC-PVDZ AUX)
    Blend: CC-PVDZ-JKFIT
    Number of shells: 60
    Number of basis functions: 182
    Number of Cartesian functions: 211
    Spherical Harmonics?: true
    Max angular momentum: 3

  ==> DFT Potential <==

   => LibXC <=

    Version 6.2.2
    S. Lehtola, C. Steigemann, M. J.T. Oliveira, and M. A.L. Marques.,  SoftwareX 7, 1â€“5 (2018) (10.1016/j.softx.2017.11.002)

   => Composite Functional: B3LYP <=

    B3LYP Hyb-GGA Exchange-Correlation Functional

    P. J. Stephens, F. J. Devlin, C. F. Chabalowski, and M. J. Frisch.,  J. Phys. Chem. 98, 11623 (1994) (10.1021/j100096a001)

    Deriv               =              1
    GGA                 =           TRUE
    Meta                =          FALSE

    Exchange Hybrid     =           TRUE
    MP2 Hybrid          =          FALSE

   => Exchange Functionals <=

    0.0800   Slater exchange
    0.7200         Becke 88

   => Exact (HF) Exchange <=

    0.2000               HF

   => Correlation Functionals <=

    0.1900   Vosko, Wilk & Nusair (VWN5_RPA)
    0.8100   Lee, Yang & Parr

   => LibXC Density Thresholds  <==

    XC_HYB_GGA_XC_B3LYP:  1.00E-15

   => Molecular Quadrature <=

    Radial Scheme          =       TREUTLER
    Pruning Scheme         =           NONE
    Nuclear Scheme         =       TREUTLER

    Blocking Scheme        =         OCTREE
    BS radius alpha        =              1
    Pruning alpha          =              1
    Radial Points          =             75
    Spherical Points       =            302
    Total Points           =          42131
    Total Blocks           =            387
    Max Points             =            256
    Max Functions          =             32
    Weights Tolerance      =       1.00E-15

  -Total Gradient:
     Atom            X                  Y                   Z
    ------   -----------------  -----------------  -----------------
       1        0.000000000000    -0.000000000000    -0.000087770917
       2        0.000000000000     0.000000000000     0.000078553389

*** tstop() called on Joses-MacBook-Pro-2.local at Wed Jul 16 18:55:40 2025
Module time:
	user time   =       1.63 seconds =       0.03 minutes
	system time =       1.18 seconds =       0.02 minutes
	total time  =          1 seconds =       0.02 minutes
Total time:
	user time   =     119.05 seconds =       1.98 minutes
	system time =      52.83 seconds =       0.88 minutes
	total time  =         22 seconds =       0.37 minutes

    			-----------------------------------------

    			 OPTKING 3.0: for geometry optimizations

    			     By R.A. King, Bethel University

    			        with contributions from

    			    A.V. Copan, J. Cayton, A. Heide

    			-----------------------------------------

	                            ===> Fragment 1 <==

	 Z (Atomic Numbers)          Masses                          Geom
	       5.000000            11.009305          0.00000000  0.00000000  2.68350035
	      14.000000            27.976927          0.00000000  0.00000000 -1.05599429

	 - Coordinate -           - BOHR/RAD -       - ANG/DEG -
	 R(1,2)           =         3.739495           1.978855

	        --- Internal Coordinate Step in ANG or DEG, aJ/ANG or AJ/DEG ---
	-------------------------------------------------------------------------------
	           Coordinate      Previous         Force          Change          New
	           ----------      --------        ------          ------        ------
	               R(1,2)       1.97886        0.00069        0.00029       1.97914
	-------------------------------------------------------------------------------

	                                 ==> Convergence Check <==

	Measures of convergence in internal coordinates in au.

	Criteria marked as inactive (o), active & met (*), and active & unmet ( ).

	----------------------------------------------------------------------------------------------
	   Step    Total Energy     Delta E     Max Force     RMS Force      Max Disp      RMS Disp
	----------------------------------------------------------------------------------------------
	  Convergence Criteria     1.00e-06 *    3.00e-04 *             o    1.20e-03 *             o
	----------------------------------------------------------------------------------------------
	    11    -314.01572130   -7.27e-07 *    8.32e-05 *    8.32e-05 o    5.39e-04 *    5.39e-04 o  ~
	----------------------------------------------------------------------------------------------

Next Geometry in Ang
	Fragment 1 (Ang)

	    B   0.0000000000   0.0000000000   1.4201897664
	   Si   0.0000000000   0.0000000000  -0.5589506515

    Final optimized geometry and variables:
    Molecular point group: c2v
    Full point group: C_inf_v

    Geometry (in Angstrom), charge = 0, multiplicity = 6:

    B            0.000000000000     0.000000000000     1.420047229869
    SI           0.000000000000     0.000000000000    -0.558808114962

    Psi4 stopped on: Wednesday, 16 July 2025 06:55PM
    Psi4 wall time for execution: 0:00:22.51

*** Psi4 exiting successfully. Buy a developer a beer!
