                               Psi4 1.9.1 release

  ==> Input File <==

--------------------------------------------------------------------------
molecule {
0 6
Be   0.00000        0.60000        0.00000
Cl   0.00000       -0.60000        0.00000
}

set {
basis              cc-pvdz
reference          uks
maxiter            500
geom_maxiter       500
DAMPING_PERCENTAGE 1
guess              SAP
}

optimize('b3lyp')
--------------------------------------------------------------------------

    Molecular point group: c2v
  Charge       = 0
  Multiplicity = 6
  Basis Set: CC-PVDZ
    Blend: CC-PVDZ
  Basis Set: (CC-PVDZ AUX)
    Blend: CC-PVDZ-JKFIT + DEF2-UNIVERSAL-JKFIT
  @DF-UKS Final Energy:  -473.79355374383567
    Total Energy =                       -473.7935537438356732
 Dipole X            :          0.0000000            0.0000000            0.0000000
 Dipole Y            :          0.0000000            0.0000000            0.0000000
 Dipole Z            :         -1.8515520           -0.6873853           -2.5389373
 Magnitude           :                                                    2.5389373
    Molecular point group: c2v
  Basis Set: CC-PVDZ
    Blend: CC-PVDZ
  Basis Set: (CC-PVDZ AUX)
    Blend: CC-PVDZ-JKFIT + DEF2-UNIVERSAL-JKFIT
  Basis Set: CC-PVDZ
    Blend: CC-PVDZ
  Basis Set: (CC-PVDZ AUX)
    Blend: CC-PVDZ-JKFIT + DEF2-UNIVERSAL-JKFIT
  @DF-UKS Final Energy:  -474.01556055044205
    Total Energy =                       -474.0155605504420464
  Basis Set: CC-PVDZ
    Blend: CC-PVDZ
  Basis Set: (CC-PVDZ AUX)
    Blend: CC-PVDZ-JKFIT + DEF2-UNIVERSAL-JKFIT
  Basis Set: CC-PVDZ
    Blend: CC-PVDZ
  @DF-UKS Final Energy:  -474.16235284451091
    Total Energy =                       -474.1623528445109059
  @DF-UKS Final Energy:  -474.25173116181065
    Total Energy =                       -474.2517311618106532
  @DF-UKS Final Energy:  -474.31013959336025
    Total Energy =                       -474.3101395933602475
  @DF-UKS Final Energy:  -474.35292550286039
    Total Energy =                       -474.3529255028604439
  @DF-UKS Final Energy:  -474.38117549564799
    Total Energy =                       -474.3811754956479945
  @DF-UKS Final Energy:  -474.39369651314041
    Total Energy =                       -474.3936965131404122
  @DF-UKS Final Energy:  -474.39743333774783
    Total Energy =                       -474.3974333377478274
  @DF-UKS Final Energy:  -474.39813901024900
    Total Energy =                       -474.3981390102489968
  @DF-UKS Final Energy:  -474.39819113920964
    Total Energy =                       -474.3981911392096436
  Basis Set: (CC-PVDZ AUX)
    Blend: CC-PVDZ-JKFIT + DEF2-UNIVERSAL-JKFIT
  Basis Set: CC-PVDZ
    Blend: CC-PVDZ
  Basis Set: (CC-PVDZ AUX)
    Blend: CC-PVDZ-JKFIT + DEF2-UNIVERSAL-JKFIT
  @DF-UKS Final Energy:  -474.39819504062717
    Total Energy =                       -474.3981950406271153
  Basis Set: CC-PVDZ
    Blend: CC-PVDZ
  Basis Set: (CC-PVDZ AUX)
    Blend: CC-PVDZ-JKFIT + DEF2-UNIVERSAL-JKFIT
  Charge       = 0
  Multiplicity = 6
  Basis Set: CC-PVDZ
    Blend: CC-PVDZ
  Basis Set: (CC-PVDZ AUX)
    Blend: CC-PVDZ-JKFIT + DEF2-UNIVERSAL-JKFIT

    Orbital Energies [Eh]
    ---------------------

    Alpha Occupied:

       1A1  -101.901847     2A1    -9.807370     3A1    -7.576676
       1B1    -7.576647     1B2    -7.550512     4A1    -4.001364
       5A1    -1.117365     6A1    -0.642261     2B1    -0.640722
       2B2    -0.581967     7A1    -0.211030     3B1    -0.073148
       3B2    -0.071181

    Alpha Virtual:

       8A1    -0.009093     9A1     0.174106     4B1     0.220583
       4B2     0.223222    10A1     0.246621    11A1     0.323615
       5B1     0.338080     5B2     0.363520     6B1     0.372773
      12A1     0.406483     6B2     0.411436     1A2     0.432528
      13A1     0.442837    14A1     0.477614     2A2     0.512599
      15A1     0.512689     7B1     0.556309     7B2     0.567627
      16A1     0.832576

    Beta Occupied:

       1A1  -101.886289     2A1    -9.792036     3A1    -7.547219
       1B1    -7.547188     1B2    -7.541031     4A1    -3.982750
       5A1    -1.003422     2B2    -0.546353

    Beta Virtual:

       6A1    -0.450890     2B1    -0.449002     7A1    -0.042334
       8A1     0.049696     3B2     0.074896     3B1     0.075871
       9A1     0.228403    10A1     0.292958     4B1     0.294706
       4B2     0.295516    11A1     0.387240     5B2     0.388467
       5B1     0.391985     6B2     0.484160    12A1     0.494182
       6B1     0.496011     1A2     0.502548    13A1     0.509405
      14A1     0.547433     2A2     0.647910    15A1     0.648220
       7B2     0.655803     7B1     0.659271    16A1     0.897930

    Final Occupation by Irrep:
             A1    A2    B1    B2
    DOCC [     5,    0,    1,    2 ]
    SOCC [     2,    0,    2,    1 ]
    NA   [     7,    0,    3,    3 ]
    NB   [     5,    0,    1,    2 ]

  @DF-UKS Final Energy:  -474.39819508367998

   => Energetics <=

    Nuclear Repulsion Energy =             12.5084413034284907
    One-Electron Energy =                -674.5252007884582781
    Two-Electron Energy =                 212.4748035644059030
    DFT Exchange-Correlation Energy =     -24.8562391630560953
    Empirical Dispersion Energy =           0.0000000000000000
    VV10 Nonlocal Energy =                  0.0000000000000000
    Total Energy =                       -474.3981950836799797

  UHF NO Occupations:
  HONO-2 :    3 B2 1.0000000
  HONO-1 :    3 B1 1.0000000
  HONO-0 :    7 A1 1.0000000
  LUNO+0 :    8 A1 0.0010044
  LUNO+1 :    4 B2 0.0001488
  LUNO+2 :    9 A1 0.0000005
  LUNO+3 :   10 A1 0.0000000

Computation Completed

Properties will be evaluated at   0.000000,   0.000000,   0.000000 [a0]

Properties computed using the SCF density matrix

 Multipole Moments:

 ------------------------------------------------------------------------------------
     Multipole            Electronic (a.u.)      Nuclear  (a.u.)        Total (a.u.)
 ------------------------------------------------------------------------------------

 L = 1.  Multiply by 2.5417464519 to convert [e a0] to [Debye]
 Dipole X            :          0.0000000            0.0000000            0.0000000
 Dipole Y            :          0.0000000            0.0000000            0.0000000
 Dipole Z            :         -2.8135145           -1.6478810           -4.4613955
 Magnitude           :                                                    4.4613955

 ------------------------------------------------------------------------------------

*** tstop() called on Joses-MacBook-Pro-2.local at Wed Jul 16 18:47:34 2025
Module time:
	user time   =       2.71 seconds =       0.05 minutes
	system time =       2.49 seconds =       0.04 minutes
	total time  =          0 seconds =       0.00 minutes
Total time:
	user time   =      61.53 seconds =       1.03 minutes
	system time =      68.98 seconds =       1.15 minutes
	total time  =         13 seconds =       0.22 minutes

*** tstart() called on Joses-MacBook-Pro-2.local
*** at Wed Jul 16 18:47:34 2025

         ------------------------------------------------------------
                                   SCF GRAD
                          Rob Parrish, Justin Turney,
                       Andy Simmonett, and Alex Sokolov
         ------------------------------------------------------------

  ==> Geometry <==

    Molecular point group: c2v
    Full point group: C_inf_v

    Geometry (in Angstrom), charge = 0, multiplicity = 6:

       Center              X                  Y                   Z               Mass
    ------------   -----------------  -----------------  -----------------  -----------------
         BE           0.000000000000     0.000000000000     2.287298163514     9.012183065000
         CL           0.000000000000     0.000000000000    -0.589483159807    34.968852682000

  Nuclear repulsion =   12.508441303428491

  ==> Basis Set <==

  Basis Set: CC-PVDZ
    Blend: CC-PVDZ
    Number of shells: 14
    Number of basis functions: 32
    Number of Cartesian functions: 34
    Spherical Harmonics?: true
    Max angular momentum: 2

  ==> DFJKGrad: Density-Fitted SCF Gradients <==

    Gradient:                    1
    J tasked:                  Yes
    K tasked:                  Yes
    wK tasked:                  No
    OpenMP threads:              1
    Integrals threads:           1
    Memory [MiB]:              375
    Schwarz Cutoff:          1E-12
    Fitting Condition:       1E-10

   => Auxiliary Basis Set <=

  Basis Set: (CC-PVDZ AUX)
    Blend: CC-PVDZ-JKFIT + DEF2-UNIVERSAL-JKFIT
    Number of shells: 53
    Number of basis functions: 163
    Number of Cartesian functions: 190
    Spherical Harmonics?: true
    Max angular momentum: 3

  ==> DFT Potential <==

   => LibXC <=

    Version 6.2.2
    S. Lehtola, C. Steigemann, M. J.T. Oliveira, and M. A.L. Marques.,  SoftwareX 7, 1â€“5 (2018) (10.1016/j.softx.2017.11.002)

   => Composite Functional: B3LYP <=

    B3LYP Hyb-GGA Exchange-Correlation Functional

    P. J. Stephens, F. J. Devlin, C. F. Chabalowski, and M. J. Frisch.,  J. Phys. Chem. 98, 11623 (1994) (10.1021/j100096a001)

    Deriv               =              1
    GGA                 =           TRUE
    Meta                =          FALSE

    Exchange Hybrid     =           TRUE
    MP2 Hybrid          =          FALSE

   => Exchange Functionals <=

    0.0800   Slater exchange
    0.7200         Becke 88

   => Exact (HF) Exchange <=

    0.2000               HF

   => Correlation Functionals <=

    0.1900   Vosko, Wilk & Nusair (VWN5_RPA)
    0.8100   Lee, Yang & Parr

   => LibXC Density Thresholds  <==

    XC_HYB_GGA_XC_B3LYP:  1.00E-15

   => Molecular Quadrature <=

    Radial Scheme          =       TREUTLER
    Pruning Scheme         =           NONE
    Nuclear Scheme         =       TREUTLER

    Blocking Scheme        =         OCTREE
    BS radius alpha        =              1
    Pruning alpha          =              1
    Radial Points          =             75
    Spherical Points       =            302
    Total Points           =          42818
    Total Blocks           =            407
    Max Points             =            251
    Max Functions          =             32
    Weights Tolerance      =       1.00E-15

  -Total Gradient:
     Atom            X                  Y                   Z
    ------   -----------------  -----------------  -----------------
       1        0.000000000000     0.000000000000     0.000001840340
       2        0.000000000000    -0.000000000000     0.000017776962

*** tstop() called on Joses-MacBook-Pro-2.local at Wed Jul 16 18:47:34 2025
Module time:
	user time   =       0.91 seconds =       0.02 minutes
	system time =       1.34 seconds =       0.02 minutes
	total time  =          0 seconds =       0.00 minutes
Total time:
	user time   =      62.44 seconds =       1.04 minutes
	system time =      70.32 seconds =       1.17 minutes
	total time  =         13 seconds =       0.22 minutes

    			-----------------------------------------

    			 OPTKING 3.0: for geometry optimizations

    			     By R.A. King, Bethel University

    			        with contributions from

    			    A.V. Copan, J. Cayton, A. Heide

    			-----------------------------------------

	                            ===> Fragment 1 <==

	 Z (Atomic Numbers)          Masses                          Geom
	       4.000000             9.012183          0.00000000  0.00000000  4.32236710
	      17.000000            34.968853          0.00000000  0.00000000 -1.11396173

	 - Coordinate -           - BOHR/RAD -       - ANG/DEG -
	 R(1,2)           =         5.436329           2.876781

	        --- Internal Coordinate Step in ANG or DEG, aJ/ANG or AJ/DEG ---
	-------------------------------------------------------------------------------
	           Coordinate      Previous         Force          Change          New
	           ----------      --------        ------          ------        ------
	               R(1,2)       2.87678        0.00007        0.00016       2.87694
	-------------------------------------------------------------------------------

	                                 ==> Convergence Check <==

	Measures of convergence in internal coordinates in au.

	Criteria marked as inactive (o), active & met (*), and active & unmet ( ).

	----------------------------------------------------------------------------------------------
	   Step    Total Energy     Delta E     Max Force     RMS Force      Max Disp      RMS Disp
	----------------------------------------------------------------------------------------------
	  Convergence Criteria     1.00e-06 *    3.00e-04 *             o    1.20e-03 *             o
	----------------------------------------------------------------------------------------------
	    13    -474.39819508   -4.31e-08 *    7.97e-06 *    7.97e-06 o    3.05e-04 *    3.05e-04 o  ~
	----------------------------------------------------------------------------------------------

Next Geometry in Ang
	Fragment 1 (Ang)

	   Be   0.0000000000   0.0000000000   2.2873789412
	   Cl   0.0000000000   0.0000000000  -0.5895639375

    Final optimized geometry and variables:
    Molecular point group: c2v
    Full point group: C_inf_v

    Geometry (in Angstrom), charge = 0, multiplicity = 6:

    BE           0.000000000000     0.000000000000     2.287298163514
    CL           0.000000000000     0.000000000000    -0.589483159807

    Psi4 stopped on: Wednesday, 16 July 2025 06:47PM
    Psi4 wall time for execution: 0:00:13.59

*** Psi4 exiting successfully. Buy a developer a beer!
