                               Psi4 1.9.1 release

  ==> Input File <==

--------------------------------------------------------------------------
molecule {
0 6
Na   0.00000        0.60000        0.00000
Ar   0.00000       -0.60000        0.00000
}

set {
basis              cc-pvdz
reference          uks
maxiter            500
geom_maxiter       500
DAMPING_PERCENTAGE 1
guess              SAP
}

optimize('b3lyp')
--------------------------------------------------------------------------

    Molecular point group: c2v
  Charge       = 0
  Multiplicity = 6
  Basis Set: CC-PVDZ
    Blend: CC-PVDZ
  Basis Set: (CC-PVDZ AUX)
    Blend: CC-PVDZ-JKFIT + DEF2-UNIVERSAL-JKFIT
  @DF-UKS Final Energy:  -687.65608911907066
    Total Energy =                       -687.6560891190705433
 Dipole X            :          0.0000000            0.0000000            0.0000000
 Dipole Y            :          0.0000000            0.0000000            0.0000000
 Dipole Z            :         -2.9692252            0.9283038           -2.0409214
 Magnitude           :                                                    2.0409214
    Molecular point group: c2v
  Basis Set: CC-PVDZ
    Blend: CC-PVDZ
  Basis Set: (CC-PVDZ AUX)
    Blend: CC-PVDZ-JKFIT + DEF2-UNIVERSAL-JKFIT
  Basis Set: CC-PVDZ
    Blend: CC-PVDZ
  Basis Set: (CC-PVDZ AUX)
    Blend: CC-PVDZ-JKFIT + DEF2-UNIVERSAL-JKFIT
  @DF-UKS Final Energy:  -687.67429624224508
    Total Energy =                       -687.6742962422450773
  Basis Set: CC-PVDZ
    Blend: CC-PVDZ
  Basis Set: (CC-PVDZ AUX)
    Blend: CC-PVDZ-JKFIT + DEF2-UNIVERSAL-JKFIT
  Basis Set: CC-PVDZ
    Blend: CC-PVDZ
  @DF-UKS Final Energy:  -687.70906944495152
    Total Energy =                       -687.7090694449514103
  @DF-UKS Final Energy:  -687.83146114421095
    Total Energy =                       -687.8314611442109481
  @DF-UKS Final Energy:  -688.27279521204809
    Total Energy =                       -688.2727952120479813
  @DF-UKS Final Energy:  -688.43663909848226
    Total Energy =                       -688.4366390984822601
  @DF-UKS Final Energy:  -688.54563128800703
    Total Energy =                       -688.5456312880070300
  @DF-UKS Final Energy:  -688.61521079744909
    Total Energy =                       -688.6152107974489809
  @DF-UKS Final Energy:  -688.65552278298571
    Total Energy =                       -688.6555227829857131
  @DF-UKS Final Energy:  -688.67724462728984
    Total Energy =                       -688.6772446272898378
  @DF-UKS Final Energy:  -688.68591171121466
    Total Energy =                       -688.6859117112145441
  @DF-UKS Final Energy:  -688.68779411259572
    Total Energy =                       -688.6877941125958387
  Basis Set: (CC-PVDZ AUX)
    Blend: CC-PVDZ-JKFIT + DEF2-UNIVERSAL-JKFIT
  Basis Set: CC-PVDZ
    Blend: CC-PVDZ
  Basis Set: (CC-PVDZ AUX)
    Blend: CC-PVDZ-JKFIT + DEF2-UNIVERSAL-JKFIT
  @DF-UKS Final Energy:  -688.68793534488350
    Total Energy =                       -688.6879353448834991
  Basis Set: CC-PVDZ
    Blend: CC-PVDZ
  Basis Set: (CC-PVDZ AUX)
    Blend: CC-PVDZ-JKFIT + DEF2-UNIVERSAL-JKFIT
  Charge       = 0
  Multiplicity = 6
  Basis Set: CC-PVDZ
    Blend: CC-PVDZ
  Basis Set: (CC-PVDZ AUX)
    Blend: CC-PVDZ-JKFIT + DEF2-UNIVERSAL-JKFIT

    Orbital Energies [Eh]
    ---------------------

    Alpha Occupied:

       1A1  -115.797926     2A1   -38.467704     3A1   -11.801166
       4A1    -9.369070     1B2    -9.368549     1B1    -9.336438
       5A1    -2.220504     6A1    -1.548631     7A1    -1.158024
       2B2    -1.149239     2B1    -1.149162     8A1    -0.989969
       3B2    -0.985918     3B1    -0.917186     9A1    -0.183799
       4B2    -0.083408     4B1    -0.076493

    Alpha Virtual:

      10A1    -0.046656    11A1     0.012654     5B2     0.036749
       5B1     0.041894    12A1     0.082646     6B2     0.137499
       6B1     0.142356    13A1     0.145050     1A2     0.153567
      14A1     0.154112     7B2     0.232940    15A1     0.253244
       7B1     0.273402    16A1     0.301401     2A2     0.305183
      17A1     0.329363     8B2     0.367099     8B1     0.399210
      18A1     0.776878

    Beta Occupied:

       1A1  -115.777109     2A1   -38.465462     3A1   -11.781027
       4A1    -9.332274     1B2    -9.330614     1B1    -9.323373
       5A1    -2.216578     6A1    -1.411830     7A1    -1.154355
       2B1    -1.145392     2B2    -1.145381     3B1    -0.869683

    Beta Virtual:

       8A1    -0.763205     3B2    -0.756914     9A1    -0.090655
      10A1    -0.027912     4B2     0.004178     4B1     0.004197
      11A1     0.049949     5B1     0.086679     5B2     0.086881
      12A1     0.089819     6B1     0.153771     6B2     0.155091
      13A1     0.179211     1A2     0.204775    14A1     0.205051
       7B1     0.315589     7B2     0.320028    15A1     0.332756
       2A2     0.387087    16A1     0.393201    17A1     0.409104
       8B1     0.459179     8B2     0.468454    18A1     0.829363

    Final Occupation by Irrep:
             A1    A2    B1    B2
    DOCC [     7,    0,    3,    2 ]
    SOCC [     2,    0,    1,    2 ]
    NA   [     9,    0,    4,    4 ]
    NB   [     7,    0,    3,    2 ]

  @DF-UKS Final Energy:  -688.68793693292253

   => Energetics <=

    Nuclear Repulsion Energy =             38.9117348571266817
    One-Electron Energy =               -1022.9152000365371578
    Two-Electron Energy =                 331.4717421970185569
    DFT Exchange-Correlation Energy =     -36.1562139505305566
    Empirical Dispersion Energy =           0.0000000000000000
    VV10 Nonlocal Energy =                  0.0000000000000000
    Total Energy =                       -688.6879369329224119

  UHF NO Occupations:
  HONO-2 :    4 B2 1.0000000
  HONO-1 :    4 B1 1.0000000
  HONO-0 :    9 A1 1.0000000
  LUNO+0 :   10 A1 0.0009017
  LUNO+1 :    5 B1 0.0000981
  LUNO+2 :    5 B2 0.0000009
  LUNO+3 :    6 B1 0.0000009

Computation Completed

Properties will be evaluated at   0.000000,   0.000000,   0.000000 [a0]

Properties computed using the SCF density matrix

 Multipole Moments:

 ------------------------------------------------------------------------------------
     Multipole            Electronic (a.u.)      Nuclear  (a.u.)        Total (a.u.)
 ------------------------------------------------------------------------------------

 L = 1.  Multiply by 2.5417464519 to convert [e a0] to [Debye]
 Dipole X            :          0.0000000            0.0000000            0.0000000
 Dipole Y            :          0.0000000            0.0000000            0.0000000
 Dipole Z            :         -6.6562486            2.0830257           -4.5732229
 Magnitude           :                                                    4.5732229

 ------------------------------------------------------------------------------------

*** tstop() called on Joses-MacBook-Pro-2.local at Wed Jul 16 19:53:14 2025
Module time:
	user time   =       6.65 seconds =       0.11 minutes
	system time =       2.54 seconds =       0.04 minutes
	total time  =          1 seconds =       0.02 minutes
Total time:
	user time   =     175.64 seconds =       2.93 minutes
	system time =      53.32 seconds =       0.89 minutes
	total time  =         23 seconds =       0.38 minutes

*** tstart() called on Joses-MacBook-Pro-2.local
*** at Wed Jul 16 19:53:14 2025

         ------------------------------------------------------------
                                   SCF GRAD
                          Rob Parrish, Justin Turney,
                       Andy Simmonett, and Alex Sokolov
         ------------------------------------------------------------

  ==> Geometry <==

    Molecular point group: c2v
    Full point group: C_inf_v

    Geometry (in Angstrom), charge = 0, multiplicity = 6:

       Center              X                  Y                   Z               Mass
    ------------   -----------------  -----------------  -----------------  -----------------
         NA           0.000000000000     0.000000000000     1.709332399093    22.989769282000
         AR           0.000000000000     0.000000000000    -0.983353704402    39.962383123700

  Nuclear repulsion =   38.911734857126682

  ==> Basis Set <==

  Basis Set: CC-PVDZ
    Blend: CC-PVDZ
    Number of shells: 16
    Number of basis functions: 36
    Number of Cartesian functions: 38
    Spherical Harmonics?: true
    Max angular momentum: 2

  ==> DFJKGrad: Density-Fitted SCF Gradients <==

    Gradient:                    1
    J tasked:                  Yes
    K tasked:                  Yes
    wK tasked:                  No
    OpenMP threads:              1
    Integrals threads:           1
    Memory [MiB]:              375
    Schwarz Cutoff:          1E-12
    Fitting Condition:       1E-10

   => Auxiliary Basis Set <=

  Basis Set: (CC-PVDZ AUX)
    Blend: CC-PVDZ-JKFIT + DEF2-UNIVERSAL-JKFIT
    Number of shells: 70
    Number of basis functions: 224
    Number of Cartesian functions: 267
    Spherical Harmonics?: true
    Max angular momentum: 4

  ==> DFT Potential <==

   => LibXC <=

    Version 6.2.2
    S. Lehtola, C. Steigemann, M. J.T. Oliveira, and M. A.L. Marques.,  SoftwareX 7, 1â€“5 (2018) (10.1016/j.softx.2017.11.002)

   => Composite Functional: B3LYP <=

    B3LYP Hyb-GGA Exchange-Correlation Functional

    P. J. Stephens, F. J. Devlin, C. F. Chabalowski, and M. J. Frisch.,  J. Phys. Chem. 98, 11623 (1994) (10.1021/j100096a001)

    Deriv               =              1
    GGA                 =           TRUE
    Meta                =          FALSE

    Exchange Hybrid     =           TRUE
    MP2 Hybrid          =          FALSE

   => Exchange Functionals <=

    0.0800   Slater exchange
    0.7200         Becke 88

   => Exact (HF) Exchange <=

    0.2000               HF

   => Correlation Functionals <=

    0.1900   Vosko, Wilk & Nusair (VWN5_RPA)
    0.8100   Lee, Yang & Parr

   => LibXC Density Thresholds  <==

    XC_HYB_GGA_XC_B3LYP:  1.00E-15

   => Molecular Quadrature <=

    Radial Scheme          =       TREUTLER
    Pruning Scheme         =           NONE
    Nuclear Scheme         =       TREUTLER

    Blocking Scheme        =         OCTREE
    BS radius alpha        =              1
    Pruning alpha          =              1
    Radial Points          =             75
    Spherical Points       =            302
    Total Points           =          43848
    Total Blocks           =            443
    Max Points             =            255
    Max Functions          =             36
    Weights Tolerance      =       1.00E-15

  -Total Gradient:
     Atom            X                  Y                   Z
    ------   -----------------  -----------------  -----------------
       1        0.000000000000     0.000000000000     0.000016239376
       2        0.000000000000     0.000000000000     0.000114562335

*** tstop() called on Joses-MacBook-Pro-2.local at Wed Jul 16 19:53:14 2025
Module time:
	user time   =       2.69 seconds =       0.04 minutes
	system time =       1.74 seconds =       0.03 minutes
	total time  =          0 seconds =       0.00 minutes
Total time:
	user time   =     178.33 seconds =       2.97 minutes
	system time =      55.06 seconds =       0.92 minutes
	total time  =         23 seconds =       0.38 minutes

    			-----------------------------------------

    			 OPTKING 3.0: for geometry optimizations

    			     By R.A. King, Bethel University

    			        with contributions from

    			    A.V. Copan, J. Cayton, A. Heide

    			-----------------------------------------

	                            ===> Fragment 1 <==

	 Z (Atomic Numbers)          Masses                          Geom
	      11.000000            22.989769          0.00000000  0.00000000  3.23017009
	      18.000000            39.962383          0.00000000  0.00000000 -1.85826919

	 - Coordinate -           - BOHR/RAD -       - ANG/DEG -
	 R(1,2)           =         5.088439           2.692686

	        --- Internal Coordinate Step in ANG or DEG, aJ/ANG or AJ/DEG ---
	-------------------------------------------------------------------------------
	           Coordinate      Previous         Force          Change          New
	           ----------      --------        ------          ------        ------
	               R(1,2)       2.69269        0.00041        0.00050       2.69318
	-------------------------------------------------------------------------------

	                                 ==> Convergence Check <==

	Measures of convergence in internal coordinates in au.

	Criteria marked as inactive (o), active & met (*), and active & unmet ( ).

	----------------------------------------------------------------------------------------------
	   Step    Total Energy     Delta E     Max Force     RMS Force      Max Disp      RMS Disp
	----------------------------------------------------------------------------------------------
	  Convergence Criteria     1.00e-06 *    3.00e-04 *             o    1.20e-03 *             o
	----------------------------------------------------------------------------------------------
	    14    -688.68793693   -1.59e-06      4.92e-05 *    4.92e-05 o    9.40e-04 *    9.40e-04 o  ~
	----------------------------------------------------------------------------------------------

Next Geometry in Ang
	Fragment 1 (Ang)

	   Na   0.0000000000   0.0000000000   1.7095812141
	   Ar   0.0000000000   0.0000000000  -0.9836025194

    Final optimized geometry and variables:
    Molecular point group: c2v
    Full point group: C_inf_v

    Geometry (in Angstrom), charge = 0, multiplicity = 6:

    NA           0.000000000000     0.000000000000     1.709332399093
    AR           0.000000000000     0.000000000000    -0.983353704402

    Psi4 stopped on: Wednesday, 16 July 2025 07:53PM
    Psi4 wall time for execution: 0:00:23.26

*** Psi4 exiting successfully. Buy a developer a beer!
