                               Psi4 1.9.1 release

  ==> Input File <==

--------------------------------------------------------------------------
molecule {
0 6
Mg   0.00000        0.60000        0.00000
Cl   0.00000       -0.60000        0.00000
}

set {
basis              cc-pvdz
reference          uks
maxiter            500
geom_maxiter       500
DAMPING_PERCENTAGE 1
guess              SAP
}

optimize('b3lyp')
--------------------------------------------------------------------------

    Molecular point group: c2v
  Charge       = 0
  Multiplicity = 6
  Basis Set: CC-PVDZ
    Blend: CC-PVDZ
  Basis Set: (CC-PVDZ AUX)
    Blend: CC-PVDZ-JKFIT + DEF2-UNIVERSAL-JKFIT
  @DF-UKS Final Energy:  -658.45265105780641
    Total Energy =                       -658.4526510578064062
 Dipole X            :          0.0000000            0.0000000            0.0000000
 Dipole Y            :          0.0000000            0.0000000            0.0000000
 Dipole Z            :         -3.2513550            0.4569863           -2.7943687
 Magnitude           :                                                    2.7943687
    Molecular point group: c2v
  Basis Set: CC-PVDZ
    Blend: CC-PVDZ
  Basis Set: (CC-PVDZ AUX)
    Blend: CC-PVDZ-JKFIT + DEF2-UNIVERSAL-JKFIT
  Basis Set: CC-PVDZ
    Blend: CC-PVDZ
  Basis Set: (CC-PVDZ AUX)
    Blend: CC-PVDZ-JKFIT + DEF2-UNIVERSAL-JKFIT
  @DF-UKS Final Energy:  -658.47676411370912
    Total Energy =                       -658.4767641137091232
  Basis Set: CC-PVDZ
    Blend: CC-PVDZ
  Basis Set: (CC-PVDZ AUX)
    Blend: CC-PVDZ-JKFIT + DEF2-UNIVERSAL-JKFIT
  Basis Set: CC-PVDZ
    Blend: CC-PVDZ
  @DF-UKS Final Energy:  -658.52281223336240
    Total Energy =                       -658.5228122333624015
  @DF-UKS Final Energy:  -658.68463668538573
    Total Energy =                       -658.6846366853858399
  @DF-UKS Final Energy:  -659.24795579751810
    Total Energy =                       -659.2479557975181024
  @DF-UKS Final Energy:  -659.46789767594100
    Total Energy =                       -659.4678976759410034
  @DF-UKS Final Energy:  -659.59939593277011
    Total Energy =                       -659.5993959327701077
  @DF-UKS Final Energy:  -659.67894321313361
    Total Energy =                       -659.6789432131337207
  @DF-UKS Final Energy:  -659.72968764734321
    Total Energy =                       -659.7296876473432121
  @DF-UKS Final Energy:  -659.76174493057761
    Total Energy =                       -659.7617449305776063
  @DF-UKS Final Energy:  -659.77995471738313
    Total Energy =                       -659.7799547173831343
  @DF-UKS Final Energy:  -659.78829553222852
    Total Energy =                       -659.7882955322284033
  @DF-UKS Final Energy:  -659.79111114525654
    Total Energy =                       -659.7911111452566502
  @DF-UKS Final Energy:  -659.79170032064565
    Total Energy =                       -659.7917003206456457
  Basis Set: (CC-PVDZ AUX)
    Blend: CC-PVDZ-JKFIT + DEF2-UNIVERSAL-JKFIT
  Basis Set: CC-PVDZ
    Blend: CC-PVDZ
  Basis Set: (CC-PVDZ AUX)
    Blend: CC-PVDZ-JKFIT + DEF2-UNIVERSAL-JKFIT
  @DF-UKS Final Energy:  -659.79175114971781
    Total Energy =                       -659.7917511497178111
  Basis Set: CC-PVDZ
    Blend: CC-PVDZ
  Basis Set: (CC-PVDZ AUX)
    Blend: CC-PVDZ-JKFIT + DEF2-UNIVERSAL-JKFIT
  Charge       = 0
  Multiplicity = 6
  Basis Set: CC-PVDZ
    Blend: CC-PVDZ
  Basis Set: (CC-PVDZ AUX)
    Blend: CC-PVDZ-JKFIT + DEF2-UNIVERSAL-JKFIT

    Orbital Energies [Eh]
    ---------------------

    Alpha Occupied:

       1A1  -101.927414     2A1   -46.811633     3A1    -9.833396
       4A1    -7.602738     1B1    -7.602672     1B2    -7.576434
       5A1    -3.094033     6A1    -1.839992     2B1    -1.836426
       2B2    -1.836377     7A1    -1.143018     8A1    -0.667448
       3B1    -0.665745     3B2    -0.606869     9A1    -0.212142
       4B1    -0.073154     4B2    -0.071506

    Alpha Virtual:

      10A1    -0.035106    11A1     0.076223    12A1     0.148023
       5B1     0.163277     5B2     0.164674     6B1     0.273102
      13A1     0.278170     6B2     0.284812    14A1     0.322638
       1A2     0.322670    15A1     0.327346     7B1     0.341172
       7B2     0.371991    16A1     0.390591     8B1     0.392760
       2A2     0.408239     8B2     0.426211    17A1     0.430722
      18A1     0.622199

    Beta Occupied:

       1A1  -101.911914     2A1   -46.807093     3A1    -9.818143
       4A1    -7.573347     1B1    -7.573237     1B2    -7.567057
       5A1    -3.086722     6A1    -1.835582     2B1    -1.828927
       2B2    -1.828841     7A1    -1.029382     3B2    -0.571615

    Beta Virtual:

       8A1    -0.476523     3B1    -0.474101     9A1    -0.090346
      10A1     0.004325     4B1     0.033968     4B2     0.033998
      11A1     0.121515    12A1     0.177080     5B1     0.213392
       5B2     0.213950    13A1     0.327406     6B2     0.327914
       6B1     0.330180    14A1     0.378312    15A1     0.402204
       1A2     0.402216     7B2     0.406899     7B1     0.409273
       2A2     0.477624    16A1     0.483437     8B2     0.491069
      17A1     0.502497     8B1     0.503219    18A1     0.670980

    Final Occupation by Irrep:
             A1    A2    B1    B2
    DOCC [     7,    0,    2,    3 ]
    SOCC [     2,    0,    2,    1 ]
    NA   [     9,    0,    4,    4 ]
    NB   [     7,    0,    2,    3 ]

  @DF-UKS Final Energy:  -659.79175203571890

   => Energetics <=

    Nuclear Repulsion Energy =             32.5374445642572212
    One-Electron Energy =                -974.3211579530877771
    Two-Electron Energy =                 317.8211513499972511
    DFT Exchange-Correlation Energy =     -35.8291899968855816
    Empirical Dispersion Energy =           0.0000000000000000
    VV10 Nonlocal Energy =                  0.0000000000000000
    Total Energy =                       -659.7917520357189005

  UHF NO Occupations:
  HONO-2 :    8 A1 1.0000000
  HONO-1 :    9 A1 1.0000000
  HONO-0 :    4 B1 1.0000000
  LUNO+0 :   10 A1 0.0010059
  LUNO+1 :    5 B2 0.0001372
  LUNO+2 :   11 A1 0.0000008
  LUNO+3 :    5 B1 0.0000003

Computation Completed

Properties will be evaluated at   0.000000,   0.000000,   0.000000 [a0]

Properties computed using the SCF density matrix

 Multipole Moments:

 ------------------------------------------------------------------------------------
     Multipole            Electronic (a.u.)      Nuclear  (a.u.)        Total (a.u.)
 ------------------------------------------------------------------------------------

 L = 1.  Multiply by 2.5417464519 to convert [e a0] to [Debye]
 Dipole X            :          0.0000000            0.0000000            0.0000000
 Dipole Y            :          0.0000000            0.0000000            0.0000000
 Dipole Z            :         -6.3474286            1.2634842           -5.0839444
 Magnitude           :                                                    5.0839444

 ------------------------------------------------------------------------------------

*** tstop() called on Joses-MacBook-Pro-2.local at Wed Jul 16 20:02:17 2025
Module time:
	user time   =       5.90 seconds =       0.10 minutes
	system time =       2.07 seconds =       0.03 minutes
	total time  =          1 seconds =       0.02 minutes
Total time:
	user time   =     193.12 seconds =       3.22 minutes
	system time =      58.73 seconds =       0.98 minutes
	total time  =         24 seconds =       0.40 minutes

*** tstart() called on Joses-MacBook-Pro-2.local
*** at Wed Jul 16 20:02:17 2025

         ------------------------------------------------------------
                                   SCF GRAD
                          Rob Parrish, Justin Turney,
                       Andy Simmonett, and Alex Sokolov
         ------------------------------------------------------------

  ==> Geometry <==

    Molecular point group: c2v
    Full point group: C_inf_v

    Geometry (in Angstrom), charge = 0, multiplicity = 6:

       Center              X                  Y                   Z               Mass
    ------------   -----------------  -----------------  -----------------  -----------------
         MG           0.000000000000     0.000000000000     1.967962159520    23.985041697000
         CL           0.000000000000     0.000000000000    -1.349819934999    34.968852682000

  Nuclear repulsion =   32.537444564257221

  ==> Basis Set <==

  Basis Set: CC-PVDZ
    Blend: CC-PVDZ
    Number of shells: 16
    Number of basis functions: 36
    Number of Cartesian functions: 38
    Spherical Harmonics?: true
    Max angular momentum: 2

  ==> DFJKGrad: Density-Fitted SCF Gradients <==

    Gradient:                    1
    J tasked:                  Yes
    K tasked:                  Yes
    wK tasked:                  No
    OpenMP threads:              1
    Integrals threads:           1
    Memory [MiB]:              375
    Schwarz Cutoff:          1E-12
    Fitting Condition:       1E-10

   => Auxiliary Basis Set <=

  Basis Set: (CC-PVDZ AUX)
    Blend: CC-PVDZ-JKFIT + DEF2-UNIVERSAL-JKFIT
    Number of shells: 70
    Number of basis functions: 224
    Number of Cartesian functions: 267
    Spherical Harmonics?: true
    Max angular momentum: 4

  ==> DFT Potential <==

   => LibXC <=

    Version 6.2.2
    S. Lehtola, C. Steigemann, M. J.T. Oliveira, and M. A.L. Marques.,  SoftwareX 7, 1â€“5 (2018) (10.1016/j.softx.2017.11.002)

   => Composite Functional: B3LYP <=

    B3LYP Hyb-GGA Exchange-Correlation Functional

    P. J. Stephens, F. J. Devlin, C. F. Chabalowski, and M. J. Frisch.,  J. Phys. Chem. 98, 11623 (1994) (10.1021/j100096a001)

    Deriv               =              1
    GGA                 =           TRUE
    Meta                =          FALSE

    Exchange Hybrid     =           TRUE
    MP2 Hybrid          =          FALSE

   => Exchange Functionals <=

    0.0800   Slater exchange
    0.7200         Becke 88

   => Exact (HF) Exchange <=

    0.2000               HF

   => Correlation Functionals <=

    0.1900   Vosko, Wilk & Nusair (VWN5_RPA)
    0.8100   Lee, Yang & Parr

   => LibXC Density Thresholds  <==

    XC_HYB_GGA_XC_B3LYP:  1.00E-15

   => Molecular Quadrature <=

    Radial Scheme          =       TREUTLER
    Pruning Scheme         =           NONE
    Nuclear Scheme         =       TREUTLER

    Blocking Scheme        =         OCTREE
    BS radius alpha        =              1
    Pruning alpha          =              1
    Radial Points          =             75
    Spherical Points       =            302
    Total Points           =          43061
    Total Blocks           =            420
    Max Points             =            254
    Max Functions          =             36
    Weights Tolerance      =       1.00E-15

  -Total Gradient:
     Atom            X                  Y                   Z
    ------   -----------------  -----------------  -----------------
       1       -0.000000000000     0.000000000000    -0.000013247290
       2       -0.000000000000     0.000000000000     0.000041742763

*** tstop() called on Joses-MacBook-Pro-2.local at Wed Jul 16 20:02:17 2025
Module time:
	user time   =       2.72 seconds =       0.05 minutes
	system time =       1.55 seconds =       0.03 minutes
	total time  =          0 seconds =       0.00 minutes
Total time:
	user time   =     195.85 seconds =       3.26 minutes
	system time =      60.28 seconds =       1.00 minutes
	total time  =         24 seconds =       0.40 minutes

    			-----------------------------------------

    			 OPTKING 3.0: for geometry optimizations

    			     By R.A. King, Bethel University

    			        with contributions from

    			    A.V. Copan, J. Cayton, A. Heide

    			-----------------------------------------

	                            ===> Fragment 1 <==

	 Z (Atomic Numbers)          Masses                          Geom
	      12.000000            23.985042          0.00000000  0.00000000  3.71890951
	      17.000000            34.968853          0.00000000  0.00000000 -2.55079000

	 - Coordinate -           - BOHR/RAD -       - ANG/DEG -
	 R(1,2)           =         6.269700           3.317782

	        --- Internal Coordinate Step in ANG or DEG, aJ/ANG or AJ/DEG ---
	-------------------------------------------------------------------------------
	           Coordinate      Previous         Force          Change          New
	           ----------      --------        ------          ------        ------
	               R(1,2)       3.31778        0.00023        0.00085       3.31863
	-------------------------------------------------------------------------------

	                                 ==> Convergence Check <==

	Measures of convergence in internal coordinates in au.

	Criteria marked as inactive (o), active & met (*), and active & unmet ( ).

	----------------------------------------------------------------------------------------------
	   Step    Total Energy     Delta E     Max Force     RMS Force      Max Disp      RMS Disp
	----------------------------------------------------------------------------------------------
	  Convergence Criteria     1.00e-06 *    3.00e-04 *             o    1.20e-03 *             o
	----------------------------------------------------------------------------------------------
	    16    -659.79175204   -8.86e-07 *    2.75e-05 *    2.75e-05 o    1.60e-03      1.60e-03 o  ~
	----------------------------------------------------------------------------------------------

Next Geometry in Ang
	Fragment 1 (Ang)

	   Mg   0.0000000000   0.0000000000   1.9683850074
	   Cl   0.0000000000   0.0000000000  -1.3502427829

    Final optimized geometry and variables:
    Molecular point group: c2v
    Full point group: C_inf_v

    Geometry (in Angstrom), charge = 0, multiplicity = 6:

    MG           0.000000000000     0.000000000000     1.967962159520
    CL           0.000000000000     0.000000000000    -1.349819934999

    Psi4 stopped on: Wednesday, 16 July 2025 08:02PM
    Psi4 wall time for execution: 0:00:25.13

*** Psi4 exiting successfully. Buy a developer a beer!
