                               Psi4 1.9.1 release

  ==> Input File <==

--------------------------------------------------------------------------
molecule {
0 6
B   0.00000        0.60000        0.00000
C   0.00000       -0.60000        0.00000
}

set {
basis              cc-pvdz
reference          uks
maxiter            500
geom_maxiter       500
DAMPING_PERCENTAGE 1
guess              SAP
}

optimize('b3lyp')
--------------------------------------------------------------------------

    Molecular point group: c2v
  Charge       = 0
  Multiplicity = 6
  Basis Set: CC-PVDZ
    Blend: CC-PVDZ
  Basis Set: (CC-PVDZ AUX)
    Blend: CC-PVDZ-JKFIT
  @DF-UKS Final Energy:   -62.38884574703228
    Total Energy =                        -62.3888457470322848
 Dipole X            :          0.0000000            0.0000000            0.0000000
 Dipole Y            :          0.0000000            0.0000000            0.0000000
 Dipole Z            :         -0.0830413           -0.5968297           -0.6798710
 Magnitude           :                                                    0.6798710
    Molecular point group: c2v
  Basis Set: CC-PVDZ
    Blend: CC-PVDZ
  Basis Set: (CC-PVDZ AUX)
    Blend: CC-PVDZ-JKFIT
  Basis Set: CC-PVDZ
    Blend: CC-PVDZ
  Basis Set: (CC-PVDZ AUX)
    Blend: CC-PVDZ-JKFIT
  @DF-UKS Final Energy:   -62.50400393469027
    Total Energy =                        -62.5040039346902745
  Basis Set: CC-PVDZ
    Blend: CC-PVDZ
  Basis Set: (CC-PVDZ AUX)
    Blend: CC-PVDZ-JKFIT
  Basis Set: CC-PVDZ
    Blend: CC-PVDZ
  @DF-UKS Final Energy:   -62.51584251844096
    Total Energy =                        -62.5158425184409552
  @DF-UKS Final Energy:   -62.52082616648962
    Total Energy =                        -62.5208261664896199
  @DF-UKS Final Energy:   -62.52133652143070
    Total Energy =                        -62.5213365214307046
  @DF-UKS Final Energy:   -62.52139630432031
    Total Energy =                        -62.5213963043203123
  Basis Set: (CC-PVDZ AUX)
    Blend: CC-PVDZ-JKFIT
  Basis Set: CC-PVDZ
    Blend: CC-PVDZ
  Basis Set: (CC-PVDZ AUX)
    Blend: CC-PVDZ-JKFIT
  @DF-UKS Final Energy:   -62.52140372945644
    Total Energy =                        -62.5214037294564378
  Basis Set: CC-PVDZ
    Blend: CC-PVDZ
  Basis Set: (CC-PVDZ AUX)
    Blend: CC-PVDZ-JKFIT
  Charge       = 0
  Multiplicity = 6
  Basis Set: CC-PVDZ
    Blend: CC-PVDZ
  Basis Set: (CC-PVDZ AUX)
    Blend: CC-PVDZ-JKFIT

    Orbital Energies [Eh]
    ---------------------

    Alpha Occupied:

       1A1   -10.289484     2A1    -6.848923     3A1    -0.690699
       4A1    -0.428715     1B2    -0.320465     1B1    -0.306996
       5A1    -0.299429     2B2    -0.139355

    Alpha Virtual:

       2B1    -0.062026     6A1     0.132830     3B2     0.267583
       3B1     0.281915     7A1     0.313829     8A1     0.353386
       9A1     0.423515     4B2     0.484719     4B1     0.488400
       1A2     0.646135    10A1     0.650167     5B2     0.705161
       5B1     0.706395    11A1     0.864315    12A1     1.103824
       2A2     1.133864    13A1     1.134723     6B2     1.423444
       6B1     1.423949    14A1     1.669359

    Beta Occupied:

       1A1   -10.247547     2A1    -6.818972     3A1    -0.558164

    Beta Virtual:

       4A1    -0.193458     1B1    -0.136677     1B2    -0.114793
       5A1    -0.083935     2B1     0.043196     2B2     0.068752
       6A1     0.174810     3B1     0.322049     3B2     0.346107
       7A1     0.406572     8A1     0.435378     9A1     0.517284
       4B1     0.560108     4B2     0.573451    10A1     0.744724
       1A2     0.744785     5B1     0.805144     5B2     0.830976
      11A1     0.939930    12A1     1.202827     2A2     1.258152
      13A1     1.258311     6B1     1.533093     6B2     1.552135
      14A1     1.773653

    Final Occupation by Irrep:
             A1    A2    B1    B2
    DOCC [     3,    0,    0,    0 ]
    SOCC [     2,    0,    1,    2 ]
    NA   [     5,    0,    1,    2 ]
    NB   [     3,    0,    0,    0 ]

  @DF-UKS Final Energy:   -62.52140474833554

   => Energetics <=

    Nuclear Repulsion Energy =             10.0168037568796002
    One-Electron Energy =                -102.7146576974708267
    Two-Electron Energy =                  37.6908120038666539
    DFT Exchange-Correlation Energy =      -7.5143628116109635
    Empirical Dispersion Energy =           0.0000000000000000
    VV10 Nonlocal Energy =                  0.0000000000000000
    Total Energy =                        -62.5214047483355415

  UHF NO Occupations:
  HONO-2 :    4 A1 1.0000000
  HONO-1 :    2 B2 1.0000000
  HONO-0 :    5 A1 1.0000000
  LUNO+0 :    6 A1 0.0008078
  LUNO+1 :    7 A1 0.0000007
  LUNO+2 :    8 A1 0.0000001
  LUNO+3 :    9 A1 0.0000000

Computation Completed

Properties will be evaluated at   0.000000,   0.000000,   0.000000 [a0]

Properties computed using the SCF density matrix

 Multipole Moments:

 ------------------------------------------------------------------------------------
     Multipole            Electronic (a.u.)      Nuclear  (a.u.)        Total (a.u.)
 ------------------------------------------------------------------------------------

 L = 1.  Multiply by 2.5417464519 to convert [e a0] to [Debye]
 Dipole X            :          0.0000000            0.0000000            0.0000000
 Dipole Y            :          0.0000000            0.0000000            0.0000000
 Dipole Z            :          0.5867291           -0.7882472           -0.2015180
 Magnitude           :                                                    0.2015180

 ------------------------------------------------------------------------------------

*** tstop() called on Joses-MacBook-Pro-2.local at Wed Jul 16 18:49:33 2025
Module time:
	user time   =       2.42 seconds =       0.04 minutes
	system time =       4.40 seconds =       0.07 minutes
	total time  =          1 seconds =       0.02 minutes
Total time:
	user time   =      21.65 seconds =       0.36 minutes
	system time =      51.54 seconds =       0.86 minutes
	total time  =          8 seconds =       0.13 minutes

*** tstart() called on Joses-MacBook-Pro-2.local
*** at Wed Jul 16 18:49:33 2025

         ------------------------------------------------------------
                                   SCF GRAD
                          Rob Parrish, Justin Turney,
                       Andy Simmonett, and Alex Sokolov
         ------------------------------------------------------------

  ==> Geometry <==

    Molecular point group: c2v
    Full point group: C_inf_v

    Geometry (in Angstrom), charge = 0, multiplicity = 6:

       Center              X                  Y                   Z               Mass
    ------------   -----------------  -----------------  -----------------  -----------------
         B            0.000000000000     0.000000000000     0.826553483187    11.009305360000
         C            0.000000000000     0.000000000000    -0.758314974398    12.000000000000

  Nuclear repulsion =   10.016803756879600

  ==> Basis Set <==

  Basis Set: CC-PVDZ
    Blend: CC-PVDZ
    Number of shells: 12
    Number of basis functions: 28
    Number of Cartesian functions: 30
    Spherical Harmonics?: true
    Max angular momentum: 2

  ==> DFJKGrad: Density-Fitted SCF Gradients <==

    Gradient:                    1
    J tasked:                  Yes
    K tasked:                  Yes
    wK tasked:                  No
    OpenMP threads:              1
    Integrals threads:           1
    Memory [MiB]:              375
    Schwarz Cutoff:          1E-12
    Fitting Condition:       1E-10

   => Auxiliary Basis Set <=

  Basis Set: (CC-PVDZ AUX)
    Blend: CC-PVDZ-JKFIT
    Number of shells: 48
    Number of basis functions: 140
    Number of Cartesian functions: 162
    Spherical Harmonics?: true
    Max angular momentum: 3

  ==> DFT Potential <==

   => LibXC <=

    Version 6.2.2
    S. Lehtola, C. Steigemann, M. J.T. Oliveira, and M. A.L. Marques.,  SoftwareX 7, 1â€“5 (2018) (10.1016/j.softx.2017.11.002)

   => Composite Functional: B3LYP <=

    B3LYP Hyb-GGA Exchange-Correlation Functional

    P. J. Stephens, F. J. Devlin, C. F. Chabalowski, and M. J. Frisch.,  J. Phys. Chem. 98, 11623 (1994) (10.1021/j100096a001)

    Deriv               =              1
    GGA                 =           TRUE
    Meta                =          FALSE

    Exchange Hybrid     =           TRUE
    MP2 Hybrid          =          FALSE

   => Exchange Functionals <=

    0.0800   Slater exchange
    0.7200         Becke 88

   => Exact (HF) Exchange <=

    0.2000               HF

   => Correlation Functionals <=

    0.1900   Vosko, Wilk & Nusair (VWN5_RPA)
    0.8100   Lee, Yang & Parr

   => LibXC Density Thresholds  <==

    XC_HYB_GGA_XC_B3LYP:  1.00E-15

   => Molecular Quadrature <=

    Radial Scheme          =       TREUTLER
    Pruning Scheme         =           NONE
    Nuclear Scheme         =       TREUTLER

    Blocking Scheme        =         OCTREE
    BS radius alpha        =              1
    Pruning alpha          =              1
    Radial Points          =             75
    Spherical Points       =            302
    Total Points           =          43049
    Total Blocks           =            396
    Max Points             =            255
    Max Functions          =             28
    Weights Tolerance      =       1.00E-15

  -Total Gradient:
     Atom            X                  Y                   Z
    ------   -----------------  -----------------  -----------------
       1        0.000000000000    -0.000000000000    -0.000166880795
       2        0.000000000000    -0.000000000000     0.000171997081

*** tstop() called on Joses-MacBook-Pro-2.local at Wed Jul 16 18:49:33 2025
Module time:
	user time   =       0.81 seconds =       0.01 minutes
	system time =       1.08 seconds =       0.02 minutes
	total time  =          0 seconds =       0.00 minutes
Total time:
	user time   =      22.46 seconds =       0.37 minutes
	system time =      52.63 seconds =       0.88 minutes
	total time  =          8 seconds =       0.13 minutes

    			-----------------------------------------

    			 OPTKING 3.0: for geometry optimizations

    			     By R.A. King, Bethel University

    			        with contributions from

    			    A.V. Copan, J. Cayton, A. Heide

    			-----------------------------------------

	                            ===> Fragment 1 <==

	 Z (Atomic Numbers)          Masses                          Geom
	       5.000000            11.009305          0.00000000  0.00000000  1.56195971
	       6.000000            12.000000          0.00000000  0.00000000 -1.43300762

	 - Coordinate -           - BOHR/RAD -       - ANG/DEG -
	 R(1,2)           =         2.994967           1.584868

	        --- Internal Coordinate Step in ANG or DEG, aJ/ANG or AJ/DEG ---
	-------------------------------------------------------------------------------
	           Coordinate      Previous         Force          Change          New
	           ----------      --------        ------          ------        ------
	               R(1,2)       1.58487        0.00140        0.00033       1.58520
	-------------------------------------------------------------------------------

	                                 ==> Convergence Check <==

	Measures of convergence in internal coordinates in au.

	Criteria marked as inactive (o), active & met (*), and active & unmet ( ).

	----------------------------------------------------------------------------------------------
	   Step    Total Energy     Delta E     Max Force     RMS Force      Max Disp      RMS Disp
	----------------------------------------------------------------------------------------------
	  Convergence Criteria     1.00e-06 *    3.00e-04 *             o    1.20e-03 *             o
	----------------------------------------------------------------------------------------------
	     8     -62.52140475   -1.02e-06      1.69e-04 *    1.69e-04 o    6.29e-04 *    6.29e-04 o  ~
	----------------------------------------------------------------------------------------------

Next Geometry in Ang
	Fragment 1 (Ang)

	    B   0.0000000000   0.0000000000   0.8267200166
	    C   0.0000000000   0.0000000000  -0.7584815078

    Final optimized geometry and variables:
    Molecular point group: c2v
    Full point group: C_inf_v

    Geometry (in Angstrom), charge = 0, multiplicity = 6:

    B            0.000000000000     0.000000000000     0.826553483187
    C            0.000000000000     0.000000000000    -0.758314974398

    Psi4 stopped on: Wednesday, 16 July 2025 06:49PM
    Psi4 wall time for execution: 0:00:08.20

*** Psi4 exiting successfully. Buy a developer a beer!
