                               Psi4 1.9.1 release

  ==> Input File <==

--------------------------------------------------------------------------
molecule {
0 6
Ne   0.00000        0.60000        0.00000
Na   0.00000       -0.60000        0.00000
}

set {
basis              cc-pvdz
reference          uks
maxiter            500
geom_maxiter       500
DAMPING_PERCENTAGE 1
guess              SAP
}

optimize('b3lyp')
--------------------------------------------------------------------------

    Molecular point group: c2v
  Charge       = 0
  Multiplicity = 6
  Basis Set: CC-PVDZ
    Blend: CC-PVDZ
  Basis Set: (CC-PVDZ AUX)
    Blend: CC-PVDZ-JKFIT + DEF2-UNIVERSAL-JKFIT
  @DF-UKS Final Energy:  -289.07462753215572
    Total Energy =                       -289.0746275321557164
 Dipole X            :          0.0000000            0.0000000            0.0000000
 Dipole Y            :          0.0000000            0.0000000            0.0000000
 Dipole Z            :         -0.2444311            0.5265734            0.2821424
 Magnitude           :                                                    0.2821424
    Molecular point group: c2v
  Basis Set: CC-PVDZ
    Blend: CC-PVDZ
  Basis Set: (CC-PVDZ AUX)
    Blend: CC-PVDZ-JKFIT + DEF2-UNIVERSAL-JKFIT
  Basis Set: CC-PVDZ
    Blend: CC-PVDZ
  Basis Set: (CC-PVDZ AUX)
    Blend: CC-PVDZ-JKFIT + DEF2-UNIVERSAL-JKFIT
  @DF-UKS Final Energy:  -289.22762429960198
    Total Energy =                       -289.2276242996019846
  Basis Set: CC-PVDZ
    Blend: CC-PVDZ
  Basis Set: (CC-PVDZ AUX)
    Blend: CC-PVDZ-JKFIT + DEF2-UNIVERSAL-JKFIT
  Basis Set: CC-PVDZ
    Blend: CC-PVDZ
  @DF-UKS Final Energy:  -289.33180347603536
    Total Energy =                       -289.3318034760353612
  @DF-UKS Final Energy:  -289.38613644534286
    Total Energy =                       -289.3861364453427996
  @DF-UKS Final Energy:  -289.42197071717993
    Total Energy =                       -289.4219707171799882
  @DF-UKS Final Energy:  -289.44645820546418
    Total Energy =                       -289.4464582054641824
  @DF-UKS Final Energy:  -289.46113374506973
    Total Energy =                       -289.4611337450697306
  @DF-UKS Final Energy:  -289.46930640189356
    Total Energy =                       -289.4693064018935615
  @DF-UKS Final Energy:  -289.47091986961578
    Total Energy =                       -289.4709198696158410
  @DF-UKS Final Energy:  -289.47103872129964
    Total Energy =                       -289.4710387212996920
  Basis Set: (CC-PVDZ AUX)
    Blend: CC-PVDZ-JKFIT + DEF2-UNIVERSAL-JKFIT
  Basis Set: CC-PVDZ
    Blend: CC-PVDZ
  Basis Set: (CC-PVDZ AUX)
    Blend: CC-PVDZ-JKFIT + DEF2-UNIVERSAL-JKFIT
  @DF-UKS Final Energy:  -289.47104625644596
    Total Energy =                       -289.4710462564459590
  Basis Set: CC-PVDZ
    Blend: CC-PVDZ
  Basis Set: (CC-PVDZ AUX)
    Blend: CC-PVDZ-JKFIT + DEF2-UNIVERSAL-JKFIT
  Charge       = 0
  Multiplicity = 6
  Basis Set: CC-PVDZ
    Blend: CC-PVDZ
  Basis Set: (CC-PVDZ AUX)
    Blend: CC-PVDZ-JKFIT + DEF2-UNIVERSAL-JKFIT

    Orbital Energies [Eh]
    ---------------------

    Alpha Occupied:

       1A1   -38.738946     2A1   -32.202772     3A1    -2.448954
       4A1    -2.402111     1B2    -1.596797     5A1    -1.580159
       1B1    -1.480024     6A1    -1.357636     2B2    -1.321841
       2B1    -1.321712     7A1    -0.239436     3B2    -0.097302
       3B1    -0.093147

    Alpha Virtual:

       8A1    -0.053961     9A1    -0.004912     4B2     0.039582
       4B1     0.041010    10A1     0.059234     5B2     0.125172
       5B1     0.126472    11A1     0.133927     1A2     0.137875
      12A1     0.137893    13A1     0.713544     6B2     0.755167
       6B1     0.806117    14A1     1.527342    15A1     3.661792
       7B2     3.665647     2A2     3.734946     7B1     3.749918
      16A1     3.768372

    Beta Occupied:

       1A1   -38.728217     2A1   -32.122079     3A1    -2.375606
       4A1    -2.242136     1B1    -1.400103     1B2    -1.308997
       2B1    -1.308959     5A1    -1.292751

    Beta Virtual:

       6A1    -1.213476     2B2    -1.171096     7A1    -0.122078
       8A1    -0.039731     3B1    -0.002178     3B2    -0.001808
       9A1     0.030444    10A1     0.068543     4B1     0.081198
       4B2     0.081512     5B1     0.143357     5B2     0.145027
      11A1     0.165454     1A2     0.195165    12A1     0.195210
      13A1     0.809746     6B1     0.844299     6B2     0.871516
      14A1     1.623384     7B1     3.862767    15A1     3.868031
       2A2     3.868697     7B2     3.891931    16A1     3.894198

    Final Occupation by Irrep:
             A1    A2    B1    B2
    DOCC [     5,    0,    2,    1 ]
    SOCC [     2,    0,    1,    2 ]
    NA   [     7,    0,    3,    3 ]
    NB   [     5,    0,    2,    1 ]

  @DF-UKS Final Energy:  -289.47104636866266

   => Energetics <=

    Nuclear Repulsion Energy =             25.7580652617163430
    One-Electron Energy =                -449.7402086631901739
    Two-Electron Energy =                 155.5483106589906015
    DFT Exchange-Correlation Energy =     -21.0372136261794331
    Empirical Dispersion Energy =           0.0000000000000000
    VV10 Nonlocal Energy =                  0.0000000000000000
    Total Energy =                       -289.4710463686626554

  UHF NO Occupations:
  HONO-2 :    7 A1 1.0000000
  HONO-1 :    3 B2 1.0000000
  HONO-0 :    3 B1 1.0000000
  LUNO+0 :    8 A1 0.0003981
  LUNO+1 :    9 A1 0.0003657
  LUNO+2 :    4 B1 0.0001223
  LUNO+3 :    4 B2 0.0000014

Computation Completed

Properties will be evaluated at   0.000000,   0.000000,   0.000000 [a0]

Properties computed using the SCF density matrix

 Multipole Moments:

 ------------------------------------------------------------------------------------
     Multipole            Electronic (a.u.)      Nuclear  (a.u.)        Total (a.u.)
 ------------------------------------------------------------------------------------

 L = 1.  Multiply by 2.5417464519 to convert [e a0] to [Debye]
 Dipole X            :          0.0000000            0.0000000            0.0000000
 Dipole Y            :          0.0000000            0.0000000            0.0000000
 Dipole Z            :          1.6323952            0.9916497            2.6240449
 Magnitude           :                                                    2.6240449

 ------------------------------------------------------------------------------------

*** tstop() called on Joses-MacBook-Pro-2.local at Wed Jul 16 19:33:18 2025
Module time:
	user time   =       3.04 seconds =       0.05 minutes
	system time =       3.66 seconds =       0.06 minutes
	total time  =          1 seconds =       0.02 minutes
Total time:
	user time   =      61.67 seconds =       1.03 minutes
	system time =      59.42 seconds =       0.99 minutes
	total time  =         12 seconds =       0.20 minutes

*** tstart() called on Joses-MacBook-Pro-2.local
*** at Wed Jul 16 19:33:18 2025

         ------------------------------------------------------------
                                   SCF GRAD
                          Rob Parrish, Justin Turney,
                       Andy Simmonett, and Alex Sokolov
         ------------------------------------------------------------

  ==> Geometry <==

    Molecular point group: c2v
    Full point group: C_inf_v

    Geometry (in Angstrom), charge = 0, multiplicity = 6:

       Center              X                  Y                   Z               Mass
    ------------   -----------------  -----------------  -----------------  -----------------
         NE           0.000000000000     0.000000000000     1.208722079499    19.992440176200
         NA           0.000000000000     0.000000000000    -1.051132943860    22.989769282000

  Nuclear repulsion =   25.758065261716343

  ==> Basis Set <==

  Basis Set: CC-PVDZ
    Blend: CC-PVDZ
    Number of shells: 14
    Number of basis functions: 32
    Number of Cartesian functions: 34
    Spherical Harmonics?: true
    Max angular momentum: 2

  ==> DFJKGrad: Density-Fitted SCF Gradients <==

    Gradient:                    1
    J tasked:                  Yes
    K tasked:                  Yes
    wK tasked:                  No
    OpenMP threads:              1
    Integrals threads:           1
    Memory [MiB]:              375
    Schwarz Cutoff:          1E-12
    Fitting Condition:       1E-10

   => Auxiliary Basis Set <=

  Basis Set: (CC-PVDZ AUX)
    Blend: CC-PVDZ-JKFIT + DEF2-UNIVERSAL-JKFIT
    Number of shells: 58
    Number of basis functions: 182
    Number of Cartesian functions: 218
    Spherical Harmonics?: true
    Max angular momentum: 4

  ==> DFT Potential <==

   => LibXC <=

    Version 6.2.2
    S. Lehtola, C. Steigemann, M. J.T. Oliveira, and M. A.L. Marques.,  SoftwareX 7, 1â€“5 (2018) (10.1016/j.softx.2017.11.002)

   => Composite Functional: B3LYP <=

    B3LYP Hyb-GGA Exchange-Correlation Functional

    P. J. Stephens, F. J. Devlin, C. F. Chabalowski, and M. J. Frisch.,  J. Phys. Chem. 98, 11623 (1994) (10.1021/j100096a001)

    Deriv               =              1
    GGA                 =           TRUE
    Meta                =          FALSE

    Exchange Hybrid     =           TRUE
    MP2 Hybrid          =          FALSE

   => Exchange Functionals <=

    0.0800   Slater exchange
    0.7200         Becke 88

   => Exact (HF) Exchange <=

    0.2000               HF

   => Correlation Functionals <=

    0.1900   Vosko, Wilk & Nusair (VWN5_RPA)
    0.8100   Lee, Yang & Parr

   => LibXC Density Thresholds  <==

    XC_HYB_GGA_XC_B3LYP:  1.00E-15

   => Molecular Quadrature <=

    Radial Scheme          =       TREUTLER
    Pruning Scheme         =           NONE
    Nuclear Scheme         =       TREUTLER

    Blocking Scheme        =         OCTREE
    BS radius alpha        =              1
    Pruning alpha          =              1
    Radial Points          =             75
    Spherical Points       =            302
    Total Points           =          43798
    Total Blocks           =            419
    Max Points             =            256
    Max Functions          =             32
    Weights Tolerance      =       1.00E-15

  -Total Gradient:
     Atom            X                  Y                   Z
    ------   -----------------  -----------------  -----------------
       1       -0.000000000000    -0.000000000000     0.000081547659
       2        0.000000000000    -0.000000000000     0.000100885781

*** tstop() called on Joses-MacBook-Pro-2.local at Wed Jul 16 19:33:18 2025
Module time:
	user time   =       0.65 seconds =       0.01 minutes
	system time =       1.87 seconds =       0.03 minutes
	total time  =          0 seconds =       0.00 minutes
Total time:
	user time   =      62.32 seconds =       1.04 minutes
	system time =      61.29 seconds =       1.02 minutes
	total time  =         12 seconds =       0.20 minutes

    			-----------------------------------------

    			 OPTKING 3.0: for geometry optimizations

    			     By R.A. King, Bethel University

    			        with contributions from

    			    A.V. Copan, J. Cayton, A. Heide

    			-----------------------------------------

	                            ===> Fragment 1 <==

	 Z (Atomic Numbers)          Masses                          Geom
	      10.000000            19.992440          0.00000000  0.00000000  2.28415369
	      11.000000            22.989769          0.00000000  0.00000000 -1.98635339

	 - Coordinate -           - BOHR/RAD -       - ANG/DEG -
	 R(1,2)           =         4.270507           2.259855

	        --- Internal Coordinate Step in ANG or DEG, aJ/ANG or AJ/DEG ---
	-------------------------------------------------------------------------------
	           Coordinate      Previous         Force          Change          New
	           ----------      --------        ------          ------        ------
	               R(1,2)       2.25986        0.00008        0.00008       2.25994
	-------------------------------------------------------------------------------

	                                 ==> Convergence Check <==

	Measures of convergence in internal coordinates in au.

	Criteria marked as inactive (o), active & met (*), and active & unmet ( ).

	----------------------------------------------------------------------------------------------
	   Step    Total Energy     Delta E     Max Force     RMS Force      Max Disp      RMS Disp
	----------------------------------------------------------------------------------------------
	  Convergence Criteria     1.00e-06 *    3.00e-04 *             o    1.20e-03 *             o
	----------------------------------------------------------------------------------------------
	    12    -289.47104637   -1.12e-07 *    9.67e-06 *    9.67e-06 o    1.61e-04 *    1.61e-04 o  ~
	----------------------------------------------------------------------------------------------

Next Geometry in Ang
	Fragment 1 (Ang)

	   Ne   0.0000000000   0.0000000000   1.2087645678
	   Na   0.0000000000   0.0000000000  -1.0511754321

    Final optimized geometry and variables:
    Molecular point group: c2v
    Full point group: C_inf_v

    Geometry (in Angstrom), charge = 0, multiplicity = 6:

    NE           0.000000000000     0.000000000000     1.208722079499
    NA           0.000000000000     0.000000000000    -1.051132943860

    Psi4 stopped on: Wednesday, 16 July 2025 07:33PM
    Psi4 wall time for execution: 0:00:12.64

*** Psi4 exiting successfully. Buy a developer a beer!
