                               Psi4 1.9.1 release

  ==> Input File <==

--------------------------------------------------------------------------
molecule {
0 6
Li   0.00000        0.60000        0.00000
Ar   0.00000       -0.60000        0.00000
}

set {
basis              cc-pvdz
reference          uks
maxiter            500
geom_maxiter       500
DAMPING_PERCENTAGE 1
guess              SAP
}

optimize('b3lyp')
--------------------------------------------------------------------------

    Molecular point group: c2v
  Charge       = 0
  Multiplicity = 6
  Basis Set: CC-PVDZ
    Blend: CC-PVDZ
  Basis Set: (CC-PVDZ AUX)
    Blend: CC-PVDZ-JKFIT + DEF2-UNIVERSAL-JKFIT
  @DF-UKS Final Energy:  -533.42164323343104
    Total Energy =                       -533.4216432334310412
 Dipole X            :          0.0000000            0.0000000            0.0000000
 Dipole Y            :          0.0000000            0.0000000            0.0000000
 Dipole Z            :         -2.4722401           -0.3089754           -2.7812155
 Magnitude           :                                                    2.7812155
    Molecular point group: c2v
  Basis Set: CC-PVDZ
    Blend: CC-PVDZ
  Basis Set: (CC-PVDZ AUX)
    Blend: CC-PVDZ-JKFIT + DEF2-UNIVERSAL-JKFIT
  Basis Set: CC-PVDZ
    Blend: CC-PVDZ
  Basis Set: (CC-PVDZ AUX)
    Blend: CC-PVDZ-JKFIT + DEF2-UNIVERSAL-JKFIT
  @DF-UKS Final Energy:  -533.58615251971423
    Total Energy =                       -533.5861525197142328
  Basis Set: CC-PVDZ
    Blend: CC-PVDZ
  Basis Set: (CC-PVDZ AUX)
    Blend: CC-PVDZ-JKFIT + DEF2-UNIVERSAL-JKFIT
  Basis Set: CC-PVDZ
    Blend: CC-PVDZ
  @DF-UKS Final Energy:  -533.71828230464257
    Total Energy =                       -533.7182823046425710
  @DF-UKS Final Energy:  -533.80131978142720
    Total Energy =                       -533.8013197814271962
  @DF-UKS Final Energy:  -533.86092607866749
    Total Energy =                       -533.8609260786674895
  @DF-UKS Final Energy:  -533.89288050255789
    Total Energy =                       -533.8928805025578868
  @DF-UKS Final Energy:  -533.90912258215008
    Total Energy =                       -533.9091225821500757
  @DF-UKS Final Energy:  -533.91469487169320
    Total Energy =                       -533.9146948716933139
  @DF-UKS Final Energy:  -533.91559486595963
    Total Energy =                       -533.9155948659596334
  @DF-UKS Final Energy:  -533.91563188231146
    Total Energy =                       -533.9156318823114589
  Basis Set: (CC-PVDZ AUX)
    Blend: CC-PVDZ-JKFIT + DEF2-UNIVERSAL-JKFIT
  Basis Set: CC-PVDZ
    Blend: CC-PVDZ
  Basis Set: (CC-PVDZ AUX)
    Blend: CC-PVDZ-JKFIT + DEF2-UNIVERSAL-JKFIT
  @DF-UKS Final Energy:  -533.91563304223018
    Total Energy =                       -533.9156330422301835
  Basis Set: CC-PVDZ
    Blend: CC-PVDZ
  Basis Set: (CC-PVDZ AUX)
    Blend: CC-PVDZ-JKFIT + DEF2-UNIVERSAL-JKFIT
  Charge       = 0
  Multiplicity = 6
  Basis Set: CC-PVDZ
    Blend: CC-PVDZ
  Basis Set: (CC-PVDZ AUX)
    Blend: CC-PVDZ-JKFIT + DEF2-UNIVERSAL-JKFIT

    Orbital Energies [Eh]
    ---------------------

    Alpha Occupied:

       1A1  -115.781002     2A1   -11.783163     3A1    -9.351105
       1B1    -9.350542     1B2    -9.318538     4A1    -1.984933
       5A1    -1.530686     6A1    -0.973049     2B1    -0.968493
       2B2    -0.899818     7A1    -0.176568     3B1    -0.089621
       3B2    -0.082546

    Alpha Virtual:

       8A1    -0.034687     9A1     0.019022     4B1     0.044101
       4B2     0.049055    10A1     0.116406     5B1     0.171880
      11A1     0.179646     5B2     0.183499     1A2     0.210550
      12A1     0.211496     6B1     0.249909     6B2     0.287576
      13A1     0.310268     2A2     0.331357    14A1     0.343551
      15A1     0.373697     7B1     0.435542     7B2     0.464709
      16A1     0.882390

    Beta Occupied:

       1A1  -115.760193     2A1   -11.762976     3A1    -9.314356
       1B1    -9.312703     1B2    -9.305454     4A1    -1.977021
       5A1    -1.393258     2B2    -0.851726

    Beta Virtual:

       6A1    -0.745375     2B1    -0.739192     7A1    -0.079911
       8A1    -0.003289     3B2     0.009488     3B1     0.010455
       9A1     0.068554     4B2     0.096895     4B1     0.097166
      10A1     0.126051     5B2     0.215096     5B1     0.217750
      11A1     0.233331     1A2     0.285643    12A1     0.286596
       6B2     0.327015     6B1     0.331581    13A1     0.395142
       2A2     0.414098    14A1     0.420291    15A1     0.448221
       7B2     0.526552     7B1     0.534883    16A1     0.935615

    Final Occupation by Irrep:
             A1    A2    B1    B2
    DOCC [     5,    0,    1,    2 ]
    SOCC [     2,    0,    2,    1 ]
    NA   [     7,    0,    3,    3 ]
    NB   [     5,    0,    1,    2 ]

  @DF-UKS Final Energy:  -533.91563303127123

   => Energetics <=

    Nuclear Repulsion Energy =             11.6821506518245215
    One-Electron Energy =                -750.7309428985174691
    Two-Electron Energy =                 231.1557608973763820
    DFT Exchange-Correlation Energy =     -26.0226016819546402
    Empirical Dispersion Energy =           0.0000000000000000
    VV10 Nonlocal Energy =                  0.0000000000000000
    Total Energy =                       -533.9156330312712271

  UHF NO Occupations:
  HONO-2 :    2 B1 1.0000000
  HONO-1 :    7 A1 1.0000000
  HONO-0 :    3 B1 1.0000000
  LUNO+0 :    8 A1 0.0009010
  LUNO+1 :    4 B2 0.0001064
  LUNO+2 :    9 A1 0.0000009
  LUNO+3 :   10 A1 0.0000000

Computation Completed

Properties will be evaluated at   0.000000,   0.000000,   0.000000 [a0]

Properties computed using the SCF density matrix

 Multipole Moments:

 ------------------------------------------------------------------------------------
     Multipole            Electronic (a.u.)      Nuclear  (a.u.)        Total (a.u.)
 ------------------------------------------------------------------------------------

 L = 1.  Multiply by 2.5417464519 to convert [e a0] to [Debye]
 Dipole X            :          0.0000000            0.0000000            0.0000000
 Dipole Y            :          0.0000000            0.0000000            0.0000000
 Dipole Z            :         -3.8685505           -0.6298175           -4.4983681
 Magnitude           :                                                    4.4983681

 ------------------------------------------------------------------------------------

*** tstop() called on Joses-MacBook-Pro-2.local at Wed Jul 16 18:38:52 2025
Module time:
	user time   =       3.24 seconds =       0.05 minutes
	system time =       3.13 seconds =       0.05 minutes
	total time  =          1 seconds =       0.02 minutes
Total time:
	user time   =      59.51 seconds =       0.99 minutes
	system time =      64.75 seconds =       1.08 minutes
	total time  =         12 seconds =       0.20 minutes

*** tstart() called on Joses-MacBook-Pro-2.local
*** at Wed Jul 16 18:38:52 2025

         ------------------------------------------------------------
                                   SCF GRAD
                          Rob Parrish, Justin Turney,
                       Andy Simmonett, and Alex Sokolov
         ------------------------------------------------------------

  ==> Geometry <==

    Molecular point group: c2v
    Full point group: C_inf_v

    Geometry (in Angstrom), charge = 0, multiplicity = 6:

       Center              X                  Y                   Z               Mass
    ------------   -----------------  -----------------  -----------------  -----------------
         LI           0.000000000000     0.000000000000     2.080776201227     7.016003436600
         AR           0.000000000000     0.000000000000    -0.365311871752    39.962383123700

  Nuclear repulsion =   11.682150651824522

  ==> Basis Set <==

  Basis Set: CC-PVDZ
    Blend: CC-PVDZ
    Number of shells: 14
    Number of basis functions: 32
    Number of Cartesian functions: 34
    Spherical Harmonics?: true
    Max angular momentum: 2

  ==> DFJKGrad: Density-Fitted SCF Gradients <==

    Gradient:                    1
    J tasked:                  Yes
    K tasked:                  Yes
    wK tasked:                  No
    OpenMP threads:              1
    Integrals threads:           1
    Memory [MiB]:              375
    Schwarz Cutoff:          1E-12
    Fitting Condition:       1E-10

   => Auxiliary Basis Set <=

  Basis Set: (CC-PVDZ AUX)
    Blend: CC-PVDZ-JKFIT + DEF2-UNIVERSAL-JKFIT
    Number of shells: 53
    Number of basis functions: 163
    Number of Cartesian functions: 190
    Spherical Harmonics?: true
    Max angular momentum: 3

  ==> DFT Potential <==

   => LibXC <=

    Version 6.2.2
    S. Lehtola, C. Steigemann, M. J.T. Oliveira, and M. A.L. Marques.,  SoftwareX 7, 1â€“5 (2018) (10.1016/j.softx.2017.11.002)

   => Composite Functional: B3LYP <=

    B3LYP Hyb-GGA Exchange-Correlation Functional

    P. J. Stephens, F. J. Devlin, C. F. Chabalowski, and M. J. Frisch.,  J. Phys. Chem. 98, 11623 (1994) (10.1021/j100096a001)

    Deriv               =              1
    GGA                 =           TRUE
    Meta                =          FALSE

    Exchange Hybrid     =           TRUE
    MP2 Hybrid          =          FALSE

   => Exchange Functionals <=

    0.0800   Slater exchange
    0.7200         Becke 88

   => Exact (HF) Exchange <=

    0.2000               HF

   => Correlation Functionals <=

    0.1900   Vosko, Wilk & Nusair (VWN5_RPA)
    0.8100   Lee, Yang & Parr

   => LibXC Density Thresholds  <==

    XC_HYB_GGA_XC_B3LYP:  1.00E-15

   => Molecular Quadrature <=

    Radial Scheme          =       TREUTLER
    Pruning Scheme         =           NONE
    Nuclear Scheme         =       TREUTLER

    Blocking Scheme        =         OCTREE
    BS radius alpha        =              1
    Pruning alpha          =              1
    Radial Points          =             75
    Spherical Points       =            302
    Total Points           =          44333
    Total Blocks           =            437
    Max Points             =            255
    Max Functions          =             32
    Weights Tolerance      =       1.00E-15

  -Total Gradient:
     Atom            X                  Y                   Z
    ------   -----------------  -----------------  -----------------
       1        0.000000000000    -0.000000000000     0.000025183542
       2        0.000000000000     0.000000000000     0.000055452898

*** tstop() called on Joses-MacBook-Pro-2.local at Wed Jul 16 18:38:52 2025
Module time:
	user time   =       0.81 seconds =       0.01 minutes
	system time =       1.67 seconds =       0.03 minutes
	total time  =          0 seconds =       0.00 minutes
Total time:
	user time   =      60.32 seconds =       1.01 minutes
	system time =      66.42 seconds =       1.11 minutes
	total time  =         12 seconds =       0.20 minutes

    			-----------------------------------------

    			 OPTKING 3.0: for geometry optimizations

    			     By R.A. King, Bethel University

    			        with contributions from

    			    A.V. Copan, J. Cayton, A. Heide

    			-----------------------------------------

	                            ===> Fragment 1 <==

	 Z (Atomic Numbers)          Masses                          Geom
	       3.000000             7.016003          0.00000000  0.00000000  3.93209715
	      18.000000            39.962383          0.00000000  0.00000000 -0.69033939

	 - Coordinate -           - BOHR/RAD -       - ANG/DEG -
	 R(1,2)           =         4.622437           2.446088

	        --- Internal Coordinate Step in ANG or DEG, aJ/ANG or AJ/DEG ---
	-------------------------------------------------------------------------------
	           Coordinate      Previous         Force          Change          New
	           ----------      --------        ------          ------        ------
	               R(1,2)       2.44609        0.00012        0.00013       2.44622
	-------------------------------------------------------------------------------

	                                 ==> Convergence Check <==

	Measures of convergence in internal coordinates in au.

	Criteria marked as inactive (o), active & met (*), and active & unmet ( ).

	----------------------------------------------------------------------------------------------
	   Step    Total Energy     Delta E     Max Force     RMS Force      Max Disp      RMS Disp
	----------------------------------------------------------------------------------------------
	  Convergence Criteria     1.00e-06 *    3.00e-04 *             o    1.20e-03 *             o
	----------------------------------------------------------------------------------------------
	    12    -533.91563303    1.10e-08 *    1.51e-05 *    1.51e-05 o    2.50e-04 *    2.50e-04 o  ~
	----------------------------------------------------------------------------------------------

Next Geometry in Ang
	Fragment 1 (Ang)

	   Li   0.0000000000   0.0000000000   2.0808423533
	   Ar   0.0000000000   0.0000000000  -0.3653780239

    Final optimized geometry and variables:
    Molecular point group: c2v
    Full point group: C_inf_v

    Geometry (in Angstrom), charge = 0, multiplicity = 6:

    LI           0.000000000000     0.000000000000     2.080776201227
    AR           0.000000000000     0.000000000000    -0.365311871752

    Psi4 stopped on: Wednesday, 16 July 2025 06:38PM
    Psi4 wall time for execution: 0:00:13.02

*** Psi4 exiting successfully. Buy a developer a beer!
