                               Psi4 1.9.1 release

  ==> Input File <==

--------------------------------------------------------------------------
molecule {
0 6
F   0.00000        0.60000        0.00000
Mg   0.00000       -0.60000        0.00000
}

set {
basis              cc-pvdz
reference          uks
maxiter            500
geom_maxiter       500
DAMPING_PERCENTAGE 1
guess              SAP
}

optimize('b3lyp')
--------------------------------------------------------------------------

    Molecular point group: c2v
  Charge       = 0
  Multiplicity = 6
  Basis Set: CC-PVDZ
    Blend: CC-PVDZ
  Basis Set: (CC-PVDZ AUX)
    Blend: CC-PVDZ-JKFIT + DEF2-UNIVERSAL-JKFIT
  @DF-UKS Final Energy:  -298.58020156779281
    Total Energy =                       -298.5802015677928125
 Dipole X            :          0.0000000            0.0000000            0.0000000
 Dipole Y            :          0.0000000            0.0000000            0.0000000
 Dipole Z            :          2.5066494           -0.6391737            1.8674757
 Magnitude           :                                                    1.8674757
    Molecular point group: c2v
  Basis Set: CC-PVDZ
    Blend: CC-PVDZ
  Basis Set: (CC-PVDZ AUX)
    Blend: CC-PVDZ-JKFIT + DEF2-UNIVERSAL-JKFIT
  Basis Set: CC-PVDZ
    Blend: CC-PVDZ
  Basis Set: (CC-PVDZ AUX)
    Blend: CC-PVDZ-JKFIT + DEF2-UNIVERSAL-JKFIT
  @DF-UKS Final Energy:  -298.81326226574942
    Total Energy =                       -298.8132622657494153
  Basis Set: CC-PVDZ
    Blend: CC-PVDZ
  Basis Set: (CC-PVDZ AUX)
    Blend: CC-PVDZ-JKFIT + DEF2-UNIVERSAL-JKFIT
  Basis Set: CC-PVDZ
    Blend: CC-PVDZ
  @DF-UKS Final Energy:  -298.96182965919564
    Total Energy =                       -298.9618296591956437
  @DF-UKS Final Energy:  -299.05654203416128
    Total Energy =                       -299.0565420341613390
  @DF-UKS Final Energy:  -299.12337639184534
    Total Energy =                       -299.1233763918453405
  @DF-UKS Final Energy:  -299.16777370244074
    Total Energy =                       -299.1677737024407406
  @DF-UKS Final Energy:  -299.19358599117282
    Total Energy =                       -299.1935859911728244
  @DF-UKS Final Energy:  -299.20540958811875
    Total Energy =                       -299.2054095881187550
  @DF-UKS Final Energy:  -299.20950335078146
    Total Energy =                       -299.2095033507814037
  @DF-UKS Final Energy:  -299.21044181429664
    Total Energy =                       -299.2104418142966438
  @DF-UKS Final Energy:  -299.21054468393930
    Total Energy =                       -299.2105446839393039
  Basis Set: (CC-PVDZ AUX)
    Blend: CC-PVDZ-JKFIT + DEF2-UNIVERSAL-JKFIT
  Basis Set: CC-PVDZ
    Blend: CC-PVDZ
  Basis Set: (CC-PVDZ AUX)
    Blend: CC-PVDZ-JKFIT + DEF2-UNIVERSAL-JKFIT
  @DF-UKS Final Energy:  -299.21054767355304
    Total Energy =                       -299.2105476735530374
  Basis Set: CC-PVDZ
    Blend: CC-PVDZ
  Basis Set: (CC-PVDZ AUX)
    Blend: CC-PVDZ-JKFIT + DEF2-UNIVERSAL-JKFIT
  Charge       = 0
  Multiplicity = 6
  Basis Set: CC-PVDZ
    Blend: CC-PVDZ
  Basis Set: (CC-PVDZ AUX)
    Blend: CC-PVDZ-JKFIT + DEF2-UNIVERSAL-JKFIT

    Orbital Energies [Eh]
    ---------------------

    Alpha Occupied:

       1A1   -46.826322     2A1   -25.414817     3A1    -3.109164
       4A1    -1.855388     1B1    -1.851520     1B2    -1.851490
       5A1    -1.756124     6A1    -1.050517     2B1    -1.049069
       2B2    -0.951740     7A1    -0.232575     3B1    -0.083867
       3B2    -0.082808

    Alpha Virtual:

       8A1    -0.055515     9A1     0.066584    10A1     0.143442
       4B1     0.153334     4B2     0.154034    11A1     0.291288
       5B1     0.292675     5B2     0.294263     1A2     0.310141
      12A1     0.310142     6B1     0.687526     6B2     0.736631
      13A1     0.757852    14A1     1.182784     7B1     2.899874
      15A1     2.904797     2A2     2.970620     7B2     2.971029
      16A1     2.997718

    Beta Occupied:

       1A1   -46.821773     2A1   -25.345276     3A1    -3.101901
       4A1    -1.850892     1B1    -1.843935     1B2    -1.843888
       5A1    -1.561414     2B2    -0.883062

    Beta Virtual:

       6A1    -0.692391     2B1    -0.690019     7A1    -0.109664
       8A1    -0.017548     3B2     0.022665     3B1     0.024521
       9A1     0.113306    10A1     0.169827     4B2     0.202699
       4B1     0.203087    11A1     0.339373     5B2     0.352156
       5B1     0.352422    12A1     0.388330     1A2     0.388351
       6B2     0.767107     6B1     0.800270    13A1     0.867177
      14A1     1.273867     2A2     3.083560     7B2     3.083968
      15A1     3.094280     7B1     3.113816    16A1     3.118977

    Final Occupation by Irrep:
             A1    A2    B1    B2
    DOCC [     5,    0,    1,    2 ]
    SOCC [     2,    0,    2,    1 ]
    NA   [     7,    0,    3,    3 ]
    NB   [     5,    0,    1,    2 ]

  @DF-UKS Final Energy:  -299.21054776015433

   => Energetics <=

    Nuclear Repulsion Energy =             19.6189967945260371
    One-Electron Energy =                -452.9897296248990415
    Two-Electron Energy =                 155.5516207468437244
    DFT Exchange-Correlation Energy =     -21.3914356766250400
    Empirical Dispersion Energy =           0.0000000000000000
    VV10 Nonlocal Energy =                  0.0000000000000000
    Total Energy =                       -299.2105477601543271

  UHF NO Occupations:
  HONO-2 :    3 B1 1.0000000
  HONO-1 :    3 B2 1.0000000
  HONO-0 :    7 A1 1.0000000
  LUNO+0 :    8 A1 0.0006501
  LUNO+1 :    4 B2 0.0002137
  LUNO+2 :    9 A1 0.0000008
  LUNO+3 :    4 B1 0.0000003

Computation Completed

Properties will be evaluated at   0.000000,   0.000000,   0.000000 [a0]

Properties computed using the SCF density matrix

 Multipole Moments:

 ------------------------------------------------------------------------------------
     Multipole            Electronic (a.u.)      Nuclear  (a.u.)        Total (a.u.)
 ------------------------------------------------------------------------------------

 L = 1.  Multiply by 2.5417464519 to convert [e a0] to [Debye]
 Dipole X            :          0.0000000            0.0000000            0.0000000
 Dipole Y            :          0.0000000            0.0000000            0.0000000
 Dipole Z            :          5.7186629           -1.5516213            4.1670416
 Magnitude           :                                                    4.1670416

 ------------------------------------------------------------------------------------

*** tstop() called on Joses-MacBook-Pro-2.local at Wed Jul 16 19:27:22 2025
Module time:
	user time   =       2.98 seconds =       0.05 minutes
	system time =       2.68 seconds =       0.04 minutes
	total time  =          1 seconds =       0.02 minutes
Total time:
	user time   =      68.41 seconds =       1.14 minutes
	system time =      57.43 seconds =       0.96 minutes
	total time  =         13 seconds =       0.22 minutes

*** tstart() called on Joses-MacBook-Pro-2.local
*** at Wed Jul 16 19:27:22 2025

         ------------------------------------------------------------
                                   SCF GRAD
                          Rob Parrish, Justin Turney,
                       Andy Simmonett, and Alex Sokolov
         ------------------------------------------------------------

  ==> Geometry <==

    Molecular point group: c2v
    Full point group: C_inf_v

    Geometry (in Angstrom), charge = 0, multiplicity = 6:

       Center              X                  Y                   Z               Mass
    ------------   -----------------  -----------------  -----------------  -----------------
         F            0.000000000000     0.000000000000     1.625501412591    18.998403162730
         MG           0.000000000000     0.000000000000    -1.287549613968    23.985041697000

  Nuclear repulsion =   19.618996794526037

  ==> Basis Set <==

  Basis Set: CC-PVDZ
    Blend: CC-PVDZ
    Number of shells: 14
    Number of basis functions: 32
    Number of Cartesian functions: 34
    Spherical Harmonics?: true
    Max angular momentum: 2

  ==> DFJKGrad: Density-Fitted SCF Gradients <==

    Gradient:                    1
    J tasked:                  Yes
    K tasked:                  Yes
    wK tasked:                  No
    OpenMP threads:              1
    Integrals threads:           1
    Memory [MiB]:              375
    Schwarz Cutoff:          1E-12
    Fitting Condition:       1E-10

   => Auxiliary Basis Set <=

  Basis Set: (CC-PVDZ AUX)
    Blend: CC-PVDZ-JKFIT + DEF2-UNIVERSAL-JKFIT
    Number of shells: 58
    Number of basis functions: 182
    Number of Cartesian functions: 218
    Spherical Harmonics?: true
    Max angular momentum: 4

  ==> DFT Potential <==

   => LibXC <=

    Version 6.2.2
    S. Lehtola, C. Steigemann, M. J.T. Oliveira, and M. A.L. Marques.,  SoftwareX 7, 1â€“5 (2018) (10.1016/j.softx.2017.11.002)

   => Composite Functional: B3LYP <=

    B3LYP Hyb-GGA Exchange-Correlation Functional

    P. J. Stephens, F. J. Devlin, C. F. Chabalowski, and M. J. Frisch.,  J. Phys. Chem. 98, 11623 (1994) (10.1021/j100096a001)

    Deriv               =              1
    GGA                 =           TRUE
    Meta                =          FALSE

    Exchange Hybrid     =           TRUE
    MP2 Hybrid          =          FALSE

   => Exchange Functionals <=

    0.0800   Slater exchange
    0.7200         Becke 88

   => Exact (HF) Exchange <=

    0.2000               HF

   => Correlation Functionals <=

    0.1900   Vosko, Wilk & Nusair (VWN5_RPA)
    0.8100   Lee, Yang & Parr

   => LibXC Density Thresholds  <==

    XC_HYB_GGA_XC_B3LYP:  1.00E-15

   => Molecular Quadrature <=

    Radial Scheme          =       TREUTLER
    Pruning Scheme         =           NONE
    Nuclear Scheme         =       TREUTLER

    Blocking Scheme        =         OCTREE
    BS radius alpha        =              1
    Pruning alpha          =              1
    Radial Points          =             75
    Spherical Points       =            302
    Total Points           =          43514
    Total Blocks           =            408
    Max Points             =            256
    Max Functions          =             32
    Weights Tolerance      =       1.00E-15

  -Total Gradient:
     Atom            X                  Y                   Z
    ------   -----------------  -----------------  -----------------
       1        0.000000000000     0.000000000000    -0.000018038567
       2        0.000000000000     0.000000000000     0.000001685567

*** tstop() called on Joses-MacBook-Pro-2.local at Wed Jul 16 19:27:22 2025
Module time:
	user time   =       1.10 seconds =       0.02 minutes
	system time =       1.47 seconds =       0.02 minutes
	total time  =          0 seconds =       0.00 minutes
Total time:
	user time   =      69.52 seconds =       1.16 minutes
	system time =      58.90 seconds =       0.98 minutes
	total time  =         13 seconds =       0.22 minutes

    			-----------------------------------------

    			 OPTKING 3.0: for geometry optimizations

    			     By R.A. King, Bethel University

    			        with contributions from

    			    A.V. Copan, J. Cayton, A. Heide

    			-----------------------------------------

	                            ===> Fragment 1 <==

	 Z (Atomic Numbers)          Masses                          Geom
	       9.000000            18.998403          0.00000000  0.00000000  3.07175249
	      12.000000            23.985042          0.00000000  0.00000000 -2.43311614

	 - Coordinate -           - BOHR/RAD -       - ANG/DEG -
	 R(1,2)           =         5.504869           2.913051

	        --- Internal Coordinate Step in ANG or DEG, aJ/ANG or AJ/DEG ---
	-------------------------------------------------------------------------------
	           Coordinate      Previous         Force          Change          New
	           ----------      --------        ------          ------        ------
	               R(1,2)       2.91305        0.00008        0.00022       2.91327
	-------------------------------------------------------------------------------

	                                 ==> Convergence Check <==

	Measures of convergence in internal coordinates in au.

	Criteria marked as inactive (o), active & met (*), and active & unmet ( ).

	----------------------------------------------------------------------------------------------
	   Step    Total Energy     Delta E     Max Force     RMS Force      Max Disp      RMS Disp
	----------------------------------------------------------------------------------------------
	  Convergence Criteria     1.00e-06 *    3.00e-04 *             o    1.20e-03 *             o
	----------------------------------------------------------------------------------------------
	    13    -299.21054776   -8.66e-08 *    9.86e-06 *    9.86e-06 o    4.21e-04 *    4.21e-04 o  ~
	----------------------------------------------------------------------------------------------

Next Geometry in Ang
	Fragment 1 (Ang)

	    F   0.0000000000   0.0000000000   1.6256128893
	   Mg   0.0000000000   0.0000000000  -1.2876610907

    Final optimized geometry and variables:
    Molecular point group: c2v
    Full point group: C_inf_v

    Geometry (in Angstrom), charge = 0, multiplicity = 6:

    F            0.000000000000     0.000000000000     1.625501412591
    MG           0.000000000000     0.000000000000    -1.287549613968

    Psi4 stopped on: Wednesday, 16 July 2025 07:27PM
    Psi4 wall time for execution: 0:00:13.28

*** Psi4 exiting successfully. Buy a developer a beer!
