                               Psi4 1.9.1 release

  ==> Input File <==

--------------------------------------------------------------------------
molecule {
0 1
P   0.00000        0.60000        0.00000
P   0.00000       -0.60000        0.00000
}

set {
basis              cc-pvdz
reference          uks
maxiter            500
geom_maxiter       500
DAMPING_PERCENTAGE 1
guess              SAP
}

optimize('b3lyp')
--------------------------------------------------------------------------

    Molecular point group: d2h
  Charge       = 0
  Multiplicity = 1
  Basis Set: CC-PVDZ
    Blend: CC-PVDZ
  Basis Set: (CC-PVDZ AUX)
    Blend: CC-PVDZ-JKFIT
  @DF-UKS Final Energy:  -681.58029003158390
    Total Energy =                       -681.5802900315838997
 Dipole X            :          0.0000000            0.0000000            0.0000000
 Dipole Y            :          0.0000000            0.0000000            0.0000000
 Dipole Z            :          0.0000000            0.0000000            0.0000000
 Magnitude           :                                                    0.0000000
    Molecular point group: d2h
  Basis Set: CC-PVDZ
    Blend: CC-PVDZ
  Basis Set: (CC-PVDZ AUX)
    Blend: CC-PVDZ-JKFIT
  Basis Set: CC-PVDZ
    Blend: CC-PVDZ
  Basis Set: (CC-PVDZ AUX)
    Blend: CC-PVDZ-JKFIT
  @DF-UKS Final Energy:  -681.61564820763863
    Total Energy =                       -681.6156482076385146
  Basis Set: CC-PVDZ
    Blend: CC-PVDZ
  Basis Set: (CC-PVDZ AUX)
    Blend: CC-PVDZ-JKFIT
  Basis Set: CC-PVDZ
    Blend: CC-PVDZ
  @DF-UKS Final Energy:  -681.68212463457053
    Total Energy =                       -681.6821246345706413
  @DF-UKS Final Energy:  -681.90550654513663
    Total Energy =                       -681.9055065451366318
  @DF-UKS Final Energy:  -682.45595257724256
    Total Energy =                       -682.4559525772425559
  @DF-UKS Final Energy:  -682.61553649987479
    Total Energy =                       -682.6155364998747928
  @DF-UKS Final Energy:  -682.69652580647016
    Total Energy =                       -682.6965258064701629
  @DF-UKS Final Energy:  -682.71733836680016
    Total Energy =                       -682.7173383668000497
  @DF-UKS Final Energy:  -682.72519417913418
    Total Energy =                       -682.7251941791341778
  @DF-UKS Final Energy:  -682.72696339894458
    Total Energy =                       -682.7269633989445765
  @DF-UKS Final Energy:  -682.72749776029946
    Total Energy =                       -682.7274977602994568
  @DF-UKS Final Energy:  -682.72756067362184
    Total Energy =                       -682.7275606736219515
  Basis Set: (CC-PVDZ AUX)
    Blend: CC-PVDZ-JKFIT
  Basis Set: CC-PVDZ
    Blend: CC-PVDZ
  Basis Set: (CC-PVDZ AUX)
    Blend: CC-PVDZ-JKFIT
  @DF-UKS Final Energy:  -682.72756908173494
    Total Energy =                       -682.7275690817349414
  Basis Set: CC-PVDZ
    Blend: CC-PVDZ
  Basis Set: (CC-PVDZ AUX)
    Blend: CC-PVDZ-JKFIT
  Charge       = 0
  Multiplicity = 1
  Basis Set: CC-PVDZ
    Blend: CC-PVDZ
  Basis Set: (CC-PVDZ AUX)
    Blend: CC-PVDZ-JKFIT

    Orbital Energies [Eh]
    ---------------------

    Alpha Occupied:

       1Ag   -77.104092     1B2u  -77.104091     2Ag    -6.575547
       2B2u   -6.575246     1B1u   -4.736783     1B3u   -4.736783
       1B3g   -4.736607     1B1g   -4.736607     3Ag    -4.734326
       3B2u   -4.732356     4Ag    -0.681738     4B2u   -0.464174
       5Ag    -0.293418     2B1u   -0.282539     2B3u   -0.282539

    Alpha Virtual:

       2B1g   -0.095229     2B3g   -0.095229     5B2u    0.078803
       6Ag     0.239527     3B3u    0.327790     3B1u    0.327790
       7Ag     0.363298     6B2u    0.400117     8Ag     0.409299
       1B2g    0.409300     4B3u    0.435809     4B1u    0.435809
       3B3g    0.461612     3B1g    0.461612     7B2u    0.543372
       1Au     0.543373     8B2u    0.604066     9Ag     0.748967
       4B1g    0.784516     4B3g    0.784516     9B2u    1.146528

    Beta Occupied:

       1Ag   -77.104092     1B2u  -77.104091     2Ag    -6.575547
       2B2u   -6.575246     1B1u   -4.736783     1B3u   -4.736783
       1B3g   -4.736607     1B1g   -4.736607     3Ag    -4.734326
       3B2u   -4.732356     4Ag    -0.681738     4B2u   -0.464174
       5Ag    -0.293418     2B1u   -0.282539     2B3u   -0.282539

    Beta Virtual:

       2B1g   -0.095229     2B3g   -0.095229     5B2u    0.078803
       6Ag     0.239527     3B3u    0.327790     3B1u    0.327790
       7Ag     0.363298     6B2u    0.400117     8Ag     0.409299
       1B2g    0.409300     4B3u    0.435809     4B1u    0.435809
       3B3g    0.461612     3B1g    0.461612     7B2u    0.543372
       1Au     0.543373     8B2u    0.604066     9Ag     0.748967
       4B1g    0.784516     4B3g    0.784516     9B2u    1.146528

    Final Occupation by Irrep:
             Ag   B1g   B2g   B3g    Au   B1u   B2u   B3u
    DOCC [     5,    1,    0,    1,    0,    2,    4,    2 ]
    SOCC [     0,    0,    0,    0,    0,    0,    0,    0 ]
    NA   [     5,    1,    0,    1,    0,    2,    4,    2 ]
    NB   [     5,    1,    0,    1,    0,    2,    4,    2 ]

  @DF-UKS Final Energy:  -682.72756955777857

   => Energetics <=

    Nuclear Repulsion Energy =             62.3776186387373457
    One-Electron Energy =               -1068.0222682127855478
    Two-Electron Energy =                 360.3340737223950327
    DFT Exchange-Correlation Energy =     -37.4169937061253748
    Empirical Dispersion Energy =           0.0000000000000000
    VV10 Nonlocal Energy =                  0.0000000000000000
    Total Energy =                       -682.7275695577785655

  UHF NO Occupations:
  HONO-2 :    2B3u 2.0000000
  HONO-1 :    4B2u 2.0000000
  HONO-0 :    5 Ag 2.0000000
  LUNO+0 :    6 Ag 0.0000000
  LUNO+1 :    2B3g 0.0000000
  LUNO+2 :    2B1g 0.0000000
  LUNO+3 :    3B3u 0.0000000

Computation Completed

Properties will be evaluated at   0.000000,   0.000000,   0.000000 [a0]

Properties computed using the SCF density matrix

 Multipole Moments:

 ------------------------------------------------------------------------------------
     Multipole            Electronic (a.u.)      Nuclear  (a.u.)        Total (a.u.)
 ------------------------------------------------------------------------------------

 L = 1.  Multiply by 2.5417464519 to convert [e a0] to [Debye]
 Dipole X            :          0.0000000            0.0000000            0.0000000
 Dipole Y            :          0.0000000            0.0000000            0.0000000
 Dipole Z            :          0.0000000            0.0000000            0.0000000
 Magnitude           :                                                    0.0000000

 ------------------------------------------------------------------------------------

*** tstop() called on Joses-MacBook-Pro-2.local at Wed Jul 16 20:21:09 2025
Module time:
	user time   =       7.90 seconds =       0.13 minutes
	system time =       2.47 seconds =       0.04 minutes
	total time  =          1 seconds =       0.02 minutes
Total time:
	user time   =     156.80 seconds =       2.61 minutes
	system time =      49.75 seconds =       0.83 minutes
	total time  =         20 seconds =       0.33 minutes

*** tstart() called on Joses-MacBook-Pro-2.local
*** at Wed Jul 16 20:21:09 2025

         ------------------------------------------------------------
                                   SCF GRAD
                          Rob Parrish, Justin Turney,
                       Andy Simmonett, and Alex Sokolov
         ------------------------------------------------------------

  ==> Geometry <==

    Molecular point group: d2h
    Full point group: D_inf_h

    Geometry (in Angstrom), charge = 0, multiplicity = 1:

       Center              X                  Y                   Z               Mass
    ------------   -----------------  -----------------  -----------------  -----------------
         P           -0.000000000000     0.954387767593     0.000000000000    30.973761998420
         P            0.000000000000    -0.954387767593     0.000000000000    30.973761998420

  Nuclear repulsion =   62.377618638737346

  ==> Basis Set <==

  Basis Set: CC-PVDZ
    Blend: CC-PVDZ
    Number of shells: 16
    Number of basis functions: 36
    Number of Cartesian functions: 38
    Spherical Harmonics?: true
    Max angular momentum: 2

  ==> DFJKGrad: Density-Fitted SCF Gradients <==

    Gradient:                    1
    J tasked:                  Yes
    K tasked:                  Yes
    wK tasked:                  No
    OpenMP threads:              1
    Integrals threads:           1
    Memory [MiB]:              375
    Schwarz Cutoff:          1E-12
    Fitting Condition:       1E-10

   => Auxiliary Basis Set <=

  Basis Set: (CC-PVDZ AUX)
    Blend: CC-PVDZ-JKFIT
    Number of shells: 72
    Number of basis functions: 224
    Number of Cartesian functions: 260
    Spherical Harmonics?: true
    Max angular momentum: 3

  ==> DFT Potential <==

   => LibXC <=

    Version 6.2.2
    S. Lehtola, C. Steigemann, M. J.T. Oliveira, and M. A.L. Marques.,  SoftwareX 7, 1â€“5 (2018) (10.1016/j.softx.2017.11.002)

   => Composite Functional: B3LYP <=

    B3LYP Hyb-GGA Exchange-Correlation Functional

    P. J. Stephens, F. J. Devlin, C. F. Chabalowski, and M. J. Frisch.,  J. Phys. Chem. 98, 11623 (1994) (10.1021/j100096a001)

    Deriv               =              1
    GGA                 =           TRUE
    Meta                =          FALSE

    Exchange Hybrid     =           TRUE
    MP2 Hybrid          =          FALSE

   => Exchange Functionals <=

    0.0800   Slater exchange
    0.7200         Becke 88

   => Exact (HF) Exchange <=

    0.2000               HF

   => Correlation Functionals <=

    0.1900   Vosko, Wilk & Nusair (VWN5_RPA)
    0.8100   Lee, Yang & Parr

   => LibXC Density Thresholds  <==

    XC_HYB_GGA_XC_B3LYP:  1.00E-15

   => Molecular Quadrature <=

    Radial Scheme          =       TREUTLER
    Pruning Scheme         =           NONE
    Nuclear Scheme         =       TREUTLER

    Blocking Scheme        =         OCTREE
    BS radius alpha        =              1
    Pruning alpha          =              1
    Radial Points          =             75
    Spherical Points       =            302
    Total Points           =          40800
    Total Blocks           =            372
    Max Points             =            250
    Max Functions          =             36
    Weights Tolerance      =       1.00E-15

  -Total Gradient:
     Atom            X                  Y                   Z
    ------   -----------------  -----------------  -----------------
       1        0.000000000000    -0.000074459637    -0.000000000000
       2       -0.000000000000     0.000074459637    -0.000000000000

*** tstop() called on Joses-MacBook-Pro-2.local at Wed Jul 16 20:21:09 2025
Module time:
	user time   =       2.13 seconds =       0.04 minutes
	system time =       1.60 seconds =       0.03 minutes
	total time  =          0 seconds =       0.00 minutes
Total time:
	user time   =     158.93 seconds =       2.65 minutes
	system time =      51.35 seconds =       0.86 minutes
	total time  =         20 seconds =       0.33 minutes

    			-----------------------------------------

    			 OPTKING 3.0: for geometry optimizations

    			     By R.A. King, Bethel University

    			        with contributions from

    			    A.V. Copan, J. Cayton, A. Heide

    			-----------------------------------------

	                            ===> Fragment 1 <==

	 Z (Atomic Numbers)          Masses                          Geom
	      15.000000            30.973762         -0.00000000  1.80353150  0.00000000
	      15.000000            30.973762          0.00000000 -1.80353150  0.00000000

	 - Coordinate -           - BOHR/RAD -       - ANG/DEG -
	 R(1,2)           =         3.607063           1.908776

	        --- Internal Coordinate Step in ANG or DEG, aJ/ANG or AJ/DEG ---
	-------------------------------------------------------------------------------
	           Coordinate      Previous         Force          Change          New
	           ----------      --------        ------          ------        ------
	               R(1,2)       1.90878        0.00061        0.00010       1.90887
	-------------------------------------------------------------------------------

	                                 ==> Convergence Check <==

	Measures of convergence in internal coordinates in au.

	Criteria marked as inactive (o), active & met (*), and active & unmet ( ).

	----------------------------------------------------------------------------------------------
	   Step    Total Energy     Delta E     Max Force     RMS Force      Max Disp      RMS Disp
	----------------------------------------------------------------------------------------------
	  Convergence Criteria     1.00e-06 *    3.00e-04 *             o    1.20e-03 *             o
	----------------------------------------------------------------------------------------------
	    14    -682.72756956   -4.76e-07 *    7.45e-05 *    7.45e-05 o    1.85e-04 *    1.85e-04 o  ~
	----------------------------------------------------------------------------------------------

Next Geometry in Ang
	Fragment 1 (Ang)

	    P  -0.0000000000   0.9544365845   0.0000000000
	    P   0.0000000000  -0.9544365845   0.0000000000

    Final optimized geometry and variables:
    Molecular point group: d2h
    Full point group: D_inf_h

    Geometry (in Angstrom), charge = 0, multiplicity = 1:

    P           -0.000000000000     0.954387767593     0.000000000000
    P            0.000000000000    -0.954387767593     0.000000000000

    Psi4 stopped on: Wednesday, 16 July 2025 08:21PM
    Psi4 wall time for execution: 0:00:21.28

*** Psi4 exiting successfully. Buy a developer a beer!
