                               Psi4 1.9.1 release

  ==> Input File <==

--------------------------------------------------------------------------
molecule {
0 1
Na   0.00000        0.60000        0.00000
Al   0.00000       -0.60000        0.00000
}

set {
basis              cc-pvdz
reference          uks
maxiter            500
geom_maxiter       500
DAMPING_PERCENTAGE 1
guess              SAP
}

optimize('b3lyp')
--------------------------------------------------------------------------

    Molecular point group: c2v
  Charge       = 0
  Multiplicity = 1
  Basis Set: CC-PVDZ
    Blend: CC-PVDZ
  Basis Set: (CC-PVDZ AUX)
    Blend: CC-PVDZ-JKFIT + DEF2-UNIVERSAL-JKFIT
  @DF-UKS Final Energy:  -403.95672921199952
    Total Energy =                       -403.9567292119995159
 Dipole X            :          0.0000000            0.0000000            0.0000000
 Dipole Y            :          0.0000000            0.0000000            0.0000000
 Dipole Z            :          1.2812922           -0.0939390            1.1873532
 Magnitude           :                                                    1.1873532
    Molecular point group: c2v
  Basis Set: CC-PVDZ
    Blend: CC-PVDZ
  Basis Set: (CC-PVDZ AUX)
    Blend: CC-PVDZ-JKFIT + DEF2-UNIVERSAL-JKFIT
  Basis Set: CC-PVDZ
    Blend: CC-PVDZ
  Basis Set: (CC-PVDZ AUX)
    Blend: CC-PVDZ-JKFIT + DEF2-UNIVERSAL-JKFIT
  @DF-UKS Final Energy:  -403.96369746095212
    Total Energy =                       -403.9636974609520621
  Basis Set: CC-PVDZ
    Blend: CC-PVDZ
  Basis Set: (CC-PVDZ AUX)
    Blend: CC-PVDZ-JKFIT + DEF2-UNIVERSAL-JKFIT
  Basis Set: CC-PVDZ
    Blend: CC-PVDZ
  @DF-UKS Final Energy:  -403.97718488807561
    Total Energy =                       -403.9771848880755556
  @DF-UKS Final Energy:  -404.02650340019659
    Total Energy =                       -404.0265034001965887
  @DF-UKS Final Energy:  -404.26035889956393
    Total Energy =                       -404.2603588995639257
  @DF-UKS Final Energy:  -404.40031027354974
    Total Energy =                       -404.4003102735497350
  @DF-UKS Final Energy:  -404.50547812813420
    Total Energy =                       -404.5054781281342002
  @DF-UKS Final Energy:  -404.57229626406115
    Total Energy =                       -404.5722962640610945
  @DF-UKS Final Energy:  -404.60769714211483
    Total Energy =                       -404.6076971421148301
  @DF-UKS Final Energy:  -404.66860886838555
    Total Energy =                       -404.6686088683856042
  @DF-UKS Final Energy:  -404.69916823111856
    Total Energy =                       -404.6991682311186196
  @DF-UKS Final Energy:  -404.69938774902329
    Total Energy =                       -404.6993877490232876
  @DF-UKS Final Energy:  -404.70087535331783
    Total Energy =                       -404.7008753533178833
  @DF-UKS Final Energy:  -404.70098499995856
    Total Energy =                       -404.7009849999585640
  Basis Set: (CC-PVDZ AUX)
    Blend: CC-PVDZ-JKFIT + DEF2-UNIVERSAL-JKFIT
  Basis Set: CC-PVDZ
    Blend: CC-PVDZ
  Basis Set: (CC-PVDZ AUX)
    Blend: CC-PVDZ-JKFIT + DEF2-UNIVERSAL-JKFIT
  @DF-UKS Final Energy:  -404.70099108476620
    Total Energy =                       -404.7009910847662013
  Basis Set: CC-PVDZ
    Blend: CC-PVDZ
  Basis Set: (CC-PVDZ AUX)
    Blend: CC-PVDZ-JKFIT + DEF2-UNIVERSAL-JKFIT
  Charge       = 0
  Multiplicity = 1
  Basis Set: CC-PVDZ
    Blend: CC-PVDZ
  Basis Set: (CC-PVDZ AUX)
    Blend: CC-PVDZ-JKFIT + DEF2-UNIVERSAL-JKFIT

    Orbital Energies [Eh]
    ---------------------

    Alpha Occupied:

       1A1   -56.061707     2A1   -38.450594     3A1    -4.140351
       1B2    -2.694603     1B1    -2.694603     4A1    -2.687954
       5A1    -2.197516     2B2    -1.129083     2B1    -1.129083
       6A1    -1.128033     7A1    -0.302707     8A1    -0.126833

    Alpha Virtual:

       3B1    -0.069424     3B2    -0.069424     9A1    -0.046991
       4B1    -0.000697     4B2    -0.000697    10A1     0.014571
      11A1     0.060630     5B2     0.082464     5B1     0.082464
      12A1     0.115621     1A2     0.169957    13A1     0.169957
       6B1     0.171711     6B2     0.171711    14A1     0.172258
       7B2     0.244925     7B1     0.244925    15A1     0.266887
       2A2     0.288291    16A1     0.288294    17A1     0.329741
       8B1     0.371793     8B2     0.371793    18A1     0.522578

    Beta Occupied:

       1A1   -56.061707     2A1   -38.450594     3A1    -4.140351
       1B2    -2.694603     1B1    -2.694603     4A1    -2.687954
       5A1    -2.197516     2B2    -1.129083     2B1    -1.129083
       6A1    -1.128033     7A1    -0.302707     8A1    -0.126833

    Beta Virtual:

       3B1    -0.069424     3B2    -0.069424     9A1    -0.046991
       4B1    -0.000697     4B2    -0.000697    10A1     0.014571
      11A1     0.060630     5B2     0.082464     5B1     0.082464
      12A1     0.115621     1A2     0.169957    13A1     0.169957
       6B1     0.171711     6B2     0.171711    14A1     0.172258
       7B2     0.244925     7B1     0.244925    15A1     0.266887
       2A2     0.288291    16A1     0.288294    17A1     0.329741
       8B1     0.371793     8B2     0.371793    18A1     0.522578

    Final Occupation by Irrep:
             A1    A2    B1    B2
    DOCC [     8,    0,    2,    2 ]
    SOCC [     0,    0,    0,    0 ]
    NA   [     8,    0,    2,    2 ]
    NB   [     8,    0,    2,    2 ]

  @DF-UKS Final Energy:  -404.70099139026291

   => Energetics <=

    Nuclear Repulsion Energy =             24.0392229695029087
    One-Electron Energy =                -612.9772757115021022
    Two-Electron Energy =                 210.8653905622654179
    DFT Exchange-Correlation Energy =     -26.6283292105291629
    Empirical Dispersion Energy =           0.0000000000000000
    VV10 Nonlocal Energy =                  0.0000000000000000
    Total Energy =                       -404.7009913902629137

  UHF NO Occupations:
  HONO-2 :    6 A1 2.0000000
  HONO-1 :    7 A1 2.0000000
  HONO-0 :    8 A1 2.0000000
  LUNO+0 :    9 A1 0.0000000
  LUNO+1 :   10 A1 0.0000000
  LUNO+2 :    3 B1 0.0000000
  LUNO+3 :    3 B2 0.0000000

Computation Completed

Properties will be evaluated at   0.000000,   0.000000,   0.000000 [a0]

Properties computed using the SCF density matrix

 Multipole Moments:

 ------------------------------------------------------------------------------------
     Multipole            Electronic (a.u.)      Nuclear  (a.u.)        Total (a.u.)
 ------------------------------------------------------------------------------------

 L = 1.  Multiply by 2.5417464519 to convert [e a0] to [Debye]
 Dipole X            :          0.0000000            0.0000000            0.0000000
 Dipole Y            :          0.0000000            0.0000000            0.0000000
 Dipole Z            :          0.9772919           -0.2464231            0.7308688
 Magnitude           :                                                    0.7308688

 ------------------------------------------------------------------------------------

*** tstop() called on Joses-MacBook-Pro-2.local at Wed Jul 16 19:41:36 2025
Module time:
	user time   =       7.46 seconds =       0.12 minutes
	system time =       1.58 seconds =       0.03 minutes
	total time  =          1 seconds =       0.02 minutes
Total time:
	user time   =     183.20 seconds =       3.05 minutes
	system time =      55.21 seconds =       0.92 minutes
	total time  =         22 seconds =       0.37 minutes

*** tstart() called on Joses-MacBook-Pro-2.local
*** at Wed Jul 16 19:41:36 2025

         ------------------------------------------------------------
                                   SCF GRAD
                          Rob Parrish, Justin Turney,
                       Andy Simmonett, and Alex Sokolov
         ------------------------------------------------------------

  ==> Geometry <==

    Molecular point group: c2v
    Full point group: C_inf_v

    Geometry (in Angstrom), charge = 0, multiplicity = 1:

       Center              X                  Y                   Z               Mass
    ------------   -----------------  -----------------  -----------------  -----------------
         NA           0.000000000000     0.000000000000     1.699662682201    22.989769282000
         AL           0.000000000000     0.000000000000    -1.448206998188    26.981538530000

  Nuclear repulsion =   24.039222969502909

  ==> Basis Set <==

  Basis Set: CC-PVDZ
    Blend: CC-PVDZ
    Number of shells: 16
    Number of basis functions: 36
    Number of Cartesian functions: 38
    Spherical Harmonics?: true
    Max angular momentum: 2

  ==> DFJKGrad: Density-Fitted SCF Gradients <==

    Gradient:                    1
    J tasked:                  Yes
    K tasked:                  Yes
    wK tasked:                  No
    OpenMP threads:              1
    Integrals threads:           1
    Memory [MiB]:              375
    Schwarz Cutoff:          1E-12
    Fitting Condition:       1E-10

   => Auxiliary Basis Set <=

  Basis Set: (CC-PVDZ AUX)
    Blend: CC-PVDZ-JKFIT + DEF2-UNIVERSAL-JKFIT
    Number of shells: 70
    Number of basis functions: 224
    Number of Cartesian functions: 267
    Spherical Harmonics?: true
    Max angular momentum: 4

  ==> DFT Potential <==

   => LibXC <=

    Version 6.2.2
    S. Lehtola, C. Steigemann, M. J.T. Oliveira, and M. A.L. Marques.,  SoftwareX 7, 1â€“5 (2018) (10.1016/j.softx.2017.11.002)

   => Composite Functional: B3LYP <=

    B3LYP Hyb-GGA Exchange-Correlation Functional

    P. J. Stephens, F. J. Devlin, C. F. Chabalowski, and M. J. Frisch.,  J. Phys. Chem. 98, 11623 (1994) (10.1021/j100096a001)

    Deriv               =              1
    GGA                 =           TRUE
    Meta                =          FALSE

    Exchange Hybrid     =           TRUE
    MP2 Hybrid          =          FALSE

   => Exchange Functionals <=

    0.0800   Slater exchange
    0.7200         Becke 88

   => Exact (HF) Exchange <=

    0.2000               HF

   => Correlation Functionals <=

    0.1900   Vosko, Wilk & Nusair (VWN5_RPA)
    0.8100   Lee, Yang & Parr

   => LibXC Density Thresholds  <==

    XC_HYB_GGA_XC_B3LYP:  1.00E-15

   => Molecular Quadrature <=

    Radial Scheme          =       TREUTLER
    Pruning Scheme         =           NONE
    Nuclear Scheme         =       TREUTLER

    Blocking Scheme        =         OCTREE
    BS radius alpha        =              1
    Pruning alpha          =              1
    Radial Points          =             75
    Spherical Points       =            302
    Total Points           =          43876
    Total Blocks           =            453
    Max Points             =            255
    Max Functions          =             36
    Weights Tolerance      =       1.00E-15

  -Total Gradient:
     Atom            X                  Y                   Z
    ------   -----------------  -----------------  -----------------
       1        0.000000000000    -0.000000000000    -0.000013973996
       2        0.000000000000    -0.000000000000     0.000041038505

*** tstop() called on Joses-MacBook-Pro-2.local at Wed Jul 16 19:41:37 2025
Module time:
	user time   =       2.99 seconds =       0.05 minutes
	system time =       1.13 seconds =       0.02 minutes
	total time  =          1 seconds =       0.02 minutes
Total time:
	user time   =     186.19 seconds =       3.10 minutes
	system time =      56.34 seconds =       0.94 minutes
	total time  =         23 seconds =       0.38 minutes

    			-----------------------------------------

    			 OPTKING 3.0: for geometry optimizations

    			     By R.A. King, Bethel University

    			        with contributions from

    			    A.V. Copan, J. Cayton, A. Heide

    			-----------------------------------------

	                            ===> Fragment 1 <==

	 Z (Atomic Numbers)          Masses                          Geom
	      11.000000            22.989769          0.00000000  0.00000000  3.21189698
	      13.000000            26.981539          0.00000000  0.00000000 -2.73671460

	 - Coordinate -           - BOHR/RAD -       - ANG/DEG -
	 R(1,2)           =         5.948612           3.147870

	        --- Internal Coordinate Step in ANG or DEG, aJ/ANG or AJ/DEG ---
	-------------------------------------------------------------------------------
	           Coordinate      Previous         Force          Change          New
	           ----------      --------        ------          ------        ------
	               R(1,2)       3.14787        0.00023        0.00069       3.14856
	-------------------------------------------------------------------------------

	                                 ==> Convergence Check <==

	Measures of convergence in internal coordinates in au.

	Criteria marked as inactive (o), active & met (*), and active & unmet ( ).

	----------------------------------------------------------------------------------------------
	   Step    Total Energy     Delta E     Max Force     RMS Force      Max Disp      RMS Disp
	----------------------------------------------------------------------------------------------
	  Convergence Criteria     1.00e-06 *    3.00e-04 *             o    1.20e-03 *             o
	----------------------------------------------------------------------------------------------
	    16    -404.70099139   -3.05e-07 *    2.75e-05 *    2.75e-05 o    1.30e-03      1.30e-03 o  ~
	----------------------------------------------------------------------------------------------

Next Geometry in Ang
	Fragment 1 (Ang)

	   Na   0.0000000000   0.0000000000   1.7000068231
	   Al   0.0000000000   0.0000000000  -1.4485511391

    Final optimized geometry and variables:
    Molecular point group: c2v
    Full point group: C_inf_v

    Geometry (in Angstrom), charge = 0, multiplicity = 1:

    NA           0.000000000000     0.000000000000     1.699662682201
    AL           0.000000000000     0.000000000000    -1.448206998188

    Psi4 stopped on: Wednesday, 16 July 2025 07:41PM
    Psi4 wall time for execution: 0:00:23.46

*** Psi4 exiting successfully. Buy a developer a beer!
