                               Psi4 1.9.1 release

  ==> Input File <==

--------------------------------------------------------------------------
molecule {
0 1
Be   0.00000        0.60000        0.00000
Be   0.00000       -0.60000        0.00000
}

set {
basis              cc-pvdz
reference          uks
maxiter            500
geom_maxiter       500
DAMPING_PERCENTAGE 1
guess              SAP
}

optimize('b3lyp')
--------------------------------------------------------------------------

    Molecular point group: d2h
  Charge       = 0
  Multiplicity = 1
  Basis Set: CC-PVDZ
    Blend: CC-PVDZ
  Basis Set: (CC-PVDZ AUX)
    Blend: DEF2-UNIVERSAL-JKFIT
  @DF-UKS Final Energy:   -29.05268302854346
    Total Energy =                        -29.0526830285434627
 Dipole X            :          0.0000000            0.0000000            0.0000000
 Dipole Y            :          0.0000000            0.0000000            0.0000000
 Dipole Z            :          0.0000000            0.0000000            0.0000000
 Magnitude           :                                                    0.0000000
    Molecular point group: d2h
  Basis Set: CC-PVDZ
    Blend: CC-PVDZ
  Basis Set: (CC-PVDZ AUX)
    Blend: DEF2-UNIVERSAL-JKFIT
  Basis Set: CC-PVDZ
    Blend: CC-PVDZ
  Basis Set: (CC-PVDZ AUX)
    Blend: DEF2-UNIVERSAL-JKFIT
  @DF-UKS Final Energy:   -29.17324912665773
    Total Energy =                        -29.1732491266577334
  Basis Set: CC-PVDZ
    Blend: CC-PVDZ
  Basis Set: (CC-PVDZ AUX)
    Blend: DEF2-UNIVERSAL-JKFIT
  Basis Set: CC-PVDZ
    Blend: CC-PVDZ
  @DF-UKS Final Energy:   -29.22574577469400
    Total Energy =                        -29.2257457746940048
  @DF-UKS Final Energy:   -29.24185558084010
    Total Energy =                        -29.2418555808401024
  @DF-UKS Final Energy:   -29.30603806148376
    Total Energy =                        -29.3060380614837612
  @DF-UKS Final Energy:   -29.34756864033309
    Total Energy =                        -29.3475686403330869
  @DF-UKS Final Energy:   -29.34784664493247
    Total Energy =                        -29.3478466449324671
  @DF-UKS Final Energy:   -29.34872122408822
    Total Energy =                        -29.3487212240882158
  @DF-UKS Final Energy:   -29.34881339593613
    Total Energy =                        -29.3488133959361335
  @DF-UKS Final Energy:   -29.34882498333093
    Total Energy =                        -29.3488249833309283
  Basis Set: (CC-PVDZ AUX)
    Blend: DEF2-UNIVERSAL-JKFIT
  Basis Set: CC-PVDZ
    Blend: CC-PVDZ
  Basis Set: (CC-PVDZ AUX)
    Blend: DEF2-UNIVERSAL-JKFIT
  @DF-UKS Final Energy:   -29.34882659528289
    Total Energy =                        -29.3488265952828939
  Basis Set: CC-PVDZ
    Blend: CC-PVDZ
  Basis Set: (CC-PVDZ AUX)
    Blend: DEF2-UNIVERSAL-JKFIT
  Charge       = 0
  Multiplicity = 1
  Basis Set: CC-PVDZ
    Blend: CC-PVDZ
  Basis Set: (CC-PVDZ AUX)
    Blend: DEF2-UNIVERSAL-JKFIT

    Orbital Energies [Eh]
    ---------------------

    Alpha Occupied:

       1B2u   -4.083655     1Ag    -4.083608     2Ag    -0.293230
       2B2u   -0.188972

    Alpha Virtual:

       3Ag    -0.083660     1B1u   -0.080134     1B3u   -0.080134
       1B3g   -0.011902     1B1g   -0.011902     3B2u    0.078321
       4Ag     0.179429     5Ag     0.188836     2B3u    0.189135
       2B1u    0.189135     4B2u    0.207938     2B1g    0.215022
       2B3g    0.215022     5B2u    0.328261     3B3u    0.404313
       3B1u    0.404313     1B2g    0.439843     6Ag     0.439843
       1Au     0.519538     6B2u    0.519538     7Ag     0.602655
       3B3g    0.674462     3B1g    0.674462     7B2u    0.795960

    Beta Occupied:

       1B2u   -4.083655     1Ag    -4.083608     2Ag    -0.293230
       2B2u   -0.188972

    Beta Virtual:

       3Ag    -0.083660     1B1u   -0.080134     1B3u   -0.080134
       1B3g   -0.011902     1B1g   -0.011902     3B2u    0.078321
       4Ag     0.179429     5Ag     0.188836     2B3u    0.189135
       2B1u    0.189135     4B2u    0.207938     2B1g    0.215022
       2B3g    0.215022     5B2u    0.328261     3B3u    0.404313
       3B1u    0.404313     1B2g    0.439843     6Ag     0.439843
       1Au     0.519538     6B2u    0.519538     7Ag     0.602655
       3B3g    0.674462     3B1g    0.674462     7B2u    0.795960

    Final Occupation by Irrep:
             Ag   B1g   B2g   B3g    Au   B1u   B2u   B3u
    DOCC [     2,    0,    0,    0,    0,    0,    2,    0 ]
    SOCC [     0,    0,    0,    0,    0,    0,    0,    0 ]
    NA   [     2,    0,    0,    0,    0,    0,    2,    0 ]
    NB   [     2,    0,    0,    0,    0,    0,    2,    0 ]

  @DF-UKS Final Energy:   -29.34882682535805

   => Energetics <=

    Nuclear Repulsion Energy =              3.3770875093865889
    One-Electron Energy =                 -44.8970516232116097
    Two-Electron Energy =                  16.6667677042588629
    DFT Exchange-Correlation Energy =      -4.4956304157918989
    Empirical Dispersion Energy =           0.0000000000000000
    VV10 Nonlocal Energy =                  0.0000000000000000
    Total Energy =                        -29.3488268253580529

  UHF NO Occupations:
  HONO-2 :    2B2u 2.0000000
  HONO-1 :    1 Ag 2.0000000
  HONO-0 :    2 Ag 2.0000000
  LUNO+0 :    3 Ag 0.0000000
  LUNO+1 :    4 Ag 0.0000000
  LUNO+2 :    3B2u 0.0000000
  LUNO+3 :    5 Ag 0.0000000

Computation Completed

Properties will be evaluated at   0.000000,   0.000000,   0.000000 [a0]

Properties computed using the SCF density matrix

 Multipole Moments:

 ------------------------------------------------------------------------------------
     Multipole            Electronic (a.u.)      Nuclear  (a.u.)        Total (a.u.)
 ------------------------------------------------------------------------------------

 L = 1.  Multiply by 2.5417464519 to convert [e a0] to [Debye]
 Dipole X            :          0.0000000            0.0000000            0.0000000
 Dipole Y            :          0.0000000            0.0000000            0.0000000
 Dipole Z            :          0.0000000            0.0000000            0.0000000
 Magnitude           :                                                    0.0000000

 ------------------------------------------------------------------------------------

*** tstop() called on Joses-MacBook-Pro-2.local at Wed Jul 16 18:39:03 2025
Module time:
	user time   =       2.46 seconds =       0.04 minutes
	system time =       2.13 seconds =       0.04 minutes
	total time  =          1 seconds =       0.02 minutes
Total time:
	user time   =      46.74 seconds =       0.78 minutes
	system time =      51.99 seconds =       0.87 minutes
	total time  =         10 seconds =       0.17 minutes

*** tstart() called on Joses-MacBook-Pro-2.local
*** at Wed Jul 16 18:39:03 2025

         ------------------------------------------------------------
                                   SCF GRAD
                          Rob Parrish, Justin Turney,
                       Andy Simmonett, and Alex Sokolov
         ------------------------------------------------------------

  ==> Geometry <==

    Molecular point group: d2h
    Full point group: D_inf_h

    Geometry (in Angstrom), charge = 0, multiplicity = 1:

       Center              X                  Y                   Z               Mass
    ------------   -----------------  -----------------  -----------------  -----------------
         BE          -0.000000000000     1.253570620718     0.000000000000     9.012183065000
         BE           0.000000000000    -1.253570620718     0.000000000000     9.012183065000

  Nuclear repulsion =    3.377087509386589

  ==> Basis Set <==

  Basis Set: CC-PVDZ
    Blend: CC-PVDZ
    Number of shells: 12
    Number of basis functions: 28
    Number of Cartesian functions: 30
    Spherical Harmonics?: true
    Max angular momentum: 2

  ==> DFJKGrad: Density-Fitted SCF Gradients <==

    Gradient:                    1
    J tasked:                  Yes
    K tasked:                  Yes
    wK tasked:                  No
    OpenMP threads:              1
    Integrals threads:           1
    Memory [MiB]:              375
    Schwarz Cutoff:          1E-12
    Fitting Condition:       1E-10

   => Auxiliary Basis Set <=

  Basis Set: (CC-PVDZ AUX)
    Blend: DEF2-UNIVERSAL-JKFIT
    Number of shells: 34
    Number of basis functions: 102
    Number of Cartesian functions: 120
    Spherical Harmonics?: true
    Max angular momentum: 3

  ==> DFT Potential <==

   => LibXC <=

    Version 6.2.2
    S. Lehtola, C. Steigemann, M. J.T. Oliveira, and M. A.L. Marques.,  SoftwareX 7, 1â€“5 (2018) (10.1016/j.softx.2017.11.002)

   => Composite Functional: B3LYP <=

    B3LYP Hyb-GGA Exchange-Correlation Functional

    P. J. Stephens, F. J. Devlin, C. F. Chabalowski, and M. J. Frisch.,  J. Phys. Chem. 98, 11623 (1994) (10.1021/j100096a001)

    Deriv               =              1
    GGA                 =           TRUE
    Meta                =          FALSE

    Exchange Hybrid     =           TRUE
    MP2 Hybrid          =          FALSE

   => Exchange Functionals <=

    0.0800   Slater exchange
    0.7200         Becke 88

   => Exact (HF) Exchange <=

    0.2000               HF

   => Correlation Functionals <=

    0.1900   Vosko, Wilk & Nusair (VWN5_RPA)
    0.8100   Lee, Yang & Parr

   => LibXC Density Thresholds  <==

    XC_HYB_GGA_XC_B3LYP:  1.00E-15

   => Molecular Quadrature <=

    Radial Scheme          =       TREUTLER
    Pruning Scheme         =           NONE
    Nuclear Scheme         =       TREUTLER

    Blocking Scheme        =         OCTREE
    BS radius alpha        =              1
    Pruning alpha          =              1
    Radial Points          =             75
    Spherical Points       =            302
    Total Points           =          42588
    Total Blocks           =            390
    Max Points             =            254
    Max Functions          =             28
    Weights Tolerance      =       1.00E-15

  -Total Gradient:
     Atom            X                  Y                   Z
    ------   -----------------  -----------------  -----------------
       1        0.000000000000    -0.000030401679     0.000000000000
       2       -0.000000000000     0.000030401679    -0.000000000000

*** tstop() called on Joses-MacBook-Pro-2.local at Wed Jul 16 18:39:03 2025
Module time:
	user time   =       0.42 seconds =       0.01 minutes
	system time =       1.28 seconds =       0.02 minutes
	total time  =          0 seconds =       0.00 minutes
Total time:
	user time   =      47.17 seconds =       0.79 minutes
	system time =      53.27 seconds =       0.89 minutes
	total time  =         10 seconds =       0.17 minutes

    			-----------------------------------------

    			 OPTKING 3.0: for geometry optimizations

    			     By R.A. King, Bethel University

    			        with contributions from

    			    A.V. Copan, J. Cayton, A. Heide

    			-----------------------------------------

	                            ===> Fragment 1 <==

	 Z (Atomic Numbers)          Masses                          Geom
	       4.000000             9.012183         -0.00000000  2.36890515  0.00000000
	       4.000000             9.012183          0.00000000 -2.36890515  0.00000000

	 - Coordinate -           - BOHR/RAD -       - ANG/DEG -
	 R(1,2)           =         4.737810           2.507141

	        --- Internal Coordinate Step in ANG or DEG, aJ/ANG or AJ/DEG ---
	-------------------------------------------------------------------------------
	           Coordinate      Previous         Force          Change          New
	           ----------      --------        ------          ------        ------
	               R(1,2)       2.50714        0.00025        0.00105       2.50819
	-------------------------------------------------------------------------------

	                                 ==> Convergence Check <==

	Measures of convergence in internal coordinates in au.

	Criteria marked as inactive (o), active & met (*), and active & unmet ( ).

	----------------------------------------------------------------------------------------------
	   Step    Total Energy     Delta E     Max Force     RMS Force      Max Disp      RMS Disp
	----------------------------------------------------------------------------------------------
	  Convergence Criteria     1.00e-06 *    3.00e-04 *             o    1.20e-03 *             o
	----------------------------------------------------------------------------------------------
	    12     -29.34882683   -2.30e-07 *    3.04e-05 *    3.04e-05 o    1.98e-03      1.98e-03 o  ~
	----------------------------------------------------------------------------------------------

Next Geometry in Ang
	Fragment 1 (Ang)

	   Be  -0.0000000000   1.2540947503   0.0000000000
	   Be   0.0000000000  -1.2540947503   0.0000000000

    Final optimized geometry and variables:
    Molecular point group: d2h
    Full point group: D_inf_h

    Geometry (in Angstrom), charge = 0, multiplicity = 1:

    BE          -0.000000000000     1.253570620718     0.000000000000
    BE           0.000000000000    -1.253570620718     0.000000000000

    Psi4 stopped on: Wednesday, 16 July 2025 06:39PM
    Psi4 wall time for execution: 0:00:10.45

*** Psi4 exiting successfully. Buy a developer a beer!
