                               Psi4 1.9.1 release

  ==> Input File <==

--------------------------------------------------------------------------
molecule {
0 1
Na   0.00000        0.60000        0.00000
Na   0.00000       -0.60000        0.00000
}

set {
basis              cc-pvdz
reference          uks
maxiter            500
geom_maxiter       500
DAMPING_PERCENTAGE 1
guess              SAP
}

optimize('b3lyp')
--------------------------------------------------------------------------

    Molecular point group: d2h
  Charge       = 0
  Multiplicity = 1
  Basis Set: CC-PVDZ
    Blend: CC-PVDZ
  Basis Set: (CC-PVDZ AUX)
    Blend: DEF2-UNIVERSAL-JKFIT
  @DF-UKS Final Energy:  -324.06078617087582
    Total Energy =                       -324.0607861708758151
 Dipole X            :          0.0000000            0.0000000            0.0000000
 Dipole Y            :          0.0000000            0.0000000            0.0000000
 Dipole Z            :          0.0000000            0.0000000            0.0000000
 Magnitude           :                                                    0.0000000
    Molecular point group: d2h
  Basis Set: CC-PVDZ
    Blend: CC-PVDZ
  Basis Set: (CC-PVDZ AUX)
    Blend: DEF2-UNIVERSAL-JKFIT
  Basis Set: CC-PVDZ
    Blend: CC-PVDZ
  Basis Set: (CC-PVDZ AUX)
    Blend: DEF2-UNIVERSAL-JKFIT
  @DF-UKS Final Energy:  -324.06795404523422
    Total Energy =                       -324.0679540452342167
  Basis Set: CC-PVDZ
    Blend: CC-PVDZ
  Basis Set: (CC-PVDZ AUX)
    Blend: DEF2-UNIVERSAL-JKFIT
  Basis Set: CC-PVDZ
    Blend: CC-PVDZ
  @DF-UKS Final Energy:  -324.08174459517841
    Total Energy =                       -324.0817445951784066
  @DF-UKS Final Energy:  -324.13134468232795
    Total Energy =                       -324.1313446823279492
  @DF-UKS Final Energy:  -324.34626187159995
    Total Energy =                       -324.3462618715999497
  @DF-UKS Final Energy:  -324.43494035651599
    Total Energy =                       -324.4349403565159946
  @DF-UKS Final Energy:  -324.49505548657015
    Total Energy =                       -324.4950554865701520
  @DF-UKS Final Energy:  -324.52921751360049
    Total Energy =                       -324.5292175136004857
  @DF-UKS Final Energy:  -324.56320606708198
    Total Energy =                       -324.5632060670820351
  @DF-UKS Final Energy:  -324.58517782436246
    Total Energy =                       -324.5851778243625176
  @DF-UKS Final Energy:  -324.59918587292645
    Total Energy =                       -324.5991858729263981
  @DF-UKS Final Energy:  -324.60571995763314
    Total Energy =                       -324.6057199576331982
  @DF-UKS Final Energy:  -324.60809350920653
    Total Energy =                       -324.6080935092065261
  @DF-UKS Final Energy:  -324.60869914967975
    Total Energy =                       -324.6086991496797509
  Basis Set: (CC-PVDZ AUX)
    Blend: DEF2-UNIVERSAL-JKFIT
  Basis Set: CC-PVDZ
    Blend: CC-PVDZ
  Basis Set: (CC-PVDZ AUX)
    Blend: DEF2-UNIVERSAL-JKFIT
  @DF-UKS Final Energy:  -324.60874367988271
    Total Energy =                       -324.6087436798827071
  Basis Set: CC-PVDZ
    Blend: CC-PVDZ
  Basis Set: (CC-PVDZ AUX)
    Blend: DEF2-UNIVERSAL-JKFIT
  Charge       = 0
  Multiplicity = 1
  Basis Set: CC-PVDZ
    Blend: CC-PVDZ
  Basis Set: (CC-PVDZ AUX)
    Blend: DEF2-UNIVERSAL-JKFIT

    Orbital Energies [Eh]
    ---------------------

    Alpha Occupied:

       1Ag   -38.460715     1B2u  -38.460713     2Ag    -2.206477
       2B2u   -2.206334     3Ag    -1.138848     1B1u   -1.137728
       1B3u   -1.137728     1B3g   -1.137471     1B1g   -1.137471
       3B2u   -1.136633     4Ag    -0.130824

    Alpha Virtual:

       4B2u   -0.055569     2B3u   -0.022752     2B1u   -0.022752
       5Ag    -0.006899     2B3g    0.013183     2B1g    0.013183
       5B2u    0.027533     6Ag     0.055692     3B3u    0.074010
       3B1u    0.074010     7Ag     0.079117     3B3g    0.109318
       3B1g    0.109318     6B2u    0.110863     1B2g    0.152749
       8Ag     0.152750     7B2u    0.167824     4B3u    0.171775
       4B1u    0.171775     1Au     0.213817     8B2u    0.213817
       9Ag     0.253451     4B3g    0.304767     4B1g    0.304767
       9B2u    0.630504

    Beta Occupied:

       1Ag   -38.460715     1B2u  -38.460713     2Ag    -2.206477
       2B2u   -2.206334     3Ag    -1.138848     1B1u   -1.137728
       1B3u   -1.137728     1B3g   -1.137471     1B1g   -1.137471
       3B2u   -1.136633     4Ag    -0.130824

    Beta Virtual:

       4B2u   -0.055569     2B3u   -0.022752     2B1u   -0.022752
       5Ag    -0.006899     2B3g    0.013183     2B1g    0.013183
       5B2u    0.027533     6Ag     0.055692     3B3u    0.074010
       3B1u    0.074010     7Ag     0.079117     3B3g    0.109318
       3B1g    0.109318     6B2u    0.110863     1B2g    0.152749
       8Ag     0.152750     7B2u    0.167824     4B3u    0.171775
       4B1u    0.171775     1Au     0.213817     8B2u    0.213817
       9Ag     0.253451     4B3g    0.304767     4B1g    0.304767
       9B2u    0.630504

    Final Occupation by Irrep:
             Ag   B1g   B2g   B3g    Au   B1u   B2u   B3u
    DOCC [     4,    1,    0,    1,    0,    1,    3,    1 ]
    SOCC [     0,    0,    0,    0,    0,    0,    0,    0 ]
    NA   [     4,    1,    0,    1,    0,    1,    3,    1 ]
    NB   [     4,    1,    0,    1,    0,    1,    3,    1 ]

  @DF-UKS Final Energy:  -324.60874429808234

   => Energetics <=

    Nuclear Repulsion Energy =             21.0381010373555135
    One-Electron Energy =                -498.0543221683992670
    Two-Electron Energy =                 175.7057951440011436
    DFT Exchange-Correlation Energy =     -23.2983183110396723
    Empirical Dispersion Energy =           0.0000000000000000
    VV10 Nonlocal Energy =                  0.0000000000000000
    Total Energy =                       -324.6087442980823425

  UHF NO Occupations:
  HONO-2 :    1B3g 2.0000000
  HONO-1 :    3 Ag 2.0000000
  HONO-0 :    4 Ag 2.0000000
  LUNO+0 :    5 Ag 0.0000000
  LUNO+1 :    2B1g 0.0000000
  LUNO+2 :    2B3u 0.0000000
  LUNO+3 :    4B2u 0.0000000

Computation Completed

Properties will be evaluated at   0.000000,   0.000000,   0.000000 [a0]

Properties computed using the SCF density matrix

 Multipole Moments:

 ------------------------------------------------------------------------------------
     Multipole            Electronic (a.u.)      Nuclear  (a.u.)        Total (a.u.)
 ------------------------------------------------------------------------------------

 L = 1.  Multiply by 2.5417464519 to convert [e a0] to [Debye]
 Dipole X            :          0.0000000            0.0000000            0.0000000
 Dipole Y            :          0.0000000            0.0000000            0.0000000
 Dipole Z            :          0.0000000            0.0000000            0.0000000
 Magnitude           :                                                    0.0000000

 ------------------------------------------------------------------------------------

*** tstop() called on Joses-MacBook-Pro-2.local at Wed Jul 16 19:39:08 2025
Module time:
	user time   =       6.41 seconds =       0.11 minutes
	system time =       2.61 seconds =       0.04 minutes
	total time  =          1 seconds =       0.02 minutes
Total time:
	user time   =     142.52 seconds =       2.38 minutes
	system time =      76.35 seconds =       1.27 minutes
	total time  =         20 seconds =       0.33 minutes

*** tstart() called on Joses-MacBook-Pro-2.local
*** at Wed Jul 16 19:39:08 2025

         ------------------------------------------------------------
                                   SCF GRAD
                          Rob Parrish, Justin Turney,
                       Andy Simmonett, and Alex Sokolov
         ------------------------------------------------------------

  ==> Geometry <==

    Molecular point group: d2h
    Full point group: D_inf_h

    Geometry (in Angstrom), charge = 0, multiplicity = 1:

       Center              X                  Y                   Z               Mass
    ------------   -----------------  -----------------  -----------------  -----------------
         NA          -0.000000000000     1.521773338225     0.000000000000    22.989769282000
         NA           0.000000000000    -1.521773338225     0.000000000000    22.989769282000

  Nuclear repulsion =   21.038101037355514

  ==> Basis Set <==

  Basis Set: CC-PVDZ
    Blend: CC-PVDZ
    Number of shells: 16
    Number of basis functions: 36
    Number of Cartesian functions: 38
    Spherical Harmonics?: true
    Max angular momentum: 2

  ==> DFJKGrad: Density-Fitted SCF Gradients <==

    Gradient:                    1
    J tasked:                  Yes
    K tasked:                  Yes
    wK tasked:                  No
    OpenMP threads:              1
    Integrals threads:           1
    Memory [MiB]:              375
    Schwarz Cutoff:          1E-12
    Fitting Condition:       1E-10

   => Auxiliary Basis Set <=

  Basis Set: (CC-PVDZ AUX)
    Blend: DEF2-UNIVERSAL-JKFIT
    Number of shells: 68
    Number of basis functions: 224
    Number of Cartesian functions: 274
    Spherical Harmonics?: true
    Max angular momentum: 4

  ==> DFT Potential <==

   => LibXC <=

    Version 6.2.2
    S. Lehtola, C. Steigemann, M. J.T. Oliveira, and M. A.L. Marques.,  SoftwareX 7, 1â€“5 (2018) (10.1016/j.softx.2017.11.002)

   => Composite Functional: B3LYP <=

    B3LYP Hyb-GGA Exchange-Correlation Functional

    P. J. Stephens, F. J. Devlin, C. F. Chabalowski, and M. J. Frisch.,  J. Phys. Chem. 98, 11623 (1994) (10.1021/j100096a001)

    Deriv               =              1
    GGA                 =           TRUE
    Meta                =          FALSE

    Exchange Hybrid     =           TRUE
    MP2 Hybrid          =          FALSE

   => Exchange Functionals <=

    0.0800   Slater exchange
    0.7200         Becke 88

   => Exact (HF) Exchange <=

    0.2000               HF

   => Correlation Functionals <=

    0.1900   Vosko, Wilk & Nusair (VWN5_RPA)
    0.8100   Lee, Yang & Parr

   => LibXC Density Thresholds  <==

    XC_HYB_GGA_XC_B3LYP:  1.00E-15

   => Molecular Quadrature <=

    Radial Scheme          =       TREUTLER
    Pruning Scheme         =           NONE
    Nuclear Scheme         =       TREUTLER

    Blocking Scheme        =         OCTREE
    BS radius alpha        =              1
    Pruning alpha          =              1
    Radial Points          =             75
    Spherical Points       =            302
    Total Points           =          43070
    Total Blocks           =            452
    Max Points             =            256
    Max Functions          =             36
    Weights Tolerance      =       1.00E-15

  -Total Gradient:
     Atom            X                  Y                   Z
    ------   -----------------  -----------------  -----------------
       1        0.000000000000    -0.000013933963    -0.000000000000
       2       -0.000000000000     0.000013933963    -0.000000000000

*** tstop() called on Joses-MacBook-Pro-2.local at Wed Jul 16 19:39:09 2025
Module time:
	user time   =       2.48 seconds =       0.04 minutes
	system time =       1.83 seconds =       0.03 minutes
	total time  =          1 seconds =       0.02 minutes
Total time:
	user time   =     145.01 seconds =       2.42 minutes
	system time =      78.18 seconds =       1.30 minutes
	total time  =         21 seconds =       0.35 minutes

    			-----------------------------------------

    			 OPTKING 3.0: for geometry optimizations

    			     By R.A. King, Bethel University

    			        with contributions from

    			    A.V. Copan, J. Cayton, A. Heide

    			-----------------------------------------

	                            ===> Fragment 1 <==

	 Z (Atomic Numbers)          Masses                          Geom
	      11.000000            22.989769         -0.00000000  2.87573483  0.00000000
	      11.000000            22.989769          0.00000000 -2.87573483  0.00000000

	 - Coordinate -           - BOHR/RAD -       - ANG/DEG -
	 R(1,2)           =         5.751470           3.043547

	        --- Internal Coordinate Step in ANG or DEG, aJ/ANG or AJ/DEG ---
	-------------------------------------------------------------------------------
	           Coordinate      Previous         Force          Change          New
	           ----------      --------        ------          ------        ------
	               R(1,2)       3.04355        0.00011        0.00058       3.04413
	-------------------------------------------------------------------------------

	                                 ==> Convergence Check <==

	Measures of convergence in internal coordinates in au.

	Criteria marked as inactive (o), active & met (*), and active & unmet ( ).

	----------------------------------------------------------------------------------------------
	   Step    Total Energy     Delta E     Max Force     RMS Force      Max Disp      RMS Disp
	----------------------------------------------------------------------------------------------
	  Convergence Criteria     1.00e-06 *    3.00e-04 *             o    1.20e-03 *             o
	----------------------------------------------------------------------------------------------
	    16    -324.60874430   -6.18e-07 *    1.39e-05 *    1.39e-05 o    1.10e-03 *    1.10e-03 o  ~
	----------------------------------------------------------------------------------------------

Next Geometry in Ang
	Fragment 1 (Ang)

	   Na  -0.0000000000   1.5220644159   0.0000000000
	   Na   0.0000000000  -1.5220644159   0.0000000000

    Final optimized geometry and variables:
    Molecular point group: d2h
    Full point group: D_inf_h

    Geometry (in Angstrom), charge = 0, multiplicity = 1:

    NA          -0.000000000000     1.521773338225     0.000000000000
    NA           0.000000000000    -1.521773338225     0.000000000000

    Psi4 stopped on: Wednesday, 16 July 2025 07:39PM
    Psi4 wall time for execution: 0:00:21.65

*** Psi4 exiting successfully. Buy a developer a beer!
