                               Psi4 1.9.1 release

  ==> Input File <==

--------------------------------------------------------------------------
molecule {
0 1
P   0.00000        0.60000        0.00000
Cl   0.00000       -0.60000        0.00000
}

set {
basis              cc-pvdz
reference          uks
maxiter            500
geom_maxiter       500
DAMPING_PERCENTAGE 1
guess              SAP
}

optimize('b3lyp')
--------------------------------------------------------------------------

    Molecular point group: c2v
  Charge       = 0
  Multiplicity = 1
  Basis Set: CC-PVDZ
    Blend: CC-PVDZ
  Basis Set: (CC-PVDZ AUX)
    Blend: CC-PVDZ-JKFIT
  @DF-UKS Final Energy:  -800.25375684881749
    Total Energy =                       -800.2537568488173747
 Dipole X            :          0.0000000            0.0000000            0.0000000
 Dipole Y            :          0.0000000            0.0000000            0.0000000
 Dipole Z            :         -1.0872190           -0.0695049           -1.1567239
 Magnitude           :                                                    1.1567239
    Molecular point group: c2v
  Basis Set: CC-PVDZ
    Blend: CC-PVDZ
  Basis Set: (CC-PVDZ AUX)
    Blend: CC-PVDZ-JKFIT
  Basis Set: CC-PVDZ
    Blend: CC-PVDZ
  Basis Set: (CC-PVDZ AUX)
    Blend: CC-PVDZ-JKFIT
  @DF-UKS Final Energy:  -800.29700338211910
    Total Energy =                       -800.2970033821191009
  Basis Set: CC-PVDZ
    Blend: CC-PVDZ
  Basis Set: (CC-PVDZ AUX)
    Blend: CC-PVDZ-JKFIT
  Basis Set: CC-PVDZ
    Blend: CC-PVDZ
  @DF-UKS Final Energy:  -800.37699112476230
    Total Energy =                       -800.3769911247622986
  @DF-UKS Final Energy:  -800.63507917867014
    Total Energy =                       -800.6350791786701393
  @DF-UKS Final Energy:  -801.15496421165767
    Total Energy =                       -801.1549642116576706
  @DF-UKS Final Energy:  -801.32862868781024
    Total Energy =                       -801.3286286878102374
  @DF-UKS Final Energy:  -801.43440105950424
    Total Energy =                       -801.4344010595042391
  @DF-UKS Final Energy:  -801.47517341688047
    Total Energy =                       -801.4751734168803523
  @DF-UKS Final Energy:  -801.49515829370353
    Total Energy =                       -801.4951582937034118
  @DF-UKS Final Energy:  -801.50382804928972
    Total Energy =                       -801.5038280492897229
  @DF-UKS Final Energy:  -801.50604290778813
    Total Energy =                       -801.5060429077881281
  @DF-UKS Final Energy:  -801.50679955633234
    Total Energy =                       -801.5067995563323393
  @DF-UKS Final Energy:  -801.50694559467138
    Total Energy =                       -801.5069455946713788
  Basis Set: (CC-PVDZ AUX)
    Blend: CC-PVDZ-JKFIT
  Basis Set: CC-PVDZ
    Blend: CC-PVDZ
  Basis Set: (CC-PVDZ AUX)
    Blend: CC-PVDZ-JKFIT
  @DF-UKS Final Energy:  -801.50697940899840
    Total Energy =                       -801.5069794089984043
  Basis Set: CC-PVDZ
    Blend: CC-PVDZ
  Basis Set: (CC-PVDZ AUX)
    Blend: CC-PVDZ-JKFIT
  Charge       = 0
  Multiplicity = 1
  Basis Set: CC-PVDZ
    Blend: CC-PVDZ
  Basis Set: (CC-PVDZ AUX)
    Blend: CC-PVDZ-JKFIT

    Orbital Energies [Eh]
    ---------------------

    Alpha Occupied:

       1A1  -101.573183     2A1   -77.146301     3A1    -9.491535
       4A1    -7.251668     1B2    -7.248068     1B1    -7.242880
       5A1    -6.610824     2B2    -4.779433     6A1    -4.774216
       2B1    -4.759935     7A1    -0.862051     8A1    -0.575793
       9A1    -0.382945     3B2    -0.372583     3B1    -0.363375
       4B1    -0.196402

    Alpha Virtual:

       4B2    -0.163783    10A1    -0.029825    11A1     0.295350
      12A1     0.371426     5B2     0.381304     5B1     0.402137
       6B2     0.414884     6B1     0.436235    13A1     0.450966
       1A2     0.456415    14A1     0.463087     7B2     0.548021
       7B1     0.558704    15A1     0.712312     2A2     0.712717
      16A1     0.721992    17A1     0.736498     8B2     0.839775
       8B1     0.854789    18A1     1.236967

    Beta Occupied:

       1A1  -101.573183     2A1   -77.146301     3A1    -9.491535
       4A1    -7.251668     1B2    -7.248068     1B1    -7.242880
       5A1    -6.610824     2B2    -4.779433     6A1    -4.774216
       2B1    -4.759935     7A1    -0.862051     8A1    -0.575793
       9A1    -0.382945     3B2    -0.372583     3B1    -0.363375
       4B1    -0.196402

    Beta Virtual:

       4B2    -0.163783    10A1    -0.029825    11A1     0.295350
      12A1     0.371426     5B2     0.381304     5B1     0.402137
       6B2     0.414884     6B1     0.436235    13A1     0.450966
       1A2     0.456415    14A1     0.463087     7B2     0.548021
       7B1     0.558704    15A1     0.712312     2A2     0.712717
      16A1     0.721992    17A1     0.736498     8B2     0.839775
       8B1     0.854789    18A1     1.236967

    Final Occupation by Irrep:
             A1    A2    B1    B2
    DOCC [     9,    0,    4,    3 ]
    SOCC [     0,    0,    0,    0 ]
    NA   [     9,    0,    4,    3 ]
    NB   [     9,    0,    4,    3 ]

  @DF-UKS Final Energy:  -801.50698328918156

   => Energetics <=

    Nuclear Repulsion Energy =             65.6967406265662106
    One-Electron Energy =               -1237.6730082082353874
    Two-Electron Energy =                 411.9115038084716502
    DFT Exchange-Correlation Energy =     -41.4422195159840427
    Empirical Dispersion Energy =           0.0000000000000000
    VV10 Nonlocal Energy =                  0.0000000000000000
    Total Energy =                       -801.5069832891814485

  UHF NO Occupations:
  HONO-2 :    4 B1 2.0000000
  HONO-1 :    8 A1 2.0000000
  HONO-0 :    9 A1 2.0000000
  LUNO+0 :   10 A1 0.0000000
  LUNO+1 :   11 A1 0.0000000
  LUNO+2 :   12 A1 0.0000000
  LUNO+3 :   13 A1 0.0000000

Computation Completed

Properties will be evaluated at   0.000000,   0.000000,   0.000000 [a0]

Properties computed using the SCF density matrix

 Multipole Moments:

 ------------------------------------------------------------------------------------
     Multipole            Electronic (a.u.)      Nuclear  (a.u.)        Total (a.u.)
 ------------------------------------------------------------------------------------

 L = 1.  Multiply by 2.5417464519 to convert [e a0] to [Debye]
 Dipole X            :          0.0000000            0.0000000            0.0000000
 Dipole Y            :          0.0000000            0.0000000            0.0000000
 Dipole Z            :          0.2925038           -0.1189684            0.1735354
 Magnitude           :                                                    0.1735354

 ------------------------------------------------------------------------------------

*** tstop() called on Joses-MacBook-Pro-2.local at Wed Jul 16 20:24:04 2025
Module time:
	user time   =       7.25 seconds =       0.12 minutes
	system time =       1.96 seconds =       0.03 minutes
	total time  =          1 seconds =       0.02 minutes
Total time:
	user time   =     173.90 seconds =       2.90 minutes
	system time =      44.87 seconds =       0.75 minutes
	total time  =         21 seconds =       0.35 minutes

*** tstart() called on Joses-MacBook-Pro-2.local
*** at Wed Jul 16 20:24:04 2025

         ------------------------------------------------------------
                                   SCF GRAD
                          Rob Parrish, Justin Turney,
                       Andy Simmonett, and Alex Sokolov
         ------------------------------------------------------------

  ==> Geometry <==

    Molecular point group: c2v
    Full point group: C_inf_v

    Geometry (in Angstrom), charge = 0, multiplicity = 1:

       Center              X                  Y                   Z               Mass
    ------------   -----------------  -----------------  -----------------  -----------------
         P            0.000000000000     0.000000000000     1.089212733091    30.973761998420
         CL           0.000000000000     0.000000000000    -0.964773316048    34.968852682000

  Nuclear repulsion =   65.696740626566211

  ==> Basis Set <==

  Basis Set: CC-PVDZ
    Blend: CC-PVDZ
    Number of shells: 16
    Number of basis functions: 36
    Number of Cartesian functions: 38
    Spherical Harmonics?: true
    Max angular momentum: 2

  ==> DFJKGrad: Density-Fitted SCF Gradients <==

    Gradient:                    1
    J tasked:                  Yes
    K tasked:                  Yes
    wK tasked:                  No
    OpenMP threads:              1
    Integrals threads:           1
    Memory [MiB]:              375
    Schwarz Cutoff:          1E-12
    Fitting Condition:       1E-10

   => Auxiliary Basis Set <=

  Basis Set: (CC-PVDZ AUX)
    Blend: CC-PVDZ-JKFIT
    Number of shells: 72
    Number of basis functions: 224
    Number of Cartesian functions: 260
    Spherical Harmonics?: true
    Max angular momentum: 3

  ==> DFT Potential <==

   => LibXC <=

    Version 6.2.2
    S. Lehtola, C. Steigemann, M. J.T. Oliveira, and M. A.L. Marques.,  SoftwareX 7, 1â€“5 (2018) (10.1016/j.softx.2017.11.002)

   => Composite Functional: B3LYP <=

    B3LYP Hyb-GGA Exchange-Correlation Functional

    P. J. Stephens, F. J. Devlin, C. F. Chabalowski, and M. J. Frisch.,  J. Phys. Chem. 98, 11623 (1994) (10.1021/j100096a001)

    Deriv               =              1
    GGA                 =           TRUE
    Meta                =          FALSE

    Exchange Hybrid     =           TRUE
    MP2 Hybrid          =          FALSE

   => Exchange Functionals <=

    0.0800   Slater exchange
    0.7200         Becke 88

   => Exact (HF) Exchange <=

    0.2000               HF

   => Correlation Functionals <=

    0.1900   Vosko, Wilk & Nusair (VWN5_RPA)
    0.8100   Lee, Yang & Parr

   => LibXC Density Thresholds  <==

    XC_HYB_GGA_XC_B3LYP:  1.00E-15

   => Molecular Quadrature <=

    Radial Scheme          =       TREUTLER
    Pruning Scheme         =           NONE
    Nuclear Scheme         =       TREUTLER

    Blocking Scheme        =         OCTREE
    BS radius alpha        =              1
    Pruning alpha          =              1
    Radial Points          =             75
    Spherical Points       =            302
    Total Points           =          40834
    Total Blocks           =            364
    Max Points             =            256
    Max Functions          =             36
    Weights Tolerance      =       1.00E-15

  -Total Gradient:
     Atom            X                  Y                   Z
    ------   -----------------  -----------------  -----------------
       1        0.000000000000     0.000000000000    -0.000227005162
       2        0.000000000000     0.000000000000     0.000243406945

*** tstop() called on Joses-MacBook-Pro-2.local at Wed Jul 16 20:24:05 2025
Module time:
	user time   =       2.41 seconds =       0.04 minutes
	system time =       1.72 seconds =       0.03 minutes
	total time  =          1 seconds =       0.02 minutes
Total time:
	user time   =     176.32 seconds =       2.94 minutes
	system time =      46.59 seconds =       0.78 minutes
	total time  =         22 seconds =       0.37 minutes

    			-----------------------------------------

    			 OPTKING 3.0: for geometry optimizations

    			     By R.A. King, Bethel University

    			        with contributions from

    			    A.V. Copan, J. Cayton, A. Heide

    			-----------------------------------------

	                            ===> Fragment 1 <==

	 Z (Atomic Numbers)          Masses                          Geom
	      15.000000            30.973762          0.00000000  0.00000000  2.05831376
	      17.000000            34.968853          0.00000000  0.00000000 -1.82315734

	 - Coordinate -           - BOHR/RAD -       - ANG/DEG -
	 R(1,2)           =         3.881471           2.053986

	        --- Internal Coordinate Step in ANG or DEG, aJ/ANG or AJ/DEG ---
	-------------------------------------------------------------------------------
	           Coordinate      Previous         Force          Change          New
	           ----------      --------        ------          ------        ------
	               R(1,2)       2.05399        0.00194        0.00061       2.05459
	-------------------------------------------------------------------------------

	                                 ==> Convergence Check <==

	Measures of convergence in internal coordinates in au.

	Criteria marked as inactive (o), active & met (*), and active & unmet ( ).

	----------------------------------------------------------------------------------------------
	   Step    Total Energy     Delta E     Max Force     RMS Force      Max Disp      RMS Disp
	----------------------------------------------------------------------------------------------
	  Convergence Criteria     1.00e-06 *    3.00e-04 *             o    1.20e-03 *             o
	----------------------------------------------------------------------------------------------
	    15    -801.50698329   -3.88e-06      2.35e-04 *    2.35e-04 o    1.15e-03 *    1.15e-03 o  ~
	----------------------------------------------------------------------------------------------

Next Geometry in Ang
	Fragment 1 (Ang)

	    P   0.0000000000   0.0000000000   1.0895159068
	   Cl   0.0000000000   0.0000000000  -0.9650764898

    Final optimized geometry and variables:
    Molecular point group: c2v
    Full point group: C_inf_v

    Geometry (in Angstrom), charge = 0, multiplicity = 1:

    P            0.000000000000     0.000000000000     1.089212733091
    CL           0.000000000000     0.000000000000    -0.964773316048

    Psi4 stopped on: Wednesday, 16 July 2025 08:24PM
    Psi4 wall time for execution: 0:00:22.12

*** Psi4 exiting successfully. Buy a developer a beer!
