                               Psi4 1.9.1 release

  ==> Input File <==

--------------------------------------------------------------------------
molecule {
0 1
Cl   0.00000        0.60000        0.00000
Cl   0.00000       -0.60000        0.00000
}

set {
basis              cc-pvdz
reference          uks
maxiter            500
geom_maxiter       500
DAMPING_PERCENTAGE 1
guess              SAP
}

optimize('b3lyp')
--------------------------------------------------------------------------

    Molecular point group: d2h
  Charge       = 0
  Multiplicity = 1
  Basis Set: CC-PVDZ
    Blend: CC-PVDZ
  Basis Set: (CC-PVDZ AUX)
    Blend: CC-PVDZ-JKFIT
  @DF-UKS Final Energy:  -919.11172182985979
    Total Energy =                       -919.1117218298597891
 Dipole X            :          0.0000000            0.0000000            0.0000000
 Dipole Y            :          0.0000000            0.0000000            0.0000000
 Dipole Z            :          0.0000000            0.0000000            0.0000000
 Magnitude           :                                                    0.0000000
    Molecular point group: d2h
  Basis Set: CC-PVDZ
    Blend: CC-PVDZ
  Basis Set: (CC-PVDZ AUX)
    Blend: CC-PVDZ-JKFIT
  Basis Set: CC-PVDZ
    Blend: CC-PVDZ
  Basis Set: (CC-PVDZ AUX)
    Blend: CC-PVDZ-JKFIT
  @DF-UKS Final Energy:  -919.16115195426175
    Total Energy =                       -919.1611519542617543
  Basis Set: CC-PVDZ
    Blend: CC-PVDZ
  Basis Set: (CC-PVDZ AUX)
    Blend: CC-PVDZ-JKFIT
  Basis Set: CC-PVDZ
    Blend: CC-PVDZ
  @DF-UKS Final Energy:  -919.25148843880197
    Total Energy =                       -919.2514884388019709
  @DF-UKS Final Energy:  -919.53458760729677
    Total Energy =                       -919.5345876072967712
  @DF-UKS Final Energy:  -920.03225026756945
    Total Energy =                       -920.0322502675694523
  @DF-UKS Final Energy:  -920.20529801268140
    Total Energy =                       -920.2052980126813964
  @DF-UKS Final Energy:  -920.31522583689195
    Total Energy =                       -920.3152258368919547
  @DF-UKS Final Energy:  -920.36066493858925
    Total Energy =                       -920.3606649385894798
  @DF-UKS Final Energy:  -920.38306067237579
    Total Energy =                       -920.3830606723759047
  @DF-UKS Final Energy:  -920.39294586762333
    Total Energy =                       -920.3929458676233253
  @DF-UKS Final Energy:  -920.39559088041051
    Total Energy =                       -920.3955908804105093
  @DF-UKS Final Energy:  -920.39655012145010
    Total Energy =                       -920.3965501214501046
  @DF-UKS Final Energy:  -920.39675049372784
    Total Energy =                       -920.3967504937277226
  @DF-UKS Final Energy:  -920.39680155217764
    Total Energy =                       -920.3968015521776351
  Basis Set: (CC-PVDZ AUX)
    Blend: CC-PVDZ-JKFIT
  Basis Set: CC-PVDZ
    Blend: CC-PVDZ
  Basis Set: (CC-PVDZ AUX)
    Blend: CC-PVDZ-JKFIT
  @DF-UKS Final Energy:  -920.39680828987321
    Total Energy =                       -920.3968082898732064
  Basis Set: CC-PVDZ
    Blend: CC-PVDZ
  Basis Set: (CC-PVDZ AUX)
    Blend: CC-PVDZ-JKFIT
  Charge       = 0
  Multiplicity = 1
  Basis Set: CC-PVDZ
    Blend: CC-PVDZ
  Basis Set: (CC-PVDZ AUX)
    Blend: CC-PVDZ-JKFIT

    Orbital Energies [Eh]
    ---------------------

    Alpha Occupied:

       1Ag  -101.596902     1B2u -101.596902     2B2u   -9.513090
       2Ag    -9.513037     3Ag    -7.279613     3B2u   -7.279511
       1B3u   -7.263951     1B1u   -7.263951     1B3g   -7.263945
       1B1g   -7.263945     4Ag    -0.926933     4B2u   -0.775148
       5Ag    -0.469457     2B3u   -0.402644     2B1u   -0.402644
       2B1g   -0.310252     2B3g   -0.310252

    Alpha Virtual:

       5B2u   -0.138518     6Ag     0.430233     6B2u    0.468647
       3B1u    0.495477     3B3u    0.495477     3B3g    0.550957
       3B1g    0.550957     7Ag     0.556874     4B1u    0.568314
       4B3u    0.568314     1B2g    0.678557     8Ag     0.678557
       7B2u    0.717362     1Au     0.724906     8B2u    0.724906
       9Ag     0.777753     4B3g    0.880109     4B1g    0.880109
       9B2u    1.328403

    Beta Occupied:

       1Ag  -101.596902     1B2u -101.596902     2B2u   -9.513090
       2Ag    -9.513037     3Ag    -7.279613     3B2u   -7.279511
       1B3u   -7.263951     1B1u   -7.263951     1B1g   -7.263945
       1B3g   -7.263945     4Ag    -0.926933     4B2u   -0.775148
       5Ag    -0.469457     2B3u   -0.402644     2B1u   -0.402644
       2B1g   -0.310252     2B3g   -0.310252

    Beta Virtual:

       5B2u   -0.138518     6Ag     0.430233     6B2u    0.468647
       3B1u    0.495477     3B3u    0.495477     3B3g    0.550957
       3B1g    0.550957     7Ag     0.556874     4B1u    0.568314
       4B3u    0.568314     1B2g    0.678557     8Ag     0.678557
       7B2u    0.717362     1Au     0.724906     8B2u    0.724906
       9Ag     0.777753     4B3g    0.880109     4B1g    0.880109
       9B2u    1.328403

    Final Occupation by Irrep:
             Ag   B1g   B2g   B3g    Au   B1u   B2u   B3u
    DOCC [     5,    2,    0,    2,    0,    2,    4,    2 ]
    SOCC [     0,    0,    0,    0,    0,    0,    0,    0 ]
    NA   [     5,    2,    0,    2,    0,    2,    4,    2 ]
    NB   [     5,    2,    0,    2,    0,    2,    4,    2 ]

  @DF-UKS Final Energy:  -920.39680860502244

   => Energetics <=

    Nuclear Repulsion Energy =             74.6744731556280215
    One-Electron Energy =               -1418.9560899609527951
    Two-Electron Energy =                 469.3742178232620859
    DFT Exchange-Correlation Energy =     -45.4894096229598262
    Empirical Dispersion Energy =           0.0000000000000000
    VV10 Nonlocal Energy =                  0.0000000000000000
    Total Energy =                       -920.3968086050224429

  UHF NO Occupations:
  HONO-2 :    3B2u 2.0000000
  HONO-1 :    2B1g 2.0000000
  HONO-0 :    4B2u 2.0000000
  LUNO+0 :    5B2u 0.0000000
  LUNO+1 :    3B1g 0.0000000
  LUNO+2 :    6B2u 0.0000000
  LUNO+3 :    6 Ag 0.0000000

Computation Completed

Properties will be evaluated at   0.000000,   0.000000,   0.000000 [a0]

Properties computed using the SCF density matrix

 Multipole Moments:

 ------------------------------------------------------------------------------------
     Multipole            Electronic (a.u.)      Nuclear  (a.u.)        Total (a.u.)
 ------------------------------------------------------------------------------------

 L = 1.  Multiply by 2.5417464519 to convert [e a0] to [Debye]
 Dipole X            :          0.0000000            0.0000000            0.0000000
 Dipole Y            :          0.0000000            0.0000000            0.0000000
 Dipole Z            :          0.0000000            0.0000000            0.0000000
 Magnitude           :                                                    0.0000000

 ------------------------------------------------------------------------------------

*** tstop() called on Joses-MacBook-Pro-2.local at Wed Jul 16 20:32:13 2025
Module time:
	user time   =       5.71 seconds =       0.10 minutes
	system time =       1.79 seconds =       0.03 minutes
	total time  =          1 seconds =       0.02 minutes
Total time:
	user time   =     154.00 seconds =       2.57 minutes
	system time =      54.87 seconds =       0.91 minutes
	total time  =         20 seconds =       0.33 minutes

*** tstart() called on Joses-MacBook-Pro-2.local
*** at Wed Jul 16 20:32:13 2025

         ------------------------------------------------------------
                                   SCF GRAD
                          Rob Parrish, Justin Turney,
                       Andy Simmonett, and Alex Sokolov
         ------------------------------------------------------------

  ==> Geometry <==

    Molecular point group: d2h
    Full point group: D_inf_h

    Geometry (in Angstrom), charge = 0, multiplicity = 1:

       Center              X                  Y                   Z               Mass
    ------------   -----------------  -----------------  -----------------  -----------------
         CL          -0.000000000000     1.023992586897     0.000000000000    34.968852682000
         CL           0.000000000000    -1.023992586897     0.000000000000    34.968852682000

  Nuclear repulsion =   74.674473155628021

  ==> Basis Set <==

  Basis Set: CC-PVDZ
    Blend: CC-PVDZ
    Number of shells: 16
    Number of basis functions: 36
    Number of Cartesian functions: 38
    Spherical Harmonics?: true
    Max angular momentum: 2

  ==> DFJKGrad: Density-Fitted SCF Gradients <==

    Gradient:                    1
    J tasked:                  Yes
    K tasked:                  Yes
    wK tasked:                  No
    OpenMP threads:              1
    Integrals threads:           1
    Memory [MiB]:              375
    Schwarz Cutoff:          1E-12
    Fitting Condition:       1E-10

   => Auxiliary Basis Set <=

  Basis Set: (CC-PVDZ AUX)
    Blend: CC-PVDZ-JKFIT
    Number of shells: 72
    Number of basis functions: 224
    Number of Cartesian functions: 260
    Spherical Harmonics?: true
    Max angular momentum: 3

  ==> DFT Potential <==

   => LibXC <=

    Version 6.2.2
    S. Lehtola, C. Steigemann, M. J.T. Oliveira, and M. A.L. Marques.,  SoftwareX 7, 1â€“5 (2018) (10.1016/j.softx.2017.11.002)

   => Composite Functional: B3LYP <=

    B3LYP Hyb-GGA Exchange-Correlation Functional

    P. J. Stephens, F. J. Devlin, C. F. Chabalowski, and M. J. Frisch.,  J. Phys. Chem. 98, 11623 (1994) (10.1021/j100096a001)

    Deriv               =              1
    GGA                 =           TRUE
    Meta                =          FALSE

    Exchange Hybrid     =           TRUE
    MP2 Hybrid          =          FALSE

   => Exchange Functionals <=

    0.0800   Slater exchange
    0.7200         Becke 88

   => Exact (HF) Exchange <=

    0.2000               HF

   => Correlation Functionals <=

    0.1900   Vosko, Wilk & Nusair (VWN5_RPA)
    0.8100   Lee, Yang & Parr

   => LibXC Density Thresholds  <==

    XC_HYB_GGA_XC_B3LYP:  1.00E-15

   => Molecular Quadrature <=

    Radial Scheme          =       TREUTLER
    Pruning Scheme         =           NONE
    Nuclear Scheme         =       TREUTLER

    Blocking Scheme        =         OCTREE
    BS radius alpha        =              1
    Pruning alpha          =              1
    Radial Points          =             75
    Spherical Points       =            302
    Total Points           =          39654
    Total Blocks           =            368
    Max Points             =            251
    Max Functions          =             36
    Weights Tolerance      =       1.00E-15

  -Total Gradient:
     Atom            X                  Y                   Z
    ------   -----------------  -----------------  -----------------
       1        0.000000000000    -0.000045555682     0.000000000000
       2       -0.000000000000     0.000045555682     0.000000000000

*** tstop() called on Joses-MacBook-Pro-2.local at Wed Jul 16 20:32:13 2025
Module time:
	user time   =       2.36 seconds =       0.04 minutes
	system time =       0.89 seconds =       0.01 minutes
	total time  =          0 seconds =       0.00 minutes
Total time:
	user time   =     156.36 seconds =       2.61 minutes
	system time =      55.76 seconds =       0.93 minutes
	total time  =         20 seconds =       0.33 minutes

    			-----------------------------------------

    			 OPTKING 3.0: for geometry optimizations

    			     By R.A. King, Bethel University

    			        with contributions from

    			    A.V. Copan, J. Cayton, A. Heide

    			-----------------------------------------

	                            ===> Fragment 1 <==

	 Z (Atomic Numbers)          Masses                          Geom
	      17.000000            34.968853         -0.00000000  1.93506554  0.00000000
	      17.000000            34.968853          0.00000000 -1.93506554  0.00000000

	 - Coordinate -           - BOHR/RAD -       - ANG/DEG -
	 R(1,2)           =         3.870131           2.047985

	        --- Internal Coordinate Step in ANG or DEG, aJ/ANG or AJ/DEG ---
	-------------------------------------------------------------------------------
	           Coordinate      Previous         Force          Change          New
	           ----------      --------        ------          ------        ------
	               R(1,2)       2.04799        0.00038        0.00012       2.04811
	-------------------------------------------------------------------------------

	                                 ==> Convergence Check <==

	Measures of convergence in internal coordinates in au.

	Criteria marked as inactive (o), active & met (*), and active & unmet ( ).

	----------------------------------------------------------------------------------------------
	   Step    Total Energy     Delta E     Max Force     RMS Force      Max Disp      RMS Disp
	----------------------------------------------------------------------------------------------
	  Convergence Criteria     1.00e-06 *    3.00e-04 *             o    1.20e-03 *             o
	----------------------------------------------------------------------------------------------
	    16    -920.39680861   -3.15e-07 *    4.56e-05 *    4.56e-05 o    2.34e-04 *    2.34e-04 o  ~
	----------------------------------------------------------------------------------------------

Next Geometry in Ang
	Fragment 1 (Ang)

	   Cl  -0.0000000000   1.0240546102   0.0000000000
	   Cl   0.0000000000  -1.0240546102   0.0000000000

    Final optimized geometry and variables:
    Molecular point group: d2h
    Full point group: D_inf_h

    Geometry (in Angstrom), charge = 0, multiplicity = 1:

    CL          -0.000000000000     1.023992586897     0.000000000000
    CL           0.000000000000    -1.023992586897     0.000000000000

    Psi4 stopped on: Wednesday, 16 July 2025 08:32PM
    Psi4 wall time for execution: 0:00:20.68

*** Psi4 exiting successfully. Buy a developer a beer!
