                               Psi4 1.9.1 release

  ==> Input File <==

--------------------------------------------------------------------------
molecule {
0 1
B   0.00000        0.60000        0.00000
Al   0.00000       -0.60000        0.00000
}

set {
basis              cc-pvdz
reference          uks
maxiter            500
geom_maxiter       500
DAMPING_PERCENTAGE 1
guess              SAP
}

optimize('b3lyp')
--------------------------------------------------------------------------

    Molecular point group: c2v
  Charge       = 0
  Multiplicity = 1
  Basis Set: CC-PVDZ
    Blend: CC-PVDZ
  Basis Set: (CC-PVDZ AUX)
    Blend: CC-PVDZ-JKFIT
  @DF-UKS Final Energy:  -266.55615026063947
    Total Energy =                       -266.5561502606394697
 Dipole X            :          0.0000000            0.0000000            0.0000000
 Dipole Y            :          0.0000000            0.0000000            0.0000000
 Dipole Z            :         -0.7560341           -0.4902500           -1.2462842
 Magnitude           :                                                    1.2462842
    Molecular point group: c2v
  Basis Set: CC-PVDZ
    Blend: CC-PVDZ
  Basis Set: (CC-PVDZ AUX)
    Blend: CC-PVDZ-JKFIT
  Basis Set: CC-PVDZ
    Blend: CC-PVDZ
  Basis Set: (CC-PVDZ AUX)
    Blend: CC-PVDZ-JKFIT
  @DF-UKS Final Energy:  -266.69705945125685
    Total Energy =                       -266.6970594512568482
  Basis Set: CC-PVDZ
    Blend: CC-PVDZ
  Basis Set: (CC-PVDZ AUX)
    Blend: CC-PVDZ-JKFIT
  Basis Set: CC-PVDZ
    Blend: CC-PVDZ
  @DF-UKS Final Energy:  -266.88395058562389
    Total Energy =                       -266.8839505856238929
  @DF-UKS Final Energy:  -267.02791603980023
    Total Energy =                       -267.0279160398002318
  @DF-UKS Final Energy:  -267.05964849648666
    Total Energy =                       -267.0596484964866590
  @DF-UKS Final Energy:  -267.07450420973464
    Total Energy =                       -267.0745042097346413
  @DF-UKS Final Energy:  -267.07802562435626
    Total Energy =                       -267.0780256243562576
  @DF-UKS Final Energy:  -267.07920958844772
    Total Energy =                       -267.0792095884477249
  @DF-UKS Final Energy:  -267.07943167492328
    Total Energy =                       -267.0794316749232848
  @DF-UKS Final Energy:  -267.07948542845969
    Total Energy =                       -267.0794854284596909
  Basis Set: (CC-PVDZ AUX)
    Blend: CC-PVDZ-JKFIT
  Basis Set: CC-PVDZ
    Blend: CC-PVDZ
  Basis Set: (CC-PVDZ AUX)
    Blend: CC-PVDZ-JKFIT
  @DF-UKS Final Energy:  -267.07949002049673
    Total Energy =                       -267.0794900204967348
  Basis Set: CC-PVDZ
    Blend: CC-PVDZ
  Basis Set: (CC-PVDZ AUX)
    Blend: CC-PVDZ-JKFIT
  Charge       = 0
  Multiplicity = 1
  Basis Set: CC-PVDZ
    Blend: CC-PVDZ
  Basis Set: (CC-PVDZ AUX)
    Blend: CC-PVDZ-JKFIT

    Orbital Energies [Eh]
    ---------------------

    Alpha Occupied:

       1A1   -56.086798     2A1    -6.835051     3A1    -4.166264
       1B1    -2.720967     4A1    -2.719005     1B2    -2.715293
       5A1    -0.437456     6A1    -0.274439     2B2    -0.168818

    Alpha Virtual:

       7A1    -0.128925     2B1    -0.127551     3B1    -0.031292
       3B2    -0.030464     8A1     0.049647     9A1     0.165151
       4B1     0.208254     4B2     0.214708    10A1     0.246100
       1A2     0.260639    11A1     0.262495    12A1     0.263157
       5B1     0.306683     5B2     0.315221     6B1     0.328436
       6B2     0.332147    13A1     0.553175    14A1     0.587687
       2A2     0.728569    15A1     0.733085     7B1     0.859804
       7B2     0.872098    16A1     1.078528

    Beta Occupied:

       1A1   -56.086798     2A1    -6.835051     3A1    -4.166264
       1B1    -2.720967     4A1    -2.719005     1B2    -2.715293
       5A1    -0.437456     6A1    -0.274439     2B2    -0.168818

    Beta Virtual:

       7A1    -0.128925     2B1    -0.127551     3B1    -0.031292
       3B2    -0.030464     8A1     0.049647     9A1     0.165151
       4B1     0.208254     4B2     0.214708    10A1     0.246100
       1A2     0.260639    11A1     0.262495    12A1     0.263157
       5B1     0.306683     5B2     0.315221     6B1     0.328436
       6B2     0.332147    13A1     0.553175    14A1     0.587687
       2A2     0.728569    15A1     0.733085     7B1     0.859804
       7B2     0.872098    16A1     1.078528

    Final Occupation by Irrep:
             A1    A2    B1    B2
    DOCC [     6,    0,    1,    2 ]
    SOCC [     0,    0,    0,    0 ]
    NA   [     6,    0,    1,    2 ]
    NB   [     6,    0,    1,    2 ]

  @DF-UKS Final Energy:  -267.07949044437021

   => Energetics <=

    Nuclear Repulsion Energy =             16.3395513851844996
    One-Electron Energy =                -401.6058313225462371
    Two-Electron Energy =                 136.3421700275355875
    DFT Exchange-Correlation Energy =     -18.1553805345440793
    Empirical Dispersion Energy =           0.0000000000000000
    VV10 Nonlocal Energy =                  0.0000000000000000
    Total Energy =                       -267.0794904443702080

  UHF NO Occupations:
  HONO-2 :    5 A1 2.0000000
  HONO-1 :    6 A1 2.0000000
  HONO-0 :    2 B2 2.0000000
  LUNO+0 :    7 A1 0.0000000
  LUNO+1 :    8 A1 0.0000000
  LUNO+2 :    9 A1 0.0000000
  LUNO+3 :    3 B2 0.0000000

Computation Completed

Properties will be evaluated at   0.000000,   0.000000,   0.000000 [a0]

Properties computed using the SCF density matrix

 Multipole Moments:

 ------------------------------------------------------------------------------------
     Multipole            Electronic (a.u.)      Nuclear  (a.u.)        Total (a.u.)
 ------------------------------------------------------------------------------------

 L = 1.  Multiply by 2.5417464519 to convert [e a0] to [Debye]
 Dipole X            :          0.0000000            0.0000000            0.0000000
 Dipole Y            :          0.0000000            0.0000000            0.0000000
 Dipole Z            :          0.2401393           -0.8600244           -0.6198851
 Magnitude           :                                                    0.6198851

 ------------------------------------------------------------------------------------

*** tstop() called on Joses-MacBook-Pro-2.local at Wed Jul 16 18:54:06 2025
Module time:
	user time   =       2.60 seconds =       0.04 minutes
	system time =       3.83 seconds =       0.06 minutes
	total time  =          1 seconds =       0.02 minutes
Total time:
	user time   =      52.02 seconds =       0.87 minutes
	system time =      83.57 seconds =       1.39 minutes
	total time  =         15 seconds =       0.25 minutes

*** tstart() called on Joses-MacBook-Pro-2.local
*** at Wed Jul 16 18:54:06 2025

         ------------------------------------------------------------
                                   SCF GRAD
                          Rob Parrish, Justin Turney,
                       Andy Simmonett, and Alex Sokolov
         ------------------------------------------------------------

  ==> Geometry <==

    Molecular point group: c2v
    Full point group: C_inf_v

    Geometry (in Angstrom), charge = 0, multiplicity = 1:

       Center              X                  Y                   Z               Mass
    ------------   -----------------  -----------------  -----------------  -----------------
         B            0.000000000000     0.000000000000     1.495072077415    11.009305360000
         AL           0.000000000000     0.000000000000    -0.610035821981    26.981538530000

  Nuclear repulsion =   16.339551385184500

  ==> Basis Set <==

  Basis Set: CC-PVDZ
    Blend: CC-PVDZ
    Number of shells: 14
    Number of basis functions: 32
    Number of Cartesian functions: 34
    Spherical Harmonics?: true
    Max angular momentum: 2

  ==> DFJKGrad: Density-Fitted SCF Gradients <==

    Gradient:                    1
    J tasked:                  Yes
    K tasked:                  Yes
    wK tasked:                  No
    OpenMP threads:              1
    Integrals threads:           1
    Memory [MiB]:              375
    Schwarz Cutoff:          1E-12
    Fitting Condition:       1E-10

   => Auxiliary Basis Set <=

  Basis Set: (CC-PVDZ AUX)
    Blend: CC-PVDZ-JKFIT
    Number of shells: 60
    Number of basis functions: 182
    Number of Cartesian functions: 211
    Spherical Harmonics?: true
    Max angular momentum: 3

  ==> DFT Potential <==

   => LibXC <=

    Version 6.2.2
    S. Lehtola, C. Steigemann, M. J.T. Oliveira, and M. A.L. Marques.,  SoftwareX 7, 1â€“5 (2018) (10.1016/j.softx.2017.11.002)

   => Composite Functional: B3LYP <=

    B3LYP Hyb-GGA Exchange-Correlation Functional

    P. J. Stephens, F. J. Devlin, C. F. Chabalowski, and M. J. Frisch.,  J. Phys. Chem. 98, 11623 (1994) (10.1021/j100096a001)

    Deriv               =              1
    GGA                 =           TRUE
    Meta                =          FALSE

    Exchange Hybrid     =           TRUE
    MP2 Hybrid          =          FALSE

   => Exchange Functionals <=

    0.0800   Slater exchange
    0.7200         Becke 88

   => Exact (HF) Exchange <=

    0.2000               HF

   => Correlation Functionals <=

    0.1900   Vosko, Wilk & Nusair (VWN5_RPA)
    0.8100   Lee, Yang & Parr

   => LibXC Density Thresholds  <==

    XC_HYB_GGA_XC_B3LYP:  1.00E-15

   => Molecular Quadrature <=

    Radial Scheme          =       TREUTLER
    Pruning Scheme         =           NONE
    Nuclear Scheme         =       TREUTLER

    Blocking Scheme        =         OCTREE
    BS radius alpha        =              1
    Pruning alpha          =              1
    Radial Points          =             75
    Spherical Points       =            302
    Total Points           =          42978
    Total Blocks           =            398
    Max Points             =            256
    Max Functions          =             32
    Weights Tolerance      =       1.00E-15

  -Total Gradient:
     Atom            X                  Y                   Z
    ------   -----------------  -----------------  -----------------
       1        0.000000000000     0.000000000000    -0.000056245843
       2        0.000000000000     0.000000000000     0.000046558639

*** tstop() called on Joses-MacBook-Pro-2.local at Wed Jul 16 18:54:06 2025
Module time:
	user time   =       1.10 seconds =       0.02 minutes
	system time =       1.60 seconds =       0.03 minutes
	total time  =          0 seconds =       0.00 minutes
Total time:
	user time   =      53.12 seconds =       0.89 minutes
	system time =      85.18 seconds =       1.42 minutes
	total time  =         15 seconds =       0.25 minutes

    			-----------------------------------------

    			 OPTKING 3.0: for geometry optimizations

    			     By R.A. King, Bethel University

    			        with contributions from

    			    A.V. Copan, J. Cayton, A. Heide

    			-----------------------------------------

	                            ===> Fragment 1 <==

	 Z (Atomic Numbers)          Masses                          Geom
	       5.000000            11.009305          0.00000000  0.00000000  2.82527676
	      13.000000            26.981539          0.00000000  0.00000000 -1.15280063

	 - Coordinate -           - BOHR/RAD -       - ANG/DEG -
	 R(1,2)           =         3.978077           2.105108

	        --- Internal Coordinate Step in ANG or DEG, aJ/ANG or AJ/DEG ---
	-------------------------------------------------------------------------------
	           Coordinate      Previous         Force          Change          New
	           ----------      --------        ------          ------        ------
	               R(1,2)       2.10511        0.00042        0.00029       2.10540
	-------------------------------------------------------------------------------

	                                 ==> Convergence Check <==

	Measures of convergence in internal coordinates in au.

	Criteria marked as inactive (o), active & met (*), and active & unmet ( ).

	----------------------------------------------------------------------------------------------
	   Step    Total Energy     Delta E     Max Force     RMS Force      Max Disp      RMS Disp
	----------------------------------------------------------------------------------------------
	  Convergence Criteria     1.00e-06 *    3.00e-04 *             o    1.20e-03 *             o
	----------------------------------------------------------------------------------------------
	    12    -267.07949044   -4.24e-07 *    5.14e-05 *    5.14e-05 o    5.44e-04 *    5.44e-04 o  ~
	----------------------------------------------------------------------------------------------

Next Geometry in Ang
	Fragment 1 (Ang)

	    B   0.0000000000   0.0000000000   1.4952160670
	   Al   0.0000000000   0.0000000000  -0.6101798115

    Final optimized geometry and variables:
    Molecular point group: c2v
    Full point group: C_inf_v

    Geometry (in Angstrom), charge = 0, multiplicity = 1:

    B            0.000000000000     0.000000000000     1.495072077415
    AL           0.000000000000     0.000000000000    -0.610035821981

    Psi4 stopped on: Wednesday, 16 July 2025 06:54PM
    Psi4 wall time for execution: 0:00:15.61

*** Psi4 exiting successfully. Buy a developer a beer!
