                               Psi4 1.9.1 release

  ==> Input File <==

--------------------------------------------------------------------------
molecule {
0 1
Li   0.00000        0.60000        0.00000
Cl   0.00000       -0.60000        0.00000
}

set {
basis              cc-pvdz
reference          uks
maxiter            500
geom_maxiter       500
DAMPING_PERCENTAGE 1
guess              SAP
}

optimize('b3lyp')
--------------------------------------------------------------------------

    Molecular point group: c2v
  Charge       = 0
  Multiplicity = 1
  Basis Set: CC-PVDZ
    Blend: CC-PVDZ
  Basis Set: (CC-PVDZ AUX)
    Blend: CC-PVDZ-JKFIT + DEF2-UNIVERSAL-JKFIT
  @DF-UKS Final Energy:  -467.35160401076450
    Total Energy =                       -467.3516040107645040
 Dipole X            :          0.0000000            0.0000000            0.0000000
 Dipole Y            :          0.0000000            0.0000000            0.0000000
 Dipole Z            :          2.4087976           -0.7759044            1.6328932
 Magnitude           :                                                    1.6328932
    Molecular point group: c2v
  Basis Set: CC-PVDZ
    Blend: CC-PVDZ
  Basis Set: (CC-PVDZ AUX)
    Blend: CC-PVDZ-JKFIT + DEF2-UNIVERSAL-JKFIT
  Basis Set: CC-PVDZ
    Blend: CC-PVDZ
  Basis Set: (CC-PVDZ AUX)
    Blend: CC-PVDZ-JKFIT + DEF2-UNIVERSAL-JKFIT
  @DF-UKS Final Energy:  -467.54694018215895
    Total Energy =                       -467.5469401821589486
  Basis Set: CC-PVDZ
    Blend: CC-PVDZ
  Basis Set: (CC-PVDZ AUX)
    Blend: CC-PVDZ-JKFIT + DEF2-UNIVERSAL-JKFIT
  Basis Set: CC-PVDZ
    Blend: CC-PVDZ
  @DF-UKS Final Energy:  -467.68932966910955
    Total Energy =                       -467.6893296691095543
  @DF-UKS Final Energy:  -467.76848316649364
    Total Energy =                       -467.7684831664936382
  @DF-UKS Final Energy:  -467.80189193276965
    Total Energy =                       -467.8018919327696494
  @DF-UKS Final Energy:  -467.81515762262131
    Total Energy =                       -467.8151576226214274
  @DF-UKS Final Energy:  -467.81911591560697
    Total Energy =                       -467.8191159156069716
  @DF-UKS Final Energy:  -467.81973763791888
    Total Energy =                       -467.8197376379188768
  @DF-UKS Final Energy:  -467.81984542076407
    Total Energy =                       -467.8198454207640680
  @DF-UKS Final Energy:  -467.81986795073044
    Total Energy =                       -467.8198679507304405
  Basis Set: (CC-PVDZ AUX)
    Blend: CC-PVDZ-JKFIT + DEF2-UNIVERSAL-JKFIT
  Basis Set: CC-PVDZ
    Blend: CC-PVDZ
  Basis Set: (CC-PVDZ AUX)
    Blend: CC-PVDZ-JKFIT + DEF2-UNIVERSAL-JKFIT
  @DF-UKS Final Energy:  -467.81986950826473
    Total Energy =                       -467.8198695082647305
  Basis Set: CC-PVDZ
    Blend: CC-PVDZ
  Basis Set: (CC-PVDZ AUX)
    Blend: CC-PVDZ-JKFIT + DEF2-UNIVERSAL-JKFIT
  Charge       = 0
  Multiplicity = 1
  Basis Set: CC-PVDZ
    Blend: CC-PVDZ
  Basis Set: (CC-PVDZ AUX)
    Blend: CC-PVDZ-JKFIT + DEF2-UNIVERSAL-JKFIT

    Orbital Energies [Eh]
    ---------------------

    Alpha Occupied:

       1A1  -101.442898     2A1    -9.360701     3A1    -7.117659
       1B1    -7.116449     1B2    -7.116449     4A1    -2.045273
       5A1    -0.710856     6A1    -0.272007     2B1    -0.247767
       2B2    -0.247767

    Alpha Virtual:

       7A1    -0.060233     3B2     0.001706     3B1     0.001706
       8A1     0.030416     4B2     0.081737     4B1     0.081737
       9A1     0.082903    10A1     0.189277    11A1     0.233648
       1A2     0.233649     5B2     0.275786     5B1     0.275786
      12A1     0.379806     6B1     0.673400     6B2     0.673400
      13A1     0.706124    14A1     0.811691    15A1     0.832082
       2A2     0.832084     7B1     0.916667     7B2     0.916667
      16A1     1.325942

    Beta Occupied:

       1A1  -101.442898     2A1    -9.360701     3A1    -7.117659
       1B1    -7.116449     1B2    -7.116449     4A1    -2.045273
       5A1    -0.710856     6A1    -0.272007     2B1    -0.247767
       2B2    -0.247767

    Beta Virtual:

       7A1    -0.060233     3B2     0.001706     3B1     0.001706
       8A1     0.030416     4B2     0.081737     4B1     0.081737
       9A1     0.082903    10A1     0.189277    11A1     0.233648
       1A2     0.233649     5B2     0.275786     5B1     0.275786
      12A1     0.379806     6B1     0.673400     6B2     0.673400
      13A1     0.706124    14A1     0.811691    15A1     0.832082
       2A2     0.832084     7B1     0.916667     7B2     0.916667
      16A1     1.325942

    Final Occupation by Irrep:
             A1    A2    B1    B2
    DOCC [     6,    0,    2,    2 ]
    SOCC [     0,    0,    0,    0 ]
    NA   [     6,    0,    2,    2 ]
    NB   [     6,    0,    2,    2 ]

  @DF-UKS Final Energy:  -467.81986962307332

   => Energetics <=

    Nuclear Repulsion Energy =             13.0906789078709362
    One-Electron Energy =                -673.1561171789895752
    Two-Electron Energy =                 216.5784011676739453
    DFT Exchange-Correlation Energy =     -24.3328325196286173
    Empirical Dispersion Energy =           0.0000000000000000
    VV10 Nonlocal Energy =                  0.0000000000000000
    Total Energy =                       -467.8198696230732594

  UHF NO Occupations:
  HONO-2 :    2 B1 2.0000000
  HONO-1 :    5 A1 2.0000000
  HONO-0 :    6 A1 2.0000000
  LUNO+0 :    3 B1 0.0000000
  LUNO+1 :    7 A1 0.0000000
  LUNO+2 :    8 A1 0.0000000
  LUNO+3 :    3 B2 0.0000000

Computation Completed

Properties will be evaluated at   0.000000,   0.000000,   0.000000 [a0]

Properties computed using the SCF density matrix

 Multipole Moments:

 ------------------------------------------------------------------------------------
     Multipole            Electronic (a.u.)      Nuclear  (a.u.)        Total (a.u.)
 ------------------------------------------------------------------------------------

 L = 1.  Multiply by 2.5417464519 to convert [e a0] to [Debye]
 Dipole X            :          0.0000000            0.0000000            0.0000000
 Dipole Y            :          0.0000000            0.0000000            0.0000000
 Dipole Z            :          4.0644968           -1.3330182            2.7314786
 Magnitude           :                                                    2.7314786

 ------------------------------------------------------------------------------------

*** tstop() called on Joses-MacBook-Pro-2.local at Wed Jul 16 18:37:16 2025
Module time:
	user time   =       2.79 seconds =       0.05 minutes
	system time =       3.13 seconds =       0.05 minutes
	total time  =          0 seconds =       0.00 minutes
Total time:
	user time   =      52.73 seconds =       0.88 minutes
	system time =      61.27 seconds =       1.02 minutes
	total time  =         11 seconds =       0.18 minutes

*** tstart() called on Joses-MacBook-Pro-2.local
*** at Wed Jul 16 18:37:16 2025

         ------------------------------------------------------------
                                   SCF GRAD
                          Rob Parrish, Justin Turney,
                       Andy Simmonett, and Alex Sokolov
         ------------------------------------------------------------

  ==> Geometry <==

    Molecular point group: c2v
    Full point group: C_inf_v

    Geometry (in Angstrom), charge = 0, multiplicity = 1:

       Center              X                  Y                   Z               Mass
    ------------   -----------------  -----------------  -----------------  -----------------
         LI           0.000000000000     0.000000000000     1.717108953029     7.016003436600
         CL           0.000000000000     0.000000000000    -0.344513513927    34.968852682000

  Nuclear repulsion =   13.090678907870936

  ==> Basis Set <==

  Basis Set: CC-PVDZ
    Blend: CC-PVDZ
    Number of shells: 14
    Number of basis functions: 32
    Number of Cartesian functions: 34
    Spherical Harmonics?: true
    Max angular momentum: 2

  ==> DFJKGrad: Density-Fitted SCF Gradients <==

    Gradient:                    1
    J tasked:                  Yes
    K tasked:                  Yes
    wK tasked:                  No
    OpenMP threads:              1
    Integrals threads:           1
    Memory [MiB]:              375
    Schwarz Cutoff:          1E-12
    Fitting Condition:       1E-10

   => Auxiliary Basis Set <=

  Basis Set: (CC-PVDZ AUX)
    Blend: CC-PVDZ-JKFIT + DEF2-UNIVERSAL-JKFIT
    Number of shells: 53
    Number of basis functions: 163
    Number of Cartesian functions: 190
    Spherical Harmonics?: true
    Max angular momentum: 3

  ==> DFT Potential <==

   => LibXC <=

    Version 6.2.2
    S. Lehtola, C. Steigemann, M. J.T. Oliveira, and M. A.L. Marques.,  SoftwareX 7, 1â€“5 (2018) (10.1016/j.softx.2017.11.002)

   => Composite Functional: B3LYP <=

    B3LYP Hyb-GGA Exchange-Correlation Functional

    P. J. Stephens, F. J. Devlin, C. F. Chabalowski, and M. J. Frisch.,  J. Phys. Chem. 98, 11623 (1994) (10.1021/j100096a001)

    Deriv               =              1
    GGA                 =           TRUE
    Meta                =          FALSE

    Exchange Hybrid     =           TRUE
    MP2 Hybrid          =          FALSE

   => Exchange Functionals <=

    0.0800   Slater exchange
    0.7200         Becke 88

   => Exact (HF) Exchange <=

    0.2000               HF

   => Correlation Functionals <=

    0.1900   Vosko, Wilk & Nusair (VWN5_RPA)
    0.8100   Lee, Yang & Parr

   => LibXC Density Thresholds  <==

    XC_HYB_GGA_XC_B3LYP:  1.00E-15

   => Molecular Quadrature <=

    Radial Scheme          =       TREUTLER
    Pruning Scheme         =           NONE
    Nuclear Scheme         =       TREUTLER

    Blocking Scheme        =         OCTREE
    BS radius alpha        =              1
    Pruning alpha          =              1
    Radial Points          =             75
    Spherical Points       =            302
    Total Points           =          44329
    Total Blocks           =            438
    Max Points             =            256
    Max Functions          =             32
    Weights Tolerance      =       1.00E-15

  -Total Gradient:
     Atom            X                  Y                   Z
    ------   -----------------  -----------------  -----------------
       1       -0.000000000000     0.000000000000     0.000010459680
       2        0.000000000000     0.000000000000     0.000045083354

*** tstop() called on Joses-MacBook-Pro-2.local at Wed Jul 16 18:37:17 2025
Module time:
	user time   =       0.91 seconds =       0.02 minutes
	system time =       1.55 seconds =       0.03 minutes
	total time  =          1 seconds =       0.02 minutes
Total time:
	user time   =      53.64 seconds =       0.89 minutes
	system time =      62.82 seconds =       1.05 minutes
	total time  =         12 seconds =       0.20 minutes

    			-----------------------------------------

    			 OPTKING 3.0: for geometry optimizations

    			     By R.A. King, Bethel University

    			        with contributions from

    			    A.V. Copan, J. Cayton, A. Heide

    			-----------------------------------------

	                            ===> Fragment 1 <==

	 Z (Atomic Numbers)          Masses                          Geom
	       3.000000             7.016003          0.00000000  0.00000000  3.24486565
	      17.000000            34.968853          0.00000000  0.00000000 -0.65103619

	 - Coordinate -           - BOHR/RAD -       - ANG/DEG -
	 R(1,2)           =         3.895902           2.061622

	        --- Internal Coordinate Step in ANG or DEG, aJ/ANG or AJ/DEG ---
	-------------------------------------------------------------------------------
	           Coordinate      Previous         Force          Change          New
	           ----------      --------        ------          ------        ------
	               R(1,2)       2.06162        0.00014        0.00010       2.06172
	-------------------------------------------------------------------------------

	                                 ==> Convergence Check <==

	Measures of convergence in internal coordinates in au.

	Criteria marked as inactive (o), active & met (*), and active & unmet ( ).

	----------------------------------------------------------------------------------------------
	   Step    Total Energy     Delta E     Max Force     RMS Force      Max Disp      RMS Disp
	----------------------------------------------------------------------------------------------
	  Convergence Criteria     1.00e-06 *    3.00e-04 *             o    1.20e-03 *             o
	----------------------------------------------------------------------------------------------
	    12    -467.81986962   -1.15e-07 *    1.73e-05 *    1.73e-05 o    1.86e-04 *    1.86e-04 o  ~
	----------------------------------------------------------------------------------------------

Next Geometry in Ang
	Fragment 1 (Ang)

	   Li   0.0000000000   0.0000000000   1.7171582361
	   Cl   0.0000000000   0.0000000000  -0.3445627970

    Final optimized geometry and variables:
    Molecular point group: c2v
    Full point group: C_inf_v

    Geometry (in Angstrom), charge = 0, multiplicity = 1:

    LI           0.000000000000     0.000000000000     1.717108953029
    CL           0.000000000000     0.000000000000    -0.344513513927

    Psi4 stopped on: Wednesday, 16 July 2025 06:37PM
    Psi4 wall time for execution: 0:00:11.95

*** Psi4 exiting successfully. Buy a developer a beer!
