                               Psi4 1.9.1 release

  ==> Input File <==

--------------------------------------------------------------------------
molecule {
0 1
C   0.00000        0.60000        0.00000
Ar   0.00000       -0.60000        0.00000
}

set {
basis              cc-pvdz
reference          uks
maxiter            500
geom_maxiter       500
DAMPING_PERCENTAGE 1
guess              SAP
}

optimize('b3lyp')
--------------------------------------------------------------------------

    Molecular point group: c2v
  Charge       = 0
  Multiplicity = 1
  Basis Set: CC-PVDZ
    Blend: CC-PVDZ
  Basis Set: (CC-PVDZ AUX)
    Blend: CC-PVDZ-JKFIT
  @DF-UKS Final Energy:  -564.88499188355115
    Total Energy =                       -564.8849918835510380
 Dipole X            :          0.0000000            0.0000000            0.0000000
 Dipole Y            :          0.0000000            0.0000000            0.0000000
 Dipole Z            :         -3.0536316            1.0375255           -2.0161061
 Magnitude           :                                                    2.0161061
    Molecular point group: c2v
  Basis Set: CC-PVDZ
    Blend: CC-PVDZ
  Basis Set: (CC-PVDZ AUX)
    Blend: CC-PVDZ-JKFIT
  Basis Set: CC-PVDZ
    Blend: CC-PVDZ
  Basis Set: (CC-PVDZ AUX)
    Blend: CC-PVDZ-JKFIT
  @DF-UKS Final Energy:  -565.07724300513655
    Total Energy =                       -565.0772430051365518
  Basis Set: CC-PVDZ
    Blend: CC-PVDZ
  Basis Set: (CC-PVDZ AUX)
    Blend: CC-PVDZ-JKFIT
  Basis Set: CC-PVDZ
    Blend: CC-PVDZ
  @DF-UKS Final Energy:  -565.18314372378813
    Total Energy =                       -565.1831437237882483
  @DF-UKS Final Energy:  -565.22963761688243
    Total Energy =                       -565.2296376168824281
  @DF-UKS Final Energy:  -565.26564324990102
    Total Energy =                       -565.2656432499010180
  @DF-UKS Final Energy:  -565.29180876616988
    Total Energy =                       -565.2918087661698792
  @DF-UKS Final Energy:  -565.30772648429172
    Total Energy =                       -565.3077264842916065
  @DF-UKS Final Energy:  -565.31891344514781
    Total Energy =                       -565.3189134451478139
  @DF-UKS Final Energy:  -565.32382131671955
    Total Energy =                       -565.3238213167195454
  @DF-UKS Final Energy:  -565.32603686537868
    Total Energy =                       -565.3260368653786827
  @DF-UKS Final Energy:  -565.32691770599797
    Total Energy =                       -565.3269177059979711
  @DF-UKS Final Energy:  -565.32721676030030
    Total Energy =                       -565.3272167603003027
  @DF-UKS Final Energy:  -565.32728093236608
    Total Energy =                       -565.3272809323660795
  @DF-UKS Final Energy:  -565.32730103960705
    Total Energy =                       -565.3273010396070504
  Basis Set: (CC-PVDZ AUX)
    Blend: CC-PVDZ-JKFIT
  Basis Set: CC-PVDZ
    Blend: CC-PVDZ
  Basis Set: (CC-PVDZ AUX)
    Blend: CC-PVDZ-JKFIT
  @DF-UKS Final Energy:  -565.32730392554686
    Total Energy =                       -565.3273039255468575
  Basis Set: CC-PVDZ
    Blend: CC-PVDZ
  Basis Set: (CC-PVDZ AUX)
    Blend: CC-PVDZ-JKFIT
  Charge       = 0
  Multiplicity = 1
  Basis Set: CC-PVDZ
    Blend: CC-PVDZ
  Basis Set: (CC-PVDZ AUX)
    Blend: CC-PVDZ-JKFIT

    Orbital Energies [Eh]
    ---------------------

    Alpha Occupied:

       1A1  -115.117511     2A1   -11.153554     3A1   -10.315395
       4A1    -8.703916     1B1    -8.703248     1B2    -8.703045
       5A1    -0.981031     6A1    -0.537681     2B1    -0.437320
       7A1    -0.436293     2B2    -0.436091     3B2    -0.196213

    Alpha Virtual:

       3B1    -0.134857     8A1    -0.127788     4B1     0.466403
       4B2     0.472436     9A1     0.483255    10A1     0.529752
       5B1     0.589147     5B2     0.592569    11A1     0.627232
      12A1     0.780553     1A2     0.821095    13A1     0.821106
       6B1     0.822575     6B2     0.823751    14A1     0.912609
       7B1     1.147737     2A2     1.163035     7B2     1.167836
      15A1     1.170830    16A1     1.267644

    Beta Occupied:

       1A1  -115.117511     2A1   -11.153554     3A1   -10.315395
       4A1    -8.703916     1B1    -8.703248     1B2    -8.703045
       5A1    -0.981031     6A1    -0.537681     2B1    -0.437320
       7A1    -0.436293     2B2    -0.436091     3B2    -0.196213

    Beta Virtual:

       3B1    -0.134857     8A1    -0.127788     4B1     0.466403
       4B2     0.472436     9A1     0.483255    10A1     0.529752
       5B1     0.589147     5B2     0.592569    11A1     0.627232
      12A1     0.780553     1A2     0.821095    13A1     0.821106
       6B1     0.822575     6B2     0.823751    14A1     0.912609
       7B1     1.147737     2A2     1.163035     7B2     1.167836
      15A1     1.170830    16A1     1.267644

    Final Occupation by Irrep:
             A1    A2    B1    B2
    DOCC [     7,    0,    2,    3 ]
    SOCC [     0,    0,    0,    0 ]
    NA   [     7,    0,    2,    3 ]
    NB   [     7,    0,    2,    3 ]

  @DF-UKS Final Energy:  -565.32730434813402

   => Energetics <=

    Nuclear Repulsion Energy =             20.3924732143673602
    One-Electron Energy =                -819.2853457331411846
    Two-Electron Energy =                 262.6602882269600627
    DFT Exchange-Correlation Energy =     -29.0947200563202415
    Empirical Dispersion Energy =           0.0000000000000000
    VV10 Nonlocal Energy =                  0.0000000000000000
    Total Energy =                       -565.3273043481340210

  UHF NO Occupations:
  HONO-2 :    2 B2 2.0000000
  HONO-1 :    2 B1 2.0000000
  HONO-0 :    3 B2 2.0000000
  LUNO+0 :    8 A1 0.0000000
  LUNO+1 :    9 A1 0.0000000
  LUNO+2 :    3 B1 0.0000000
  LUNO+3 :    4 B2 0.0000000

Computation Completed

Properties will be evaluated at   0.000000,   0.000000,   0.000000 [a0]

Properties computed using the SCF density matrix

 Multipole Moments:

 ------------------------------------------------------------------------------------
     Multipole            Electronic (a.u.)      Nuclear  (a.u.)        Total (a.u.)
 ------------------------------------------------------------------------------------

 L = 1.  Multiply by 2.5417464519 to convert [e a0] to [Debye]
 Dipole X            :          0.0000000            0.0000000            0.0000000
 Dipole Y            :          0.0000000            0.0000000            0.0000000
 Dipole Z            :         -2.6309353            2.4231065           -0.2078287
 Magnitude           :                                                    0.2078287

 ------------------------------------------------------------------------------------

*** tstop() called on Joses-MacBook-Pro-2.local at Wed Jul 16 19:06:27 2025
Module time:
	user time   =       2.97 seconds =       0.05 minutes
	system time =       2.68 seconds =       0.04 minutes
	total time  =          1 seconds =       0.02 minutes
Total time:
	user time   =      74.72 seconds =       1.25 minutes
	system time =      79.25 seconds =       1.32 minutes
	total time  =         15 seconds =       0.25 minutes

*** tstart() called on Joses-MacBook-Pro-2.local
*** at Wed Jul 16 19:06:27 2025

         ------------------------------------------------------------
                                   SCF GRAD
                          Rob Parrish, Justin Turney,
                       Andy Simmonett, and Alex Sokolov
         ------------------------------------------------------------

  ==> Geometry <==

    Molecular point group: c2v
    Full point group: C_inf_v

    Geometry (in Angstrom), charge = 0, multiplicity = 1:

       Center              X                  Y                   Z               Mass
    ------------   -----------------  -----------------  -----------------  -----------------
         C            0.000000000000     0.000000000000     2.155347530118    12.000000000000
         AR           0.000000000000     0.000000000000    -0.647212912237    39.962383123700

  Nuclear repulsion =   20.392473214367360

  ==> Basis Set <==

  Basis Set: CC-PVDZ
    Blend: CC-PVDZ
    Number of shells: 14
    Number of basis functions: 32
    Number of Cartesian functions: 34
    Spherical Harmonics?: true
    Max angular momentum: 2

  ==> DFJKGrad: Density-Fitted SCF Gradients <==

    Gradient:                    1
    J tasked:                  Yes
    K tasked:                  Yes
    wK tasked:                  No
    OpenMP threads:              1
    Integrals threads:           1
    Memory [MiB]:              375
    Schwarz Cutoff:          1E-12
    Fitting Condition:       1E-10

   => Auxiliary Basis Set <=

  Basis Set: (CC-PVDZ AUX)
    Blend: CC-PVDZ-JKFIT
    Number of shells: 60
    Number of basis functions: 182
    Number of Cartesian functions: 211
    Spherical Harmonics?: true
    Max angular momentum: 3

  ==> DFT Potential <==

   => LibXC <=

    Version 6.2.2
    S. Lehtola, C. Steigemann, M. J.T. Oliveira, and M. A.L. Marques.,  SoftwareX 7, 1â€“5 (2018) (10.1016/j.softx.2017.11.002)

   => Composite Functional: B3LYP <=

    B3LYP Hyb-GGA Exchange-Correlation Functional

    P. J. Stephens, F. J. Devlin, C. F. Chabalowski, and M. J. Frisch.,  J. Phys. Chem. 98, 11623 (1994) (10.1021/j100096a001)

    Deriv               =              1
    GGA                 =           TRUE
    Meta                =          FALSE

    Exchange Hybrid     =           TRUE
    MP2 Hybrid          =          FALSE

   => Exchange Functionals <=

    0.0800   Slater exchange
    0.7200         Becke 88

   => Exact (HF) Exchange <=

    0.2000               HF

   => Correlation Functionals <=

    0.1900   Vosko, Wilk & Nusair (VWN5_RPA)
    0.8100   Lee, Yang & Parr

   => LibXC Density Thresholds  <==

    XC_HYB_GGA_XC_B3LYP:  1.00E-15

   => Molecular Quadrature <=

    Radial Scheme          =       TREUTLER
    Pruning Scheme         =           NONE
    Nuclear Scheme         =       TREUTLER

    Blocking Scheme        =         OCTREE
    BS radius alpha        =              1
    Pruning alpha          =              1
    Radial Points          =             75
    Spherical Points       =            302
    Total Points           =          41230
    Total Blocks           =            368
    Max Points             =            256
    Max Functions          =             32
    Weights Tolerance      =       1.00E-15

  -Total Gradient:
     Atom            X                  Y                   Z
    ------   -----------------  -----------------  -----------------
       1       -0.000000000000     0.000000000000    -0.000027255370
       2        0.000000000000     0.000000000000     0.000028894293

*** tstop() called on Joses-MacBook-Pro-2.local at Wed Jul 16 19:06:27 2025
Module time:
	user time   =       0.91 seconds =       0.02 minutes
	system time =       1.18 seconds =       0.02 minutes
	total time  =          0 seconds =       0.00 minutes
Total time:
	user time   =      75.63 seconds =       1.26 minutes
	system time =      80.43 seconds =       1.34 minutes
	total time  =         15 seconds =       0.25 minutes

    			-----------------------------------------

    			 OPTKING 3.0: for geometry optimizations

    			     By R.A. King, Bethel University

    			        with contributions from

    			    A.V. Copan, J. Cayton, A. Heide

    			-----------------------------------------

	                            ===> Fragment 1 <==

	 Z (Atomic Numbers)          Masses                          Geom
	       6.000000            12.000000          0.00000000  0.00000000  4.07301654
	      18.000000            39.962383          0.00000000  0.00000000 -1.22305515

	 - Coordinate -           - BOHR/RAD -       - ANG/DEG -
	 R(1,2)           =         5.296072           2.802560

	        --- Internal Coordinate Step in ANG or DEG, aJ/ANG or AJ/DEG ---
	-------------------------------------------------------------------------------
	           Coordinate      Previous         Force          Change          New
	           ----------      --------        ------          ------        ------
	               R(1,2)       2.80256        0.00023        0.00327       2.80583
	-------------------------------------------------------------------------------

	                                 ==> Convergence Check <==

	Measures of convergence in internal coordinates in au.

	Criteria marked as inactive (o), active & met (*), and active & unmet ( ).

	----------------------------------------------------------------------------------------------
	   Step    Total Energy     Delta E     Max Force     RMS Force      Max Disp      RMS Disp
	----------------------------------------------------------------------------------------------
	  Convergence Criteria     1.00e-06 *    3.00e-04 *             o    1.20e-03 *             o
	----------------------------------------------------------------------------------------------
	    16    -565.32730435   -4.23e-07 *    2.81e-05 *    2.81e-05 o    6.19e-03      6.19e-03 o  ~
	----------------------------------------------------------------------------------------------

Next Geometry in Ang
	Fragment 1 (Ang)

	    C   0.0000000000   0.0000000000   2.1569840667
	   Ar   0.0000000000   0.0000000000  -0.6488494488

    Final optimized geometry and variables:
    Molecular point group: c2v
    Full point group: C_inf_v

    Geometry (in Angstrom), charge = 0, multiplicity = 1:

    C            0.000000000000     0.000000000000     2.155347530118
    AR           0.000000000000     0.000000000000    -0.647212912237

    Psi4 stopped on: Wednesday, 16 July 2025 07:06PM
    Psi4 wall time for execution: 0:00:15.48

*** Psi4 exiting successfully. Buy a developer a beer!
