                               Psi4 1.9.1 release

  ==> Input File <==

--------------------------------------------------------------------------
molecule {
0 1
Ne   0.00000        0.60000        0.00000
Mg   0.00000       -0.60000        0.00000
}

set {
basis              cc-pvdz
reference          uks
maxiter            500
geom_maxiter       500
DAMPING_PERCENTAGE 1
guess              SAP
}

optimize('b3lyp')
--------------------------------------------------------------------------

    Molecular point group: c2v
  Charge       = 0
  Multiplicity = 1
  Basis Set: CC-PVDZ
    Blend: CC-PVDZ
  Basis Set: (CC-PVDZ AUX)
    Blend: CC-PVDZ-JKFIT + DEF2-UNIVERSAL-JKFIT
  @DF-UKS Final Energy:  -328.52491763990514
    Total Energy =                       -328.5249176399051407
 Dipole X            :          0.0000000            0.0000000            0.0000000
 Dipole Y            :          0.0000000            0.0000000            0.0000000
 Dipole Z            :          0.9843428           -0.0030353            0.9813075
 Magnitude           :                                                    0.9813075
    Molecular point group: c2v
  Basis Set: CC-PVDZ
    Blend: CC-PVDZ
  Basis Set: (CC-PVDZ AUX)
    Blend: CC-PVDZ-JKFIT + DEF2-UNIVERSAL-JKFIT
  Basis Set: CC-PVDZ
    Blend: CC-PVDZ
  Basis Set: (CC-PVDZ AUX)
    Blend: CC-PVDZ-JKFIT + DEF2-UNIVERSAL-JKFIT
  @DF-UKS Final Energy:  -328.75739278901801
    Total Energy =                       -328.7573927890180130
  Basis Set: CC-PVDZ
    Blend: CC-PVDZ
  Basis Set: (CC-PVDZ AUX)
    Blend: CC-PVDZ-JKFIT + DEF2-UNIVERSAL-JKFIT
  Basis Set: CC-PVDZ
    Blend: CC-PVDZ
  @DF-UKS Final Energy:  -328.86135745803188
    Total Energy =                       -328.8613574580318755
  @DF-UKS Final Energy:  -328.92035026295889
    Total Energy =                       -328.9203502629588343
  @DF-UKS Final Energy:  -328.94595042847249
    Total Energy =                       -328.9459504284724858
  @DF-UKS Final Energy:  -328.96471868975510
    Total Energy =                       -328.9647186897551023
  @DF-UKS Final Energy:  -328.97808324665840
    Total Energy =                       -328.9780832466584002
  @DF-UKS Final Energy:  -328.98666935192324
    Total Energy =                       -328.9866693519232399
  @DF-UKS Final Energy:  -328.99388175182133
    Total Energy =                       -328.9938817518213341
  @DF-UKS Final Energy:  -328.99797138726746
    Total Energy =                       -328.9979713872674552
  @DF-UKS Final Energy:  -329.00024155507390
    Total Energy =                       -329.0002415550738419
  @DF-UKS Final Energy:  -329.00129764772629
    Total Energy =                       -329.0012976477262896
  @DF-UKS Final Energy:  -329.00173635053949
    Total Energy =                       -329.0017363505394883
  @DF-UKS Final Energy:  -329.00190788624502
    Total Energy =                       -329.0019078862450215
  @DF-UKS Final Energy:  -329.00196999665280
    Total Energy =                       -329.0019699966528606
  @DF-UKS Final Energy:  -329.00198692225734
    Total Energy =                       -329.0019869222573448
  @DF-UKS Final Energy:  -329.00199252041131
    Total Energy =                       -329.0019925204113065
  Basis Set: (CC-PVDZ AUX)
    Blend: CC-PVDZ-JKFIT + DEF2-UNIVERSAL-JKFIT
  Basis Set: CC-PVDZ
    Blend: CC-PVDZ
  Basis Set: (CC-PVDZ AUX)
    Blend: CC-PVDZ-JKFIT + DEF2-UNIVERSAL-JKFIT
  @DF-UKS Final Energy:  -329.00199403903031
    Total Energy =                       -329.0019940390302509
  Basis Set: CC-PVDZ
    Blend: CC-PVDZ
  Basis Set: (CC-PVDZ AUX)
    Blend: CC-PVDZ-JKFIT + DEF2-UNIVERSAL-JKFIT
  Charge       = 0
  Multiplicity = 1
  Basis Set: CC-PVDZ
    Blend: CC-PVDZ
  Basis Set: (CC-PVDZ AUX)
    Blend: CC-PVDZ-JKFIT + DEF2-UNIVERSAL-JKFIT

    Orbital Energies [Eh]
    ---------------------

    Alpha Occupied:

       1A1   -46.816654     2A1   -30.969637     3A1    -3.097211
       4A1    -1.840591     1B1    -1.840508     1B2    -1.840508
       5A1    -1.433878     6A1    -0.543517     2B1    -0.541953
       2B2    -0.541953     7A1    -0.193083

    Alpha Virtual:

       3B1    -0.030578     3B2    -0.030578     8A1    -0.025544
       9A1     0.104142     4B1     0.167292     4B2     0.167292
      10A1     0.168905     5B1     0.323435     5B2     0.323435
      11A1     0.323468     1A2     0.323468    12A1     0.323513
       6B1     1.362716     6B2     1.362716    13A1     1.385074
      14A1     1.897336     7B1     4.723025     7B2     4.723025
       2A2     4.723264    15A1     4.723547    16A1     4.723765

    Beta Occupied:

       1A1   -46.816654     2A1   -30.969637     3A1    -3.097211
       4A1    -1.840591     1B1    -1.840508     1B2    -1.840508
       5A1    -1.433878     6A1    -0.543517     2B1    -0.541953
       2B2    -0.541953     7A1    -0.193083

    Beta Virtual:

       3B1    -0.030578     3B2    -0.030578     8A1    -0.025544
       9A1     0.104142     4B1     0.167292     4B2     0.167292
      10A1     0.168905     5B1     0.323435     5B2     0.323435
      11A1     0.323468     1A2     0.323468    12A1     0.323513
       6B1     1.362716     6B2     1.362716    13A1     1.385074
      14A1     1.897336     7B1     4.723025     7B2     4.723025
       2A2     4.723264    15A1     4.723547    16A1     4.723765

    Final Occupation by Irrep:
             A1    A2    B1    B2
    DOCC [     7,    0,    2,    2 ]
    SOCC [     0,    0,    0,    0 ]
    NA   [     7,    0,    2,    2 ]
    NB   [     7,    0,    2,    2 ]

  @DF-UKS Final Energy:  -329.00199462187436

   => Energetics <=

    Nuclear Repulsion Energy =             18.7727585517959419
    One-Electron Energy =                -499.5129589263948446
    Two-Electron Energy =                 175.1200355951683036
    DFT Exchange-Correlation Energy =     -23.3818298424437607
    Empirical Dispersion Energy =           0.0000000000000000
    VV10 Nonlocal Energy =                  0.0000000000000000
    Total Energy =                       -329.0019946218743598

  UHF NO Occupations:
  HONO-2 :    5 A1 2.0000000
  HONO-1 :    6 A1 2.0000000
  HONO-0 :    7 A1 2.0000000
  LUNO+0 :    3 B2 0.0000000
  LUNO+1 :    8 A1 0.0000000
  LUNO+2 :    9 A1 0.0000000
  LUNO+3 :   10 A1 0.0000000

Computation Completed

Properties will be evaluated at   0.000000,   0.000000,   0.000000 [a0]

Properties computed using the SCF density matrix

 Multipole Moments:

 ------------------------------------------------------------------------------------
     Multipole            Electronic (a.u.)      Nuclear  (a.u.)        Total (a.u.)
 ------------------------------------------------------------------------------------

 L = 1.  Multiply by 2.5417464519 to convert [e a0] to [Debye]
 Dipole X            :          0.0000000            0.0000000            0.0000000
 Dipole Y            :          0.0000000            0.0000000            0.0000000
 Dipole Z            :          0.1301331           -0.0085562            0.1215769
 Magnitude           :                                                    0.1215769

 ------------------------------------------------------------------------------------

*** tstop() called on Joses-MacBook-Pro-2.local at Wed Jul 16 19:33:38 2025
Module time:
	user time   =       2.28 seconds =       0.04 minutes
	system time =       2.67 seconds =       0.04 minutes
	total time  =          1 seconds =       0.02 minutes
Total time:
	user time   =     105.06 seconds =       1.75 minutes
	system time =      77.24 seconds =       1.29 minutes
	total time  =         18 seconds =       0.30 minutes

*** tstart() called on Joses-MacBook-Pro-2.local
*** at Wed Jul 16 19:33:38 2025

         ------------------------------------------------------------
                                   SCF GRAD
                          Rob Parrish, Justin Turney,
                       Andy Simmonett, and Alex Sokolov
         ------------------------------------------------------------

  ==> Geometry <==

    Molecular point group: c2v
    Full point group: C_inf_v

    Geometry (in Angstrom), charge = 0, multiplicity = 1:

       Center              X                  Y                   Z               Mass
    ------------   -----------------  -----------------  -----------------  -----------------
         NE           0.000000000000     0.000000000000     1.844864202281    19.992440176200
         MG           0.000000000000     0.000000000000    -1.537764147474    23.985041697000

  Nuclear repulsion =   18.772758551795942

  ==> Basis Set <==

  Basis Set: CC-PVDZ
    Blend: CC-PVDZ
    Number of shells: 14
    Number of basis functions: 32
    Number of Cartesian functions: 34
    Spherical Harmonics?: true
    Max angular momentum: 2

  ==> DFJKGrad: Density-Fitted SCF Gradients <==

    Gradient:                    1
    J tasked:                  Yes
    K tasked:                  Yes
    wK tasked:                  No
    OpenMP threads:              1
    Integrals threads:           1
    Memory [MiB]:              375
    Schwarz Cutoff:          1E-12
    Fitting Condition:       1E-10

   => Auxiliary Basis Set <=

  Basis Set: (CC-PVDZ AUX)
    Blend: CC-PVDZ-JKFIT + DEF2-UNIVERSAL-JKFIT
    Number of shells: 58
    Number of basis functions: 182
    Number of Cartesian functions: 218
    Spherical Harmonics?: true
    Max angular momentum: 4

  ==> DFT Potential <==

   => LibXC <=

    Version 6.2.2
    S. Lehtola, C. Steigemann, M. J.T. Oliveira, and M. A.L. Marques.,  SoftwareX 7, 1â€“5 (2018) (10.1016/j.softx.2017.11.002)

   => Composite Functional: B3LYP <=

    B3LYP Hyb-GGA Exchange-Correlation Functional

    P. J. Stephens, F. J. Devlin, C. F. Chabalowski, and M. J. Frisch.,  J. Phys. Chem. 98, 11623 (1994) (10.1021/j100096a001)

    Deriv               =              1
    GGA                 =           TRUE
    Meta                =          FALSE

    Exchange Hybrid     =           TRUE
    MP2 Hybrid          =          FALSE

   => Exchange Functionals <=

    0.0800   Slater exchange
    0.7200         Becke 88

   => Exact (HF) Exchange <=

    0.2000               HF

   => Correlation Functionals <=

    0.1900   Vosko, Wilk & Nusair (VWN5_RPA)
    0.8100   Lee, Yang & Parr

   => LibXC Density Thresholds  <==

    XC_HYB_GGA_XC_B3LYP:  1.00E-15

   => Molecular Quadrature <=

    Radial Scheme          =       TREUTLER
    Pruning Scheme         =           NONE
    Nuclear Scheme         =       TREUTLER

    Blocking Scheme        =         OCTREE
    BS radius alpha        =              1
    Pruning alpha          =              1
    Radial Points          =             75
    Spherical Points       =            302
    Total Points           =          43555
    Total Blocks           =            408
    Max Points             =            256
    Max Functions          =             32
    Weights Tolerance      =       1.00E-15

  -Total Gradient:
     Atom            X                  Y                   Z
    ------   -----------------  -----------------  -----------------
       1        0.000000000000     0.000000000000     0.000034426238
       2        0.000000000000    -0.000000000000     0.000040955967

*** tstop() called on Joses-MacBook-Pro-2.local at Wed Jul 16 19:33:38 2025
Module time:
	user time   =       1.43 seconds =       0.02 minutes
	system time =       1.25 seconds =       0.02 minutes
	total time  =          0 seconds =       0.00 minutes
Total time:
	user time   =     106.49 seconds =       1.77 minutes
	system time =      78.50 seconds =       1.31 minutes
	total time  =         18 seconds =       0.30 minutes

    			-----------------------------------------

    			 OPTKING 3.0: for geometry optimizations

    			     By R.A. King, Bethel University

    			        with contributions from

    			    A.V. Copan, J. Cayton, A. Heide

    			-----------------------------------------

	                            ===> Fragment 1 <==

	 Z (Atomic Numbers)          Masses                          Geom
	      10.000000            19.992440          0.00000000  0.00000000  3.48628808
	      12.000000            23.985042          0.00000000  0.00000000 -2.90595308

	 - Coordinate -           - BOHR/RAD -       - ANG/DEG -
	 R(1,2)           =         6.392241           3.382628

	        --- Internal Coordinate Step in ANG or DEG, aJ/ANG or AJ/DEG ---
	-------------------------------------------------------------------------------
	           Coordinate      Previous         Force          Change          New
	           ----------      --------        ------          ------        ------
	               R(1,2)       3.38263        0.00003        0.00151       3.38414
	-------------------------------------------------------------------------------

	                                 ==> Convergence Check <==

	Measures of convergence in internal coordinates in au.

	Criteria marked as inactive (o), active & met (*), and active & unmet ( ).

	----------------------------------------------------------------------------------------------
	   Step    Total Energy     Delta E     Max Force     RMS Force      Max Disp      RMS Disp
	----------------------------------------------------------------------------------------------
	  Convergence Criteria     1.00e-06 *    3.00e-04 *             o    1.20e-03 *             o
	----------------------------------------------------------------------------------------------
	    19    -329.00199462   -5.83e-07 *    3.26e-06 *    3.26e-06 o    2.86e-03      2.86e-03 o  ~
	----------------------------------------------------------------------------------------------

Next Geometry in Ang
	Fragment 1 (Ang)

	   Ne   0.0000000000   0.0000000000   1.8456200811
	   Mg   0.0000000000   0.0000000000  -1.5385200263

    Final optimized geometry and variables:
    Molecular point group: c2v
    Full point group: C_inf_v

    Geometry (in Angstrom), charge = 0, multiplicity = 1:

    NE           0.000000000000     0.000000000000     1.844864202281
    MG           0.000000000000     0.000000000000    -1.537764147474

    Psi4 stopped on: Wednesday, 16 July 2025 07:33PM
    Psi4 wall time for execution: 0:00:19.36

*** Psi4 exiting successfully. Buy a developer a beer!
