                               Psi4 1.9.1 release

  ==> Input File <==

--------------------------------------------------------------------------
molecule {
0 1
B   0.00000        0.60000        0.00000
B   0.00000       -0.60000        0.00000
}

set {
basis              cc-pvdz
reference          uks
maxiter            500
geom_maxiter       500
DAMPING_PERCENTAGE 1
guess              SAP
}

optimize('b3lyp')
--------------------------------------------------------------------------

    Molecular point group: d2h
  Charge       = 0
  Multiplicity = 1
  Basis Set: CC-PVDZ
    Blend: CC-PVDZ
  Basis Set: (CC-PVDZ AUX)
    Blend: CC-PVDZ-JKFIT
  @DF-UKS Final Energy:   -49.22089876954924
    Total Energy =                        -49.2208987695492368
 Dipole X            :          0.0000000            0.0000000            0.0000000
 Dipole Y            :          0.0000000            0.0000000            0.0000000
 Dipole Z            :          0.0000000            0.0000000            0.0000000
 Magnitude           :                                                    0.0000000
    Molecular point group: d2h
  Basis Set: CC-PVDZ
    Blend: CC-PVDZ
  Basis Set: (CC-PVDZ AUX)
    Blend: CC-PVDZ-JKFIT
  Basis Set: CC-PVDZ
    Blend: CC-PVDZ
  Basis Set: (CC-PVDZ AUX)
    Blend: CC-PVDZ-JKFIT
  @DF-UKS Final Energy:   -49.35555877417033
    Total Energy =                        -49.3555587741703334
  Basis Set: CC-PVDZ
    Blend: CC-PVDZ
  Basis Set: (CC-PVDZ AUX)
    Blend: CC-PVDZ-JKFIT
  Basis Set: CC-PVDZ
    Blend: CC-PVDZ
  @DF-UKS Final Energy:   -49.37308492440683
    Total Energy =                        -49.3730849244068395
  @DF-UKS Final Energy:   -49.38086419089200
    Total Energy =                        -49.3808641908919981
  @DF-UKS Final Energy:   -49.38199636349013
    Total Energy =                        -49.3819963634901384
  @DF-UKS Final Energy:   -49.38219331707138
    Total Energy =                        -49.3821933170713834
  @DF-UKS Final Energy:   -49.38223082413216
    Total Energy =                        -49.3822308241321579
  Basis Set: (CC-PVDZ AUX)
    Blend: CC-PVDZ-JKFIT
  Basis Set: CC-PVDZ
    Blend: CC-PVDZ
  Basis Set: (CC-PVDZ AUX)
    Blend: CC-PVDZ-JKFIT
  @DF-UKS Final Energy:   -49.38223922778530
    Total Energy =                        -49.3822392277852984
  Basis Set: CC-PVDZ
    Blend: CC-PVDZ
  Basis Set: (CC-PVDZ AUX)
    Blend: CC-PVDZ-JKFIT
  Charge       = 0
  Multiplicity = 1
  Basis Set: CC-PVDZ
    Blend: CC-PVDZ
  Basis Set: (CC-PVDZ AUX)
    Blend: CC-PVDZ-JKFIT

    Orbital Energies [Eh]
    ---------------------

    Alpha Occupied:

       1Ag    -6.856597     1B2u   -6.856267     2Ag    -0.523649
       2B2u   -0.293222     1B3u   -0.215211

    Alpha Virtual:

       3Ag    -0.165326     1B1u   -0.164951     1B1g   -0.010468
       1B3g   -0.010383     3B2u    0.148485     4Ag     0.256493
       2B1u    0.270176     2B3u    0.274005     2B3g    0.334921
       5Ag     0.337100     2B1g    0.338209     4B2u    0.376607
       1B2g    0.606555     6Ag     0.610416     3B1u    0.651037
       5B2u    0.661397     3B3u    0.663953     1Au     0.819481
       6B2u    0.823157     7Ag     1.078015     3B3g    1.097495
       3B1g    1.110321     7B2u    1.222111

    Beta Occupied:

       1Ag    -6.856597     1B2u   -6.856267     2Ag    -0.523649
       2B2u   -0.293222     1B3u   -0.215211

    Beta Virtual:

       3Ag    -0.165326     1B1u   -0.164951     1B1g   -0.010468
       1B3g   -0.010383     3B2u    0.148485     4Ag     0.256493
       2B1u    0.270176     2B3u    0.274005     2B3g    0.334921
       5Ag     0.337100     2B1g    0.338209     4B2u    0.376607
       1B2g    0.606555     6Ag     0.610416     3B1u    0.651037
       5B2u    0.661397     3B3u    0.663953     1Au     0.819481
       6B2u    0.823157     7Ag     1.078015     3B3g    1.097495
       3B1g    1.110321     7B2u    1.222111

    Final Occupation by Irrep:
             Ag   B1g   B2g   B3g    Au   B1u   B2u   B3u
    DOCC [     2,    0,    0,    0,    0,    0,    2,    1 ]
    SOCC [     0,    0,    0,    0,    0,    0,    0,    0 ]
    NA   [     2,    0,    0,    0,    0,    0,    2,    1 ]
    NB   [     2,    0,    0,    0,    0,    0,    2,    1 ]

  @DF-UKS Final Energy:   -49.38224012751365

   => Energetics <=

    Nuclear Repulsion Energy =              8.0066947191445141
    One-Electron Energy =                 -80.6976936441407560
    Two-Electron Energy =                  29.6571293346288627
    DFT Exchange-Correlation Energy =      -6.3483705371462840
    Empirical Dispersion Energy =           0.0000000000000000
    VV10 Nonlocal Energy =                  0.0000000000000000
    Total Energy =                        -49.3822401275136542

  UHF NO Occupations:
  HONO-2 :    2 Ag 2.0000000
  HONO-1 :    1B3u 2.0000000
  HONO-0 :    2B2u 2.0000000
  LUNO+0 :    3 Ag 0.0000000
  LUNO+1 :    4 Ag 0.0000000
  LUNO+2 :    3B2u 0.0000000
  LUNO+3 :    4B2u 0.0000000

Computation Completed

Properties will be evaluated at   0.000000,   0.000000,   0.000000 [a0]

Properties computed using the SCF density matrix

 Multipole Moments:

 ------------------------------------------------------------------------------------
     Multipole            Electronic (a.u.)      Nuclear  (a.u.)        Total (a.u.)
 ------------------------------------------------------------------------------------

 L = 1.  Multiply by 2.5417464519 to convert [e a0] to [Debye]
 Dipole X            :          0.0000000            0.0000000            0.0000000
 Dipole Y            :          0.0000000            0.0000000            0.0000000
 Dipole Z            :          0.0000000            0.0000000            0.0000000
 Magnitude           :                                                    0.0000000

 ------------------------------------------------------------------------------------

*** tstop() called on Joses-MacBook-Pro-2.local at Wed Jul 16 18:48:50 2025
Module time:
	user time   =       2.17 seconds =       0.04 minutes
	system time =       3.72 seconds =       0.06 minutes
	total time  =          1 seconds =       0.02 minutes
Total time:
	user time   =      26.15 seconds =       0.44 minutes
	system time =      55.78 seconds =       0.93 minutes
	total time  =          9 seconds =       0.15 minutes

*** tstart() called on Joses-MacBook-Pro-2.local
*** at Wed Jul 16 18:48:50 2025

         ------------------------------------------------------------
                                   SCF GRAD
                          Rob Parrish, Justin Turney,
                       Andy Simmonett, and Alex Sokolov
         ------------------------------------------------------------

  ==> Geometry <==

    Molecular point group: d2h
    Full point group: D_inf_h

    Geometry (in Angstrom), charge = 0, multiplicity = 1:

       Center              X                  Y                   Z               Mass
    ------------   -----------------  -----------------  -----------------  -----------------
         B           -0.000000000000     0.826148038036     0.000000000000    11.009305360000
         B            0.000000000000    -0.826148038036     0.000000000000    11.009305360000

  Nuclear repulsion =    8.006694719144514

  ==> Basis Set <==

  Basis Set: CC-PVDZ
    Blend: CC-PVDZ
    Number of shells: 12
    Number of basis functions: 28
    Number of Cartesian functions: 30
    Spherical Harmonics?: true
    Max angular momentum: 2

  ==> DFJKGrad: Density-Fitted SCF Gradients <==

    Gradient:                    1
    J tasked:                  Yes
    K tasked:                  Yes
    wK tasked:                  No
    OpenMP threads:              1
    Integrals threads:           1
    Memory [MiB]:              375
    Schwarz Cutoff:          1E-12
    Fitting Condition:       1E-10

   => Auxiliary Basis Set <=

  Basis Set: (CC-PVDZ AUX)
    Blend: CC-PVDZ-JKFIT
    Number of shells: 48
    Number of basis functions: 140
    Number of Cartesian functions: 162
    Spherical Harmonics?: true
    Max angular momentum: 3

  ==> DFT Potential <==

   => LibXC <=

    Version 6.2.2
    S. Lehtola, C. Steigemann, M. J.T. Oliveira, and M. A.L. Marques.,  SoftwareX 7, 1â€“5 (2018) (10.1016/j.softx.2017.11.002)

   => Composite Functional: B3LYP <=

    B3LYP Hyb-GGA Exchange-Correlation Functional

    P. J. Stephens, F. J. Devlin, C. F. Chabalowski, and M. J. Frisch.,  J. Phys. Chem. 98, 11623 (1994) (10.1021/j100096a001)

    Deriv               =              1
    GGA                 =           TRUE
    Meta                =          FALSE

    Exchange Hybrid     =           TRUE
    MP2 Hybrid          =          FALSE

   => Exchange Functionals <=

    0.0800   Slater exchange
    0.7200         Becke 88

   => Exact (HF) Exchange <=

    0.2000               HF

   => Correlation Functionals <=

    0.1900   Vosko, Wilk & Nusair (VWN5_RPA)
    0.8100   Lee, Yang & Parr

   => LibXC Density Thresholds  <==

    XC_HYB_GGA_XC_B3LYP:  1.00E-15

   => Molecular Quadrature <=

    Radial Scheme          =       TREUTLER
    Pruning Scheme         =           NONE
    Nuclear Scheme         =       TREUTLER

    Blocking Scheme        =         OCTREE
    BS radius alpha        =              1
    Pruning alpha          =              1
    Radial Points          =             75
    Spherical Points       =            302
    Total Points           =          42542
    Total Blocks           =            394
    Max Points             =            249
    Max Functions          =             28
    Weights Tolerance      =       1.00E-15

  -Total Gradient:
     Atom            X                  Y                   Z
    ------   -----------------  -----------------  -----------------
       1        0.000000000000    -0.000087525876     0.000000000000
       2       -0.000000000000     0.000087525876     0.000000000000

*** tstop() called on Joses-MacBook-Pro-2.local at Wed Jul 16 18:48:50 2025
Module time:
	user time   =       0.71 seconds =       0.01 minutes
	system time =       1.33 seconds =       0.02 minutes
	total time  =          0 seconds =       0.00 minutes
Total time:
	user time   =      26.87 seconds =       0.45 minutes
	system time =      57.12 seconds =       0.95 minutes
	total time  =          9 seconds =       0.15 minutes

    			-----------------------------------------

    			 OPTKING 3.0: for geometry optimizations

    			     By R.A. King, Bethel University

    			        with contributions from

    			    A.V. Copan, J. Cayton, A. Heide

    			-----------------------------------------

	                            ===> Fragment 1 <==

	 Z (Atomic Numbers)          Masses                          Geom
	       5.000000            11.009305         -0.00000000  1.56119353  0.00000000
	       5.000000            11.009305          0.00000000 -1.56119353  0.00000000

	 - Coordinate -           - BOHR/RAD -       - ANG/DEG -
	 R(1,2)           =         3.122387           1.652296

	        --- Internal Coordinate Step in ANG or DEG, aJ/ANG or AJ/DEG ---
	-------------------------------------------------------------------------------
	           Coordinate      Previous         Force          Change          New
	           ----------      --------        ------          ------        ------
	               R(1,2)       1.65230        0.00072        0.00023       1.65252
	-------------------------------------------------------------------------------

	                                 ==> Convergence Check <==

	Measures of convergence in internal coordinates in au.

	Criteria marked as inactive (o), active & met (*), and active & unmet ( ).

	----------------------------------------------------------------------------------------------
	   Step    Total Energy     Delta E     Max Force     RMS Force      Max Disp      RMS Disp
	----------------------------------------------------------------------------------------------
	  Convergence Criteria     1.00e-06 *    3.00e-04 *             o    1.20e-03 *             o
	----------------------------------------------------------------------------------------------
	     9     -49.38224013   -9.00e-07 *    8.75e-05 *    8.75e-05 o    4.28e-04 *    4.28e-04 o  ~
	----------------------------------------------------------------------------------------------

Next Geometry in Ang
	Fragment 1 (Ang)

	    B  -0.0000000000   0.8262612288   0.0000000000
	    B   0.0000000000  -0.8262612288   0.0000000000

    Final optimized geometry and variables:
    Molecular point group: d2h
    Full point group: D_inf_h

    Geometry (in Angstrom), charge = 0, multiplicity = 1:

    B           -0.000000000000     0.826148038036     0.000000000000
    B            0.000000000000    -0.826148038036     0.000000000000

    Psi4 stopped on: Wednesday, 16 July 2025 06:48PM
    Psi4 wall time for execution: 0:00:09.38

*** Psi4 exiting successfully. Buy a developer a beer!
