                               Psi4 1.9.1 release

  ==> Input File <==

--------------------------------------------------------------------------
molecule {
0 1
Na   0.00000        0.60000        0.00000
Cl   0.00000       -0.60000        0.00000
}

set {
basis              cc-pvdz
reference          uks
maxiter            500
geom_maxiter       500
DAMPING_PERCENTAGE 1
guess              SAP
}

optimize('b3lyp')
--------------------------------------------------------------------------

    Molecular point group: c2v
  Charge       = 0
  Multiplicity = 1
  Basis Set: CC-PVDZ
    Blend: CC-PVDZ
  Basis Set: (CC-PVDZ AUX)
    Blend: CC-PVDZ-JKFIT + DEF2-UNIVERSAL-JKFIT
  @DF-UKS Final Energy:  -621.51836372422326
    Total Energy =                       -621.5183637242232635
 Dipole X            :          0.0000000            0.0000000            0.0000000
 Dipole Y            :          0.0000000            0.0000000            0.0000000
 Dipole Z            :          1.1710537           -0.2413546            0.9296991
 Magnitude           :                                                    0.9296991
    Molecular point group: c2v
  Basis Set: CC-PVDZ
    Blend: CC-PVDZ
  Basis Set: (CC-PVDZ AUX)
    Blend: CC-PVDZ-JKFIT + DEF2-UNIVERSAL-JKFIT
  Basis Set: CC-PVDZ
    Blend: CC-PVDZ
  Basis Set: (CC-PVDZ AUX)
    Blend: CC-PVDZ-JKFIT + DEF2-UNIVERSAL-JKFIT
  @DF-UKS Final Energy:  -621.53475193896497
    Total Energy =                       -621.5347519389649733
  Basis Set: CC-PVDZ
    Blend: CC-PVDZ
  Basis Set: (CC-PVDZ AUX)
    Blend: CC-PVDZ-JKFIT + DEF2-UNIVERSAL-JKFIT
  Basis Set: CC-PVDZ
    Blend: CC-PVDZ
  @DF-UKS Final Energy:  -621.56635824304203
    Total Energy =                       -621.5663582430420320
  @DF-UKS Final Energy:  -621.68071710928643
    Total Energy =                       -621.6807171092864337
  @DF-UKS Final Energy:  -622.16930077567565
    Total Energy =                       -622.1693007756757652
  @DF-UKS Final Energy:  -622.40376660826632
    Total Energy =                       -622.4037666082663236
  @DF-UKS Final Energy:  -622.51633879312885
    Total Energy =                       -622.5163387931288526
  @DF-UKS Final Energy:  -622.56392838302816
    Total Energy =                       -622.5639283830280419
  @DF-UKS Final Energy:  -622.58408804944725
    Total Energy =                       -622.5840880494473595
  @DF-UKS Final Energy:  -622.59137622434957
    Total Energy =                       -622.5913762243495739
  @DF-UKS Final Energy:  -622.59300397346931
    Total Energy =                       -622.5930039734693082
  @DF-UKS Final Energy:  -622.59350398697734
    Total Energy =                       -622.5935039869773391
  @DF-UKS Final Energy:  -622.59357071369664
    Total Energy =                       -622.5935707136966357
  @DF-UKS Final Energy:  -622.59357990312765
    Total Energy =                       -622.5935799031276474
  Basis Set: (CC-PVDZ AUX)
    Blend: CC-PVDZ-JKFIT + DEF2-UNIVERSAL-JKFIT
  Basis Set: CC-PVDZ
    Blend: CC-PVDZ
  Basis Set: (CC-PVDZ AUX)
    Blend: CC-PVDZ-JKFIT + DEF2-UNIVERSAL-JKFIT
  @DF-UKS Final Energy:  -622.59358123215156
    Total Energy =                       -622.5935812321515641
  Basis Set: CC-PVDZ
    Blend: CC-PVDZ
  Basis Set: (CC-PVDZ AUX)
    Blend: CC-PVDZ-JKFIT + DEF2-UNIVERSAL-JKFIT
  Charge       = 0
  Multiplicity = 1
  Basis Set: CC-PVDZ
    Blend: CC-PVDZ
  Basis Set: (CC-PVDZ AUX)
    Blend: CC-PVDZ-JKFIT + DEF2-UNIVERSAL-JKFIT

    Orbital Energies [Eh]
    ---------------------

    Alpha Occupied:

       1A1  -101.421679     2A1   -38.507360     3A1    -9.337911
       4A1    -7.095373     1B1    -7.093641     1B2    -7.093641
       5A1    -2.255038     2B1    -1.186557     2B2    -1.186557
       6A1    -1.185103     7A1    -0.683682     8A1    -0.241294
       3B1    -0.223196     3B2    -0.223196

    Alpha Virtual:

       9A1    -0.075105     4B1    -0.002435     4B2    -0.002435
      10A1     0.019185    11A1     0.052957     5B2     0.081692
       5B1     0.081692    12A1     0.127959     1A2     0.168498
      13A1     0.168498     6B1     0.196557     6B2     0.196557
      14A1     0.271347     7B2     0.696532     7B1     0.696532
      15A1     0.703974    16A1     0.833174    17A1     0.849162
       2A2     0.849182     8B2     0.889589     8B1     0.889589
      18A1     1.137743

    Beta Occupied:

       1A1  -101.421679     2A1   -38.507360     3A1    -9.337911
       4A1    -7.095373     1B1    -7.093641     1B2    -7.093641
       5A1    -2.255038     2B1    -1.186557     2B2    -1.186557
       6A1    -1.185103     7A1    -0.683682     8A1    -0.241294
       3B1    -0.223196     3B2    -0.223196

    Beta Virtual:

       9A1    -0.075105     4B1    -0.002435     4B2    -0.002435
      10A1     0.019185    11A1     0.052957     5B2     0.081692
       5B1     0.081692    12A1     0.127959     1A2     0.168498
      13A1     0.168498     6B1     0.196557     6B2     0.196557
      14A1     0.271347     7B2     0.696532     7B1     0.696532
      15A1     0.703974    16A1     0.833174    17A1     0.849162
       2A2     0.849182     8B2     0.889589     8B1     0.889589
      18A1     1.137743

    Final Occupation by Irrep:
             A1    A2    B1    B2
    DOCC [     8,    0,    3,    3 ]
    SOCC [     0,    0,    0,    0 ]
    NA   [     8,    0,    3,    3 ]
    NB   [     8,    0,    3,    3 ]

  @DF-UKS Final Energy:  -622.59358124458390

   => Energetics <=

    Nuclear Repulsion Energy =             41.6529017437924480
    One-Electron Energy =                -948.4713027345653700
    Two-Electron Energy =                 318.7096017002148187
    DFT Exchange-Correlation Energy =     -34.4847819540258769
    Empirical Dispersion Energy =           0.0000000000000000
    VV10 Nonlocal Energy =                  0.0000000000000000
    Total Energy =                       -622.5935812445840156

  UHF NO Occupations:
  HONO-2 :    7 A1 2.0000000
  HONO-1 :    8 A1 2.0000000
  HONO-0 :    3 B1 2.0000000
  LUNO+0 :    4 B1 0.0000000
  LUNO+1 :    9 A1 0.0000000
  LUNO+2 :   10 A1 0.0000000
  LUNO+3 :    4 B2 0.0000000

Computation Completed

Properties will be evaluated at   0.000000,   0.000000,   0.000000 [a0]

Properties computed using the SCF density matrix

 Multipole Moments:

 ------------------------------------------------------------------------------------
     Multipole            Electronic (a.u.)      Nuclear  (a.u.)        Total (a.u.)
 ------------------------------------------------------------------------------------

 L = 1.  Multiply by 2.5417464519 to convert [e a0] to [Debye]
 Dipole X            :          0.0000000            0.0000000            0.0000000
 Dipole Y            :          0.0000000            0.0000000            0.0000000
 Dipole Z            :          3.8669111           -0.4778283            3.3890828
 Magnitude           :                                                    3.3890828

 ------------------------------------------------------------------------------------

*** tstop() called on Joses-MacBook-Pro-2.local at Wed Jul 16 19:50:18 2025
Module time:
	user time   =       7.52 seconds =       0.13 minutes
	system time =       3.40 seconds =       0.06 minutes
	total time  =          1 seconds =       0.02 minutes
Total time:
	user time   =     171.30 seconds =       2.85 minutes
	system time =      94.81 seconds =       1.58 minutes
	total time  =         26 seconds =       0.43 minutes

*** tstart() called on Joses-MacBook-Pro-2.local
*** at Wed Jul 16 19:50:18 2025

         ------------------------------------------------------------
                                   SCF GRAD
                          Rob Parrish, Justin Turney,
                       Andy Simmonett, and Alex Sokolov
         ------------------------------------------------------------

  ==> Geometry <==

    Molecular point group: c2v
    Full point group: C_inf_v

    Geometry (in Angstrom), charge = 0, multiplicity = 1:

       Center              X                  Y                   Z               Mass
    ------------   -----------------  -----------------  -----------------  -----------------
         NA           0.000000000000     0.000000000000     1.433378248801    22.989769282000
         CL           0.000000000000     0.000000000000    -0.942353915167    34.968852682000

  Nuclear repulsion =   41.652901743792448

  ==> Basis Set <==

  Basis Set: CC-PVDZ
    Blend: CC-PVDZ
    Number of shells: 16
    Number of basis functions: 36
    Number of Cartesian functions: 38
    Spherical Harmonics?: true
    Max angular momentum: 2

  ==> DFJKGrad: Density-Fitted SCF Gradients <==

    Gradient:                    1
    J tasked:                  Yes
    K tasked:                  Yes
    wK tasked:                  No
    OpenMP threads:              1
    Integrals threads:           1
    Memory [MiB]:              375
    Schwarz Cutoff:          1E-12
    Fitting Condition:       1E-10

   => Auxiliary Basis Set <=

  Basis Set: (CC-PVDZ AUX)
    Blend: CC-PVDZ-JKFIT + DEF2-UNIVERSAL-JKFIT
    Number of shells: 70
    Number of basis functions: 224
    Number of Cartesian functions: 267
    Spherical Harmonics?: true
    Max angular momentum: 4

  ==> DFT Potential <==

   => LibXC <=

    Version 6.2.2
    S. Lehtola, C. Steigemann, M. J.T. Oliveira, and M. A.L. Marques.,  SoftwareX 7, 1â€“5 (2018) (10.1016/j.softx.2017.11.002)

   => Composite Functional: B3LYP <=

    B3LYP Hyb-GGA Exchange-Correlation Functional

    P. J. Stephens, F. J. Devlin, C. F. Chabalowski, and M. J. Frisch.,  J. Phys. Chem. 98, 11623 (1994) (10.1021/j100096a001)

    Deriv               =              1
    GGA                 =           TRUE
    Meta                =          FALSE

    Exchange Hybrid     =           TRUE
    MP2 Hybrid          =          FALSE

   => Exchange Functionals <=

    0.0800   Slater exchange
    0.7200         Becke 88

   => Exact (HF) Exchange <=

    0.2000               HF

   => Correlation Functionals <=

    0.1900   Vosko, Wilk & Nusair (VWN5_RPA)
    0.8100   Lee, Yang & Parr

   => LibXC Density Thresholds  <==

    XC_HYB_GGA_XC_B3LYP:  1.00E-15

   => Molecular Quadrature <=

    Radial Scheme          =       TREUTLER
    Pruning Scheme         =           NONE
    Nuclear Scheme         =       TREUTLER

    Blocking Scheme        =         OCTREE
    BS radius alpha        =              1
    Pruning alpha          =              1
    Radial Points          =             75
    Spherical Points       =            302
    Total Points           =          43834
    Total Blocks           =            442
    Max Points             =            256
    Max Functions          =             36
    Weights Tolerance      =       1.00E-15

  -Total Gradient:
     Atom            X                  Y                   Z
    ------   -----------------  -----------------  -----------------
       1        0.000000000000     0.000000000000     0.000017485770
       2        0.000000000000     0.000000000000     0.000042362941

*** tstop() called on Joses-MacBook-Pro-2.local at Wed Jul 16 19:50:18 2025
Module time:
	user time   =       2.54 seconds =       0.04 minutes
	system time =       2.23 seconds =       0.04 minutes
	total time  =          0 seconds =       0.00 minutes
Total time:
	user time   =     173.84 seconds =       2.90 minutes
	system time =      97.04 seconds =       1.62 minutes
	total time  =         26 seconds =       0.43 minutes

    			-----------------------------------------

    			 OPTKING 3.0: for geometry optimizations

    			     By R.A. King, Bethel University

    			        with contributions from

    			    A.V. Copan, J. Cayton, A. Heide

    			-----------------------------------------

	                            ===> Fragment 1 <==

	 Z (Atomic Numbers)          Masses                          Geom
	      11.000000            22.989769          0.00000000  0.00000000  2.70869232
	      17.000000            34.968853          0.00000000  0.00000000 -1.78079081

	 - Coordinate -           - BOHR/RAD -       - ANG/DEG -
	 R(1,2)           =         4.489483           2.375732

	        --- Internal Coordinate Step in ANG or DEG, aJ/ANG or AJ/DEG ---
	-------------------------------------------------------------------------------
	           Coordinate      Previous         Force          Change          New
	           ----------      --------        ------          ------        ------
	               R(1,2)       2.37573        0.00010        0.00009       2.37583
	-------------------------------------------------------------------------------

	                                 ==> Convergence Check <==

	Measures of convergence in internal coordinates in au.

	Criteria marked as inactive (o), active & met (*), and active & unmet ( ).

	----------------------------------------------------------------------------------------------
	   Step    Total Energy     Delta E     Max Force     RMS Force      Max Disp      RMS Disp
	----------------------------------------------------------------------------------------------
	  Convergence Criteria     1.00e-06 *    3.00e-04 *             o    1.20e-03 *             o
	----------------------------------------------------------------------------------------------
	    16    -622.59358124   -1.24e-08 *    1.24e-05 *    1.24e-05 o    1.76e-04 *    1.76e-04 o  ~
	----------------------------------------------------------------------------------------------

Next Geometry in Ang
	Fragment 1 (Ang)

	   Na   0.0000000000   0.0000000000   1.4334249441
	   Cl   0.0000000000   0.0000000000  -0.9424006105

    Final optimized geometry and variables:
    Molecular point group: c2v
    Full point group: C_inf_v

    Geometry (in Angstrom), charge = 0, multiplicity = 1:

    NA           0.000000000000     0.000000000000     1.433378248801
    CL           0.000000000000     0.000000000000    -0.942353915167

    Psi4 stopped on: Wednesday, 16 July 2025 07:50PM
    Psi4 wall time for execution: 0:00:27.31

*** Psi4 exiting successfully. Buy a developer a beer!
