                               Psi4 1.9.1 release

  ==> Input File <==

--------------------------------------------------------------------------
molecule {
0 1
Ne   0.00000        0.60000        0.00000
S   0.00000       -0.60000        0.00000
}

set {
basis              cc-pvdz
reference          uks
maxiter            500
geom_maxiter       500
DAMPING_PERCENTAGE 1
guess              SAP
}

optimize('b3lyp')
--------------------------------------------------------------------------

    Molecular point group: c2v
  Charge       = 0
  Multiplicity = 1
  Basis Set: CC-PVDZ
    Blend: CC-PVDZ
  Basis Set: (CC-PVDZ AUX)
    Blend: CC-PVDZ-JKFIT
  @DF-UKS Final Energy:  -526.47695484656163
    Total Energy =                       -526.4769548465616253
 Dipole X            :          0.0000000            0.0000000            0.0000000
 Dipole Y            :          0.0000000            0.0000000            0.0000000
 Dipole Z            :          1.5152947           -0.0069094            1.5083853
 Magnitude           :                                                    1.5083853
    Molecular point group: c2v
  Basis Set: CC-PVDZ
    Blend: CC-PVDZ
  Basis Set: (CC-PVDZ AUX)
    Blend: CC-PVDZ-JKFIT
  Basis Set: CC-PVDZ
    Blend: CC-PVDZ
  Basis Set: (CC-PVDZ AUX)
    Blend: CC-PVDZ-JKFIT
  @DF-UKS Final Energy:  -526.72279432417508
    Total Energy =                       -526.7227943241750836
  Basis Set: CC-PVDZ
    Blend: CC-PVDZ
  Basis Set: (CC-PVDZ AUX)
    Blend: CC-PVDZ-JKFIT
  Basis Set: CC-PVDZ
    Blend: CC-PVDZ
  @DF-UKS Final Energy:  -526.85001329655836
    Total Energy =                       -526.8500132965583589
  @DF-UKS Final Energy:  -526.91758025733282
    Total Energy =                       -526.9175802573328156
  @DF-UKS Final Energy:  -526.95137572368378
    Total Energy =                       -526.9513757236837819
  @DF-UKS Final Energy:  -526.96753984402551
    Total Energy =                       -526.9675398440255094
  @DF-UKS Final Energy:  -526.97484088418400
    Total Energy =                       -526.9748408841840046
  @DF-UKS Final Energy:  -526.97723832746851
    Total Energy =                       -526.9772383274685126
  @DF-UKS Final Energy:  -526.97851767449379
    Total Energy =                       -526.9785176744937871
  @DF-UKS Final Energy:  -526.97904704818040
    Total Energy =                       -526.9790470481804050
  @DF-UKS Final Energy:  -526.97917152777768
    Total Energy =                       -526.9791715277776802
  @DF-UKS Final Energy:  -526.97920505775062
    Total Energy =                       -526.9792050577506188
  @DF-UKS Final Energy:  -526.97921637752836
    Total Energy =                       -526.9792163775283598
  Basis Set: (CC-PVDZ AUX)
    Blend: CC-PVDZ-JKFIT
  Basis Set: CC-PVDZ
    Blend: CC-PVDZ
  Basis Set: (CC-PVDZ AUX)
    Blend: CC-PVDZ-JKFIT
  @DF-UKS Final Energy:  -526.97921877189594
    Total Energy =                       -526.9792187718959440
  Basis Set: CC-PVDZ
    Blend: CC-PVDZ
  Basis Set: (CC-PVDZ AUX)
    Blend: CC-PVDZ-JKFIT
  Charge       = 0
  Multiplicity = 1
  Basis Set: CC-PVDZ
    Blend: CC-PVDZ
  Basis Set: (CC-PVDZ AUX)
    Blend: CC-PVDZ-JKFIT

    Orbital Energies [Eh]
    ---------------------

    Alpha Occupied:

       1A1   -88.930348     2A1   -31.039233     3A1    -7.985002
       4A1    -5.962223     1B1    -5.936663     1B2    -5.936663
       5A1    -1.499146     6A1    -0.683540     2B2    -0.603406
       2B1    -0.603406     7A1    -0.601109     3B2    -0.262527
       3B1    -0.262527

    Alpha Virtual:

       8A1    -0.212189     9A1     0.465807     4B2     0.495132
       4B1     0.495132    10A1     0.502105    11A1     0.572130
       5B2     0.573981     5B1     0.573981     1A2     0.610505
      12A1     0.610506     6B2     1.327518     6B1     1.327518
      13A1     1.427742    14A1     1.973547     7B2     4.657155
       7B1     4.657155    15A1     4.661058    16A1     4.662092
       2A2     4.662176

    Beta Occupied:

       1A1   -88.930348     2A1   -31.039233     3A1    -7.985002
       4A1    -5.962223     1B1    -5.936663     1B2    -5.936663
       5A1    -1.499146     6A1    -0.683540     2B2    -0.603406
       2B1    -0.603406     7A1    -0.601109     3B2    -0.262527
       3B1    -0.262527

    Beta Virtual:

       8A1    -0.212189     9A1     0.465807     4B1     0.495132
       4B2     0.495132    10A1     0.502105    11A1     0.572130
       5B2     0.573981     5B1     0.573981     1A2     0.610505
      12A1     0.610506     6B2     1.327518     6B1     1.327518
      13A1     1.427742    14A1     1.973547     7B2     4.657155
       7B1     4.657155    15A1     4.661058    16A1     4.662092
       2A2     4.662176

    Final Occupation by Irrep:
             A1    A2    B1    B2
    DOCC [     7,    0,    3,    3 ]
    SOCC [     0,    0,    0,    0 ]
    NA   [     7,    0,    3,    3 ]
    NB   [     7,    0,    3,    3 ]

  @DF-UKS Final Energy:  -526.97921897817685

   => Energetics <=

    Nuclear Repulsion Energy =             36.2976016295312647
    One-Electron Energy =                -804.0322989925693946
    Two-Electron Energy =                 271.4901536285083807
    DFT Exchange-Correlation Energy =     -30.7346752436471569
    Empirical Dispersion Energy =           0.0000000000000000
    VV10 Nonlocal Energy =                  0.0000000000000000
    Total Energy =                       -526.9792189781768457

  UHF NO Occupations:
  HONO-2 :    3 B1 2.0000000
  HONO-1 :    3 B2 2.0000000
  HONO-0 :    7 A1 2.0000000
  LUNO+0 :    8 A1 0.0000000
  LUNO+1 :    9 A1 0.0000000
  LUNO+2 :    4 B2 0.0000000
  LUNO+3 :    4 B1 0.0000000

Computation Completed

Properties will be evaluated at   0.000000,   0.000000,   0.000000 [a0]

Properties computed using the SCF density matrix

 Multipole Moments:

 ------------------------------------------------------------------------------------
     Multipole            Electronic (a.u.)      Nuclear  (a.u.)        Total (a.u.)
 ------------------------------------------------------------------------------------

 L = 1.  Multiply by 2.5417464519 to convert [e a0] to [Debye]
 Dipole X            :          0.0000000            0.0000000            0.0000000
 Dipole Y            :          0.0000000            0.0000000            0.0000000
 Dipole Z            :          0.2832169           -0.0134308            0.2697861
 Magnitude           :                                                    0.2697861

 ------------------------------------------------------------------------------------

*** tstop() called on Joses-MacBook-Pro-2.local at Wed Jul 16 19:36:46 2025
Module time:
	user time   =       2.71 seconds =       0.05 minutes
	system time =       3.24 seconds =       0.05 minutes
	total time  =          0 seconds =       0.00 minutes
Total time:
	user time   =      67.84 seconds =       1.13 minutes
	system time =      76.98 seconds =       1.28 minutes
	total time  =         13 seconds =       0.22 minutes

*** tstart() called on Joses-MacBook-Pro-2.local
*** at Wed Jul 16 19:36:46 2025

         ------------------------------------------------------------
                                   SCF GRAD
                          Rob Parrish, Justin Turney,
                       Andy Simmonett, and Alex Sokolov
         ------------------------------------------------------------

  ==> Geometry <==

    Molecular point group: c2v
    Full point group: C_inf_v

    Geometry (in Angstrom), charge = 0, multiplicity = 1:

       Center              X                  Y                   Z               Mass
    ------------   -----------------  -----------------  -----------------  -----------------
         NE           0.000000000000     0.000000000000     1.435182429779    19.992440176200
         S            0.000000000000     0.000000000000    -0.897433222664    31.972071174400

  Nuclear repulsion =   36.297601629531265

  ==> Basis Set <==

  Basis Set: CC-PVDZ
    Blend: CC-PVDZ
    Number of shells: 14
    Number of basis functions: 32
    Number of Cartesian functions: 34
    Spherical Harmonics?: true
    Max angular momentum: 2

  ==> DFJKGrad: Density-Fitted SCF Gradients <==

    Gradient:                    1
    J tasked:                  Yes
    K tasked:                  Yes
    wK tasked:                  No
    OpenMP threads:              1
    Integrals threads:           1
    Memory [MiB]:              375
    Schwarz Cutoff:          1E-12
    Fitting Condition:       1E-10

   => Auxiliary Basis Set <=

  Basis Set: (CC-PVDZ AUX)
    Blend: CC-PVDZ-JKFIT
    Number of shells: 60
    Number of basis functions: 182
    Number of Cartesian functions: 211
    Spherical Harmonics?: true
    Max angular momentum: 3

  ==> DFT Potential <==

   => LibXC <=

    Version 6.2.2
    S. Lehtola, C. Steigemann, M. J.T. Oliveira, and M. A.L. Marques.,  SoftwareX 7, 1â€“5 (2018) (10.1016/j.softx.2017.11.002)

   => Composite Functional: B3LYP <=

    B3LYP Hyb-GGA Exchange-Correlation Functional

    P. J. Stephens, F. J. Devlin, C. F. Chabalowski, and M. J. Frisch.,  J. Phys. Chem. 98, 11623 (1994) (10.1021/j100096a001)

    Deriv               =              1
    GGA                 =           TRUE
    Meta                =          FALSE

    Exchange Hybrid     =           TRUE
    MP2 Hybrid          =          FALSE

   => Exchange Functionals <=

    0.0800   Slater exchange
    0.7200         Becke 88

   => Exact (HF) Exchange <=

    0.2000               HF

   => Correlation Functionals <=

    0.1900   Vosko, Wilk & Nusair (VWN5_RPA)
    0.8100   Lee, Yang & Parr

   => LibXC Density Thresholds  <==

    XC_HYB_GGA_XC_B3LYP:  1.00E-15

   => Molecular Quadrature <=

    Radial Scheme          =       TREUTLER
    Pruning Scheme         =           NONE
    Nuclear Scheme         =       TREUTLER

    Blocking Scheme        =         OCTREE
    BS radius alpha        =              1
    Pruning alpha          =              1
    Radial Points          =             75
    Spherical Points       =            302
    Total Points           =          42246
    Total Blocks           =            379
    Max Points             =            255
    Max Functions          =             32
    Weights Tolerance      =       1.00E-15

  -Total Gradient:
     Atom            X                  Y                   Z
    ------   -----------------  -----------------  -----------------
       1        0.000000000000    -0.000000000000    -0.000008726867
       2        0.000000000000    -0.000000000000     0.000027205282

*** tstop() called on Joses-MacBook-Pro-2.local at Wed Jul 16 19:36:47 2025
Module time:
	user time   =       0.65 seconds =       0.01 minutes
	system time =       1.62 seconds =       0.03 minutes
	total time  =          1 seconds =       0.02 minutes
Total time:
	user time   =      68.49 seconds =       1.14 minutes
	system time =      78.60 seconds =       1.31 minutes
	total time  =         14 seconds =       0.23 minutes

    			-----------------------------------------

    			 OPTKING 3.0: for geometry optimizations

    			     By R.A. King, Bethel University

    			        with contributions from

    			    A.V. Copan, J. Cayton, A. Heide

    			-----------------------------------------

	                            ===> Fragment 1 <==

	 Z (Atomic Numbers)          Masses                          Geom
	      10.000000            19.992440          0.00000000  0.00000000  2.71210173
	      16.000000            31.972071          0.00000000  0.00000000 -1.69590301

	 - Coordinate -           - BOHR/RAD -       - ANG/DEG -
	 R(1,2)           =         4.408005           2.332616

	        --- Internal Coordinate Step in ANG or DEG, aJ/ANG or AJ/DEG ---
	-------------------------------------------------------------------------------
	           Coordinate      Previous         Force          Change          New
	           ----------      --------        ------          ------        ------
	               R(1,2)       2.33262        0.00015        0.00054       2.33315
	-------------------------------------------------------------------------------

	                                 ==> Convergence Check <==

	Measures of convergence in internal coordinates in au.

	Criteria marked as inactive (o), active & met (*), and active & unmet ( ).

	----------------------------------------------------------------------------------------------
	   Step    Total Energy     Delta E     Max Force     RMS Force      Max Disp      RMS Disp
	----------------------------------------------------------------------------------------------
	  Convergence Criteria     1.00e-06 *    3.00e-04 *             o    1.20e-03 *             o
	----------------------------------------------------------------------------------------------
	    15    -526.97921898   -2.06e-07 *    1.80e-05 *    1.80e-05 o    1.01e-03 *    1.01e-03 o  ~
	----------------------------------------------------------------------------------------------

Next Geometry in Ang
	Fragment 1 (Ang)

	   Ne   0.0000000000   0.0000000000   1.4354501983
	    S   0.0000000000   0.0000000000  -0.8977009912

    Final optimized geometry and variables:
    Molecular point group: c2v
    Full point group: C_inf_v

    Geometry (in Angstrom), charge = 0, multiplicity = 1:

    NE           0.000000000000     0.000000000000     1.435182429779
    S            0.000000000000     0.000000000000    -0.897433222664

    Psi4 stopped on: Wednesday, 16 July 2025 07:36PM
    Psi4 wall time for execution: 0:00:14.62

*** Psi4 exiting successfully. Buy a developer a beer!
