                               Psi4 1.9.1 release

  ==> Input File <==

--------------------------------------------------------------------------
molecule {
0 1
Si   0.00000        0.60000        0.00000
S   0.00000       -0.60000        0.00000
}

set {
basis              cc-pvdz
reference          uks
maxiter            500
geom_maxiter       500
DAMPING_PERCENTAGE 1
guess              SAP
}

optimize('b3lyp')
--------------------------------------------------------------------------

    Molecular point group: c2v
  Charge       = 0
  Multiplicity = 1
  Basis Set: CC-PVDZ
    Blend: CC-PVDZ
  Basis Set: (CC-PVDZ AUX)
    Blend: CC-PVDZ-JKFIT
  @DF-UKS Final Energy:  -686.57007317399268
    Total Energy =                       -686.5700731739926823
 Dipole X            :          0.0000000            0.0000000            0.0000000
 Dipole Y            :          0.0000000            0.0000000            0.0000000
 Dipole Z            :         -0.3496729           -0.0008257           -0.3504986
 Magnitude           :                                                    0.3504986
    Molecular point group: c2v
  Basis Set: CC-PVDZ
    Blend: CC-PVDZ
  Basis Set: (CC-PVDZ AUX)
    Blend: CC-PVDZ-JKFIT
  Basis Set: CC-PVDZ
    Blend: CC-PVDZ
  Basis Set: (CC-PVDZ AUX)
    Blend: CC-PVDZ-JKFIT
  @DF-UKS Final Energy:  -686.60441507448206
    Total Energy =                       -686.6044150744819490
  Basis Set: CC-PVDZ
    Blend: CC-PVDZ
  Basis Set: (CC-PVDZ AUX)
    Blend: CC-PVDZ-JKFIT
  Basis Set: CC-PVDZ
    Blend: CC-PVDZ
  @DF-UKS Final Energy:  -686.66905167496668
    Total Energy =                       -686.6690516749666813
  @DF-UKS Final Energy:  -686.88692118046959
    Total Energy =                       -686.8869211804695851
  @DF-UKS Final Energy:  -687.43690637077395
    Total Energy =                       -687.4369063707739542
  @DF-UKS Final Energy:  -687.60338776151298
    Total Energy =                       -687.6033877615130905
  @DF-UKS Final Energy:  -687.69230729549486
    Total Energy =                       -687.6923072954948566
  @DF-UKS Final Energy:  -687.72266983247516
    Total Energy =                       -687.7226698324750487
  @DF-UKS Final Energy:  -687.72952489881061
    Total Energy =                       -687.7295248988107232
  @DF-UKS Final Energy:  -687.73173114378642
    Total Energy =                       -687.7317311437865328
  @DF-UKS Final Energy:  -687.73205036882541
    Total Energy =                       -687.7320503688254121
  @DF-UKS Final Energy:  -687.73210046086683
    Total Energy =                       -687.7321004608667181
  Basis Set: (CC-PVDZ AUX)
    Blend: CC-PVDZ-JKFIT
  Basis Set: CC-PVDZ
    Blend: CC-PVDZ
  Basis Set: (CC-PVDZ AUX)
    Blend: CC-PVDZ-JKFIT
  @DF-UKS Final Energy:  -687.73210966571332
    Total Energy =                       -687.7321096657133239
  Basis Set: CC-PVDZ
    Blend: CC-PVDZ
  Basis Set: (CC-PVDZ AUX)
    Blend: CC-PVDZ-JKFIT
  Charge       = 0
  Multiplicity = 1
  Basis Set: CC-PVDZ
    Blend: CC-PVDZ
  Basis Set: (CC-PVDZ AUX)
    Blend: CC-PVDZ-JKFIT

    Orbital Energies [Eh]
    ---------------------

    Alpha Occupied:

       1A1   -88.867905     2A1   -66.183641     3A1    -7.932147
       1B1    -5.891709     1B2    -5.891709     4A1    -5.891677
       5A1    -5.327287     2B2    -3.686590     2B1    -3.686590
       6A1    -3.681501     7A1    -0.709675     8A1    -0.439088
       3B2    -0.287236     3B1    -0.287236     9A1    -0.284581

    Alpha Virtual:

       4B2    -0.089139     4B1    -0.089139    10A1     0.050334
      11A1     0.215707     5B1     0.279301     5B2     0.279301
      12A1     0.287394    13A1     0.338954     1A2     0.338955
       6B1     0.354597     6B2     0.354597    14A1     0.391519
       7B2     0.528502     7B1     0.528502     2A2     0.630543
      15A1     0.630544    16A1     0.655201    17A1     0.748630
       8B2     0.811868     8B1     0.811868    18A1     1.168599

    Beta Occupied:

       1A1   -88.867905     2A1   -66.183641     3A1    -7.932147
       1B1    -5.891709     1B2    -5.891709     4A1    -5.891677
       5A1    -5.327287     2B2    -3.686590     2B1    -3.686590
       6A1    -3.681501     7A1    -0.709675     8A1    -0.439088
       3B2    -0.287236     3B1    -0.287236     9A1    -0.284581

    Beta Virtual:

       4B2    -0.089139     4B1    -0.089139    10A1     0.050334
      11A1     0.215707     5B1     0.279301     5B2     0.279301
      12A1     0.287394    13A1     0.338954     1A2     0.338955
       6B1     0.354597     6B2     0.354597    14A1     0.391519
       7B2     0.528502     7B1     0.528502     2A2     0.630543
      15A1     0.630544    16A1     0.655201    17A1     0.748630
       8B2     0.811868     8B1     0.811868    18A1     1.168599

    Final Occupation by Irrep:
             A1    A2    B1    B2
    DOCC [     9,    0,    3,    3 ]
    SOCC [     0,    0,    0,    0 ]
    NA   [     9,    0,    3,    3 ]
    NB   [     9,    0,    3,    3 ]

  @DF-UKS Final Energy:  -687.73211021162774

   => Energetics <=

    Nuclear Repulsion Energy =             60.4696568195157766
    One-Electron Energy =               -1071.6031597850162598
    Two-Electron Energy =                 360.9166669255031934
    DFT Exchange-Correlation Energy =     -37.5152741716305300
    Empirical Dispersion Energy =           0.0000000000000000
    VV10 Nonlocal Energy =                  0.0000000000000000
    Total Energy =                       -687.7321102116278553

  UHF NO Occupations:
  HONO-2 :    9 A1 2.0000000
  HONO-1 :    2 B2 2.0000000
  HONO-0 :    3 B2 2.0000000
  LUNO+0 :   10 A1 0.0000000
  LUNO+1 :    4 B2 0.0000000
  LUNO+2 :   11 A1 0.0000000
  LUNO+3 :    4 B1 0.0000000

Computation Completed

Properties will be evaluated at   0.000000,   0.000000,   0.000000 [a0]

Properties computed using the SCF density matrix

 Multipole Moments:

 ------------------------------------------------------------------------------------
     Multipole            Electronic (a.u.)      Nuclear  (a.u.)        Total (a.u.)
 ------------------------------------------------------------------------------------

 L = 1.  Multiply by 2.5417464519 to convert [e a0] to [Debye]
 Dipole X            :          0.0000000            0.0000000            0.0000000
 Dipole Y            :          0.0000000            0.0000000            0.0000000
 Dipole Z            :          0.6752732           -0.0013488            0.6739244
 Magnitude           :                                                    0.6739244

 ------------------------------------------------------------------------------------

*** tstop() called on Joses-MacBook-Pro-2.local at Wed Jul 16 20:15:40 2025
Module time:
	user time   =       6.11 seconds =       0.10 minutes
	system time =       1.92 seconds =       0.03 minutes
	total time  =          1 seconds =       0.02 minutes
Total time:
	user time   =     150.07 seconds =       2.50 minutes
	system time =      44.67 seconds =       0.74 minutes
	total time  =         18 seconds =       0.30 minutes

*** tstart() called on Joses-MacBook-Pro-2.local
*** at Wed Jul 16 20:15:40 2025

         ------------------------------------------------------------
                                   SCF GRAD
                          Rob Parrish, Justin Turney,
                       Andy Simmonett, and Alex Sokolov
         ------------------------------------------------------------

  ==> Geometry <==

    Molecular point group: c2v
    Full point group: C_inf_v

    Geometry (in Angstrom), charge = 0, multiplicity = 1:

       Center              X                  Y                   Z               Mass
    ------------   -----------------  -----------------  -----------------  -----------------
         SI           0.000000000000     0.000000000000     1.045443319617    27.976926534650
         S            0.000000000000     0.000000000000    -0.914807514018    31.972071174400

  Nuclear repulsion =   60.469656819515777

  ==> Basis Set <==

  Basis Set: CC-PVDZ
    Blend: CC-PVDZ
    Number of shells: 16
    Number of basis functions: 36
    Number of Cartesian functions: 38
    Spherical Harmonics?: true
    Max angular momentum: 2

  ==> DFJKGrad: Density-Fitted SCF Gradients <==

    Gradient:                    1
    J tasked:                  Yes
    K tasked:                  Yes
    wK tasked:                  No
    OpenMP threads:              1
    Integrals threads:           1
    Memory [MiB]:              375
    Schwarz Cutoff:          1E-12
    Fitting Condition:       1E-10

   => Auxiliary Basis Set <=

  Basis Set: (CC-PVDZ AUX)
    Blend: CC-PVDZ-JKFIT
    Number of shells: 72
    Number of basis functions: 224
    Number of Cartesian functions: 260
    Spherical Harmonics?: true
    Max angular momentum: 3

  ==> DFT Potential <==

   => LibXC <=

    Version 6.2.2
    S. Lehtola, C. Steigemann, M. J.T. Oliveira, and M. A.L. Marques.,  SoftwareX 7, 1â€“5 (2018) (10.1016/j.softx.2017.11.002)

   => Composite Functional: B3LYP <=

    B3LYP Hyb-GGA Exchange-Correlation Functional

    P. J. Stephens, F. J. Devlin, C. F. Chabalowski, and M. J. Frisch.,  J. Phys. Chem. 98, 11623 (1994) (10.1021/j100096a001)

    Deriv               =              1
    GGA                 =           TRUE
    Meta                =          FALSE

    Exchange Hybrid     =           TRUE
    MP2 Hybrid          =          FALSE

   => Exchange Functionals <=

    0.0800   Slater exchange
    0.7200         Becke 88

   => Exact (HF) Exchange <=

    0.2000               HF

   => Correlation Functionals <=

    0.1900   Vosko, Wilk & Nusair (VWN5_RPA)
    0.8100   Lee, Yang & Parr

   => LibXC Density Thresholds  <==

    XC_HYB_GGA_XC_B3LYP:  1.00E-15

   => Molecular Quadrature <=

    Radial Scheme          =       TREUTLER
    Pruning Scheme         =           NONE
    Nuclear Scheme         =       TREUTLER

    Blocking Scheme        =         OCTREE
    BS radius alpha        =              1
    Pruning alpha          =              1
    Radial Points          =             75
    Spherical Points       =            302
    Total Points           =          41590
    Total Blocks           =            383
    Max Points             =            255
    Max Functions          =             36
    Weights Tolerance      =       1.00E-15

  -Total Gradient:
     Atom            X                  Y                   Z
    ------   -----------------  -----------------  -----------------
       1        0.000000000000     0.000000000000    -0.000072600942
       2        0.000000000000     0.000000000000     0.000087714700

*** tstop() called on Joses-MacBook-Pro-2.local at Wed Jul 16 20:15:41 2025
Module time:
	user time   =       2.95 seconds =       0.05 minutes
	system time =       0.99 seconds =       0.02 minutes
	total time  =          1 seconds =       0.02 minutes
Total time:
	user time   =     153.02 seconds =       2.55 minutes
	system time =      45.66 seconds =       0.76 minutes
	total time  =         19 seconds =       0.32 minutes

    			-----------------------------------------

    			 OPTKING 3.0: for geometry optimizations

    			     By R.A. King, Bethel University

    			        with contributions from

    			    A.V. Copan, J. Cayton, A. Heide

    			-----------------------------------------

	                            ===> Fragment 1 <==

	 Z (Atomic Numbers)          Masses                          Geom
	      14.000000            27.976927          0.00000000  0.00000000  1.97560155
	      16.000000            31.972071          0.00000000  0.00000000 -1.72873566

	 - Coordinate -           - BOHR/RAD -       - ANG/DEG -
	 R(1,2)           =         3.704337           1.960251

	        --- Internal Coordinate Step in ANG or DEG, aJ/ANG or AJ/DEG ---
	-------------------------------------------------------------------------------
	           Coordinate      Previous         Force          Change          New
	           ----------      --------        ------          ------        ------
	               R(1,2)       1.96025        0.00066        0.00013       1.96038
	-------------------------------------------------------------------------------

	                                 ==> Convergence Check <==

	Measures of convergence in internal coordinates in au.

	Criteria marked as inactive (o), active & met (*), and active & unmet ( ).

	----------------------------------------------------------------------------------------------
	   Step    Total Energy     Delta E     Max Force     RMS Force      Max Disp      RMS Disp
	----------------------------------------------------------------------------------------------
	  Convergence Criteria     1.00e-06 *    3.00e-04 *             o    1.20e-03 *             o
	----------------------------------------------------------------------------------------------
	    14    -687.73211021   -5.46e-07 *    8.02e-05 *    8.02e-05 o    2.48e-04 *    2.48e-04 o  ~
	----------------------------------------------------------------------------------------------

Next Geometry in Ang
	Fragment 1 (Ang)

	   Si   0.0000000000   0.0000000000   1.0455088328
	    S   0.0000000000   0.0000000000  -0.9148730272

    Final optimized geometry and variables:
    Molecular point group: c2v
    Full point group: C_inf_v

    Geometry (in Angstrom), charge = 0, multiplicity = 1:

    SI           0.000000000000     0.000000000000     1.045443319617
    S            0.000000000000     0.000000000000    -0.914807514018

    Psi4 stopped on: Wednesday, 16 July 2025 08:15PM
    Psi4 wall time for execution: 0:00:19.37

*** Psi4 exiting successfully. Buy a developer a beer!
