                               Psi4 1.9.1 release

  ==> Input File <==

--------------------------------------------------------------------------
molecule {
0 1
S   0.00000        0.60000        0.00000
S   0.00000       -0.60000        0.00000
}

set {
basis              cc-pvdz
reference          uks
maxiter            500
geom_maxiter       500
DAMPING_PERCENTAGE 1
guess              SAP
}

optimize('b3lyp')
--------------------------------------------------------------------------

    Molecular point group: d2h
  Charge       = 0
  Multiplicity = 1
  Basis Set: CC-PVDZ
    Blend: CC-PVDZ
  Basis Set: (CC-PVDZ AUX)
    Blend: CC-PVDZ-JKFIT
  @DF-UKS Final Energy:  -795.16990306750222
    Total Energy =                       -795.1699030675023323
 Dipole X            :          0.0000000            0.0000000            0.0000000
 Dipole Y            :          0.0000000            0.0000000            0.0000000
 Dipole Z            :          0.0000000            0.0000000            0.0000000
 Magnitude           :                                                    0.0000000
    Molecular point group: d2h
  Basis Set: CC-PVDZ
    Blend: CC-PVDZ
  Basis Set: (CC-PVDZ AUX)
    Blend: CC-PVDZ-JKFIT
  Basis Set: CC-PVDZ
    Blend: CC-PVDZ
  Basis Set: (CC-PVDZ AUX)
    Blend: CC-PVDZ-JKFIT
  @DF-UKS Final Energy:  -795.21416944428643
    Total Energy =                       -795.2141694442864264
  Basis Set: CC-PVDZ
    Blend: CC-PVDZ
  Basis Set: (CC-PVDZ AUX)
    Blend: CC-PVDZ-JKFIT
  Basis Set: CC-PVDZ
    Blend: CC-PVDZ
  @DF-UKS Final Energy:  -795.29586682930267
    Total Energy =                       -795.2958668293026676
  @DF-UKS Final Energy:  -795.55780138846512
    Total Energy =                       -795.5578013884651227
  @DF-UKS Final Energy:  -796.06372529765008
    Total Energy =                       -796.0637252976500804
  @DF-UKS Final Energy:  -796.22391792601400
    Total Energy =                       -796.2239179260139963
  @DF-UKS Final Energy:  -796.31716947869631
    Total Energy =                       -796.3171694786963144
  @DF-UKS Final Energy:  -796.34875697686402
    Total Energy =                       -796.3487569768640242
  @DF-UKS Final Energy:  -796.36239952755966
    Total Energy =                       -796.3623995275595462
  @DF-UKS Final Energy:  -796.36721359598221
    Total Energy =                       -796.3672135959822072
  @DF-UKS Final Energy:  -796.36809502971778
    Total Energy =                       -796.3680950297177787
  @DF-UKS Final Energy:  -796.36827507994030
    Total Energy =                       -796.3682750799403038
  @DF-UKS Final Energy:  -796.36831912812227
    Total Energy =                       -796.3683191281221525
  Basis Set: (CC-PVDZ AUX)
    Blend: CC-PVDZ-JKFIT
  Basis Set: CC-PVDZ
    Blend: CC-PVDZ
  Basis Set: (CC-PVDZ AUX)
    Blend: CC-PVDZ-JKFIT
  @DF-UKS Final Energy:  -796.36832465863904
    Total Energy =                       -796.3683246586390396
  Basis Set: CC-PVDZ
    Blend: CC-PVDZ
  Basis Set: (CC-PVDZ AUX)
    Blend: CC-PVDZ-JKFIT
  Charge       = 0
  Multiplicity = 1
  Basis Set: CC-PVDZ
    Blend: CC-PVDZ
  Basis Set: (CC-PVDZ AUX)
    Blend: CC-PVDZ-JKFIT

    Orbital Energies [Eh]
    ---------------------

    Alpha Occupied:

       1Ag   -88.931928     1B2u  -88.931927     2Ag    -7.992122
       2B2u   -7.992109     1B3u   -5.957485     1B1g   -5.957438
       3Ag    -5.955140     3B2u   -5.954537     1B1u   -5.943243
       1B3g   -5.943199     4Ag    -0.823184     4B2u   -0.611982
       5Ag    -0.389254     2B3u   -0.357192     2B1u   -0.343627
       2B3g   -0.213639

    Alpha Virtual:

       2B1g   -0.179344     5B2u   -0.003370     6Ag     0.306819
       3B3u    0.402887     3B1u    0.423862     6B2u    0.439185
       7Ag     0.448367     4B3u    0.463227     4B1u    0.482960
       3B1g    0.499883     3B3g    0.516089     1B2g    0.526191
       8Ag     0.527957     1Au     0.624766     7B2u    0.625787
       8B2u    0.673961     9Ag     0.807530     4B1g    0.837302
       4B3g    0.859894     9B2u    1.223033

    Beta Occupied:

       1Ag   -88.931928     1B2u  -88.931927     2Ag    -7.992122
       2B2u   -7.992109     1B3u   -5.957485     1B1g   -5.957438
       3Ag    -5.955140     3B2u   -5.954537     1B1u   -5.943243
       1B3g   -5.943199     4Ag    -0.823184     4B2u   -0.611982
       5Ag    -0.389254     2B3u   -0.357192     2B1u   -0.343627
       2B3g   -0.213639

    Beta Virtual:

       2B1g   -0.179344     5B2u   -0.003370     6Ag     0.306819
       3B3u    0.402887     3B1u    0.423862     6B2u    0.439185
       7Ag     0.448367     4B3u    0.463227     4B1u    0.482960
       3B1g    0.499883     3B3g    0.516089     1B2g    0.526191
       8Ag     0.527957     1Au     0.624766     7B2u    0.625787
       8B2u    0.673961     9Ag     0.807530     4B1g    0.837302
       4B3g    0.859894     9B2u    1.223033

    Final Occupation by Irrep:
             Ag   B1g   B2g   B3g    Au   B1u   B2u   B3u
    DOCC [     5,    1,    0,    2,    0,    2,    4,    2 ]
    SOCC [     0,    0,    0,    0,    0,    0,    0,    0 ]
    NA   [     5,    1,    0,    2,    0,    2,    4,    2 ]
    NB   [     5,    1,    0,    2,    0,    2,    4,    2 ]

  @DF-UKS Final Energy:  -796.36832492473854

   => Energetics <=

    Nuclear Repulsion Energy =             69.9600989771880393
    One-Electron Energy =               -1238.6481043928847612
    Two-Electron Energy =                 413.6779186115559241
    DFT Exchange-Correlation Energy =     -41.3582381205977185
    Empirical Dispersion Energy =           0.0000000000000000
    VV10 Nonlocal Energy =                  0.0000000000000000
    Total Energy =                       -796.3683249247385447

  UHF NO Occupations:
  HONO-2 :    4B2u 2.0000000
  HONO-1 :    4 Ag 2.0000000
  HONO-0 :    5 Ag 2.0000000
  LUNO+0 :    3B3u 0.0000000
  LUNO+1 :    6 Ag 0.0000000
  LUNO+2 :    5B2u 0.0000000
  LUNO+3 :    7 Ag 0.0000000

Computation Completed

Properties will be evaluated at   0.000000,   0.000000,   0.000000 [a0]

Properties computed using the SCF density matrix

 Multipole Moments:

 ------------------------------------------------------------------------------------
     Multipole            Electronic (a.u.)      Nuclear  (a.u.)        Total (a.u.)
 ------------------------------------------------------------------------------------

 L = 1.  Multiply by 2.5417464519 to convert [e a0] to [Debye]
 Dipole X            :          0.0000000            0.0000000            0.0000000
 Dipole Y            :          0.0000000            0.0000000            0.0000000
 Dipole Z            :          0.0000000            0.0000000            0.0000000
 Magnitude           :                                                    0.0000000

 ------------------------------------------------------------------------------------

*** tstop() called on Joses-MacBook-Pro-2.local at Wed Jul 16 20:28:13 2025
Module time:
	user time   =      22.59 seconds =       0.38 minutes
	system time =       2.82 seconds =       0.05 minutes
	total time  =          3 seconds =       0.05 minutes
Total time:
	user time   =     461.26 seconds =       7.69 minutes
	system time =      78.66 seconds =       1.31 minutes
	total time  =         56 seconds =       0.93 minutes

*** tstart() called on Joses-MacBook-Pro-2.local
*** at Wed Jul 16 20:28:13 2025

         ------------------------------------------------------------
                                   SCF GRAD
                          Rob Parrish, Justin Turney,
                       Andy Simmonett, and Alex Sokolov
         ------------------------------------------------------------

  ==> Geometry <==

    Molecular point group: d2h
    Full point group: D_inf_h

    Geometry (in Angstrom), charge = 0, multiplicity = 1:

       Center              X                  Y                   Z               Mass
    ------------   -----------------  -----------------  -----------------  -----------------
         S           -0.000000000000     0.968190210649     0.000000000000    31.972071174400
         S            0.000000000000    -0.968190210649     0.000000000000    31.972071174400

  Nuclear repulsion =   69.960098977188039

  ==> Basis Set <==

  Basis Set: CC-PVDZ
    Blend: CC-PVDZ
    Number of shells: 16
    Number of basis functions: 36
    Number of Cartesian functions: 38
    Spherical Harmonics?: true
    Max angular momentum: 2

  ==> DFJKGrad: Density-Fitted SCF Gradients <==

    Gradient:                    1
    J tasked:                  Yes
    K tasked:                  Yes
    wK tasked:                  No
    OpenMP threads:              1
    Integrals threads:           1
    Memory [MiB]:              375
    Schwarz Cutoff:          1E-12
    Fitting Condition:       1E-10

   => Auxiliary Basis Set <=

  Basis Set: (CC-PVDZ AUX)
    Blend: CC-PVDZ-JKFIT
    Number of shells: 72
    Number of basis functions: 224
    Number of Cartesian functions: 260
    Spherical Harmonics?: true
    Max angular momentum: 3

  ==> DFT Potential <==

   => LibXC <=

    Version 6.2.2
    S. Lehtola, C. Steigemann, M. J.T. Oliveira, and M. A.L. Marques.,  SoftwareX 7, 1â€“5 (2018) (10.1016/j.softx.2017.11.002)

   => Composite Functional: B3LYP <=

    B3LYP Hyb-GGA Exchange-Correlation Functional

    P. J. Stephens, F. J. Devlin, C. F. Chabalowski, and M. J. Frisch.,  J. Phys. Chem. 98, 11623 (1994) (10.1021/j100096a001)

    Deriv               =              1
    GGA                 =           TRUE
    Meta                =          FALSE

    Exchange Hybrid     =           TRUE
    MP2 Hybrid          =          FALSE

   => Exchange Functionals <=

    0.0800   Slater exchange
    0.7200         Becke 88

   => Exact (HF) Exchange <=

    0.2000               HF

   => Correlation Functionals <=

    0.1900   Vosko, Wilk & Nusair (VWN5_RPA)
    0.8100   Lee, Yang & Parr

   => LibXC Density Thresholds  <==

    XC_HYB_GGA_XC_B3LYP:  1.00E-15

   => Molecular Quadrature <=

    Radial Scheme          =       TREUTLER
    Pruning Scheme         =           NONE
    Nuclear Scheme         =       TREUTLER

    Blocking Scheme        =         OCTREE
    BS radius alpha        =              1
    Pruning alpha          =              1
    Radial Points          =             75
    Spherical Points       =            302
    Total Points           =          40222
    Total Blocks           =            372
    Max Points             =            255
    Max Functions          =             36
    Weights Tolerance      =       1.00E-15

  -Total Gradient:
     Atom            X                  Y                   Z
    ------   -----------------  -----------------  -----------------
       1        0.000000000000    -0.000041244748     0.000000000000
       2       -0.000000000000     0.000041244748     0.000000000000

*** tstop() called on Joses-MacBook-Pro-2.local at Wed Jul 16 20:28:13 2025
Module time:
	user time   =       5.45 seconds =       0.09 minutes
	system time =       1.58 seconds =       0.03 minutes
	total time  =          0 seconds =       0.00 minutes
Total time:
	user time   =     466.71 seconds =       7.78 minutes
	system time =      80.25 seconds =       1.34 minutes
	total time  =         56 seconds =       0.93 minutes

    			-----------------------------------------

    			 OPTKING 3.0: for geometry optimizations

    			     By R.A. King, Bethel University

    			        with contributions from

    			    A.V. Copan, J. Cayton, A. Heide

    			-----------------------------------------

	                            ===> Fragment 1 <==

	 Z (Atomic Numbers)          Masses                          Geom
	      16.000000            31.972071         -0.00000000  1.82961434  0.00000000
	      16.000000            31.972071          0.00000000 -1.82961434  0.00000000

	 - Coordinate -           - BOHR/RAD -       - ANG/DEG -
	 R(1,2)           =         3.659229           1.936380

	        --- Internal Coordinate Step in ANG or DEG, aJ/ANG or AJ/DEG ---
	-------------------------------------------------------------------------------
	           Coordinate      Previous         Force          Change          New
	           ----------      --------        ------          ------        ------
	               R(1,2)       1.93638        0.00034        0.00007       1.93645
	-------------------------------------------------------------------------------

	                                 ==> Convergence Check <==

	Measures of convergence in internal coordinates in au.

	Criteria marked as inactive (o), active & met (*), and active & unmet ( ).

	----------------------------------------------------------------------------------------------
	   Step    Total Energy     Delta E     Max Force     RMS Force      Max Disp      RMS Disp
	----------------------------------------------------------------------------------------------
	  Convergence Criteria     1.00e-06 *    3.00e-04 *             o    1.20e-03 *             o
	----------------------------------------------------------------------------------------------
	    15    -796.36832492   -2.66e-07 *    4.12e-05 *    4.12e-05 o    1.33e-04 *    1.33e-04 o  ~
	----------------------------------------------------------------------------------------------

Next Geometry in Ang
	Fragment 1 (Ang)

	    S  -0.0000000000   0.9682254957   0.0000000000
	    S   0.0000000000  -0.9682254957   0.0000000000

    Final optimized geometry and variables:
    Molecular point group: d2h
    Full point group: D_inf_h

    Geometry (in Angstrom), charge = 0, multiplicity = 1:

    S           -0.000000000000     0.968190210649     0.000000000000
    S            0.000000000000    -0.968190210649     0.000000000000

    Psi4 stopped on: Wednesday, 16 July 2025 08:28PM
    Psi4 wall time for execution: 0:00:56.84

*** Psi4 exiting successfully. Buy a developer a beer!
