                               Psi4 1.9.1 release

  ==> Input File <==

--------------------------------------------------------------------------
molecule {
0 1
S   0.00000        0.60000        0.00000
Ar   0.00000       -0.60000        0.00000
}

set {
basis              cc-pvdz
reference          uks
maxiter            500
geom_maxiter       500
DAMPING_PERCENTAGE 1
guess              SAP
}

optimize('b3lyp')
--------------------------------------------------------------------------

    Molecular point group: c2v
  Charge       = 0
  Multiplicity = 1
  Basis Set: CC-PVDZ
    Blend: CC-PVDZ
  Basis Set: (CC-PVDZ AUX)
    Blend: CC-PVDZ-JKFIT
  @DF-UKS Final Energy:  -924.25719338938006
    Total Energy =                       -924.2571933893800633
 Dipole X            :          0.0000000            0.0000000            0.0000000
 Dipole Y            :          0.0000000            0.0000000            0.0000000
 Dipole Z            :         -3.5843455            2.0144189           -1.5699266
 Magnitude           :                                                    1.5699266
    Molecular point group: c2v
  Basis Set: CC-PVDZ
    Blend: CC-PVDZ
  Basis Set: (CC-PVDZ AUX)
    Blend: CC-PVDZ-JKFIT
  Basis Set: CC-PVDZ
    Blend: CC-PVDZ
  Basis Set: (CC-PVDZ AUX)
    Blend: CC-PVDZ-JKFIT
  @DF-UKS Final Energy:  -924.30536291661679
    Total Energy =                       -924.3053629166167866
  Basis Set: CC-PVDZ
    Blend: CC-PVDZ
  Basis Set: (CC-PVDZ AUX)
    Blend: CC-PVDZ-JKFIT
  Basis Set: CC-PVDZ
    Blend: CC-PVDZ
  @DF-UKS Final Energy:  -924.39360216874707
    Total Energy =                       -924.3936021687470657
  @DF-UKS Final Energy:  -924.67189571460619
    Total Energy =                       -924.6718957146061939
  @DF-UKS Final Energy:  -925.17893029895595
    Total Energy =                       -925.1789302989559474
  @DF-UKS Final Energy:  -925.36133831123175
    Total Energy =                       -925.3613383112318616
  @DF-UKS Final Energy:  -925.48262901968633
    Total Energy =                       -925.4826290196863283
  @DF-UKS Final Energy:  -925.54069210521789
    Total Energy =                       -925.5406921052178859
  @DF-UKS Final Energy:  -925.57504409701949
    Total Energy =                       -925.5750440970194859
  @DF-UKS Final Energy:  -925.59545251916438
    Total Energy =                       -925.5954525191643825
  @DF-UKS Final Energy:  -925.60614618022282
    Total Energy =                       -925.6061461802228223
  @DF-UKS Final Energy:  -925.61142980010800
    Total Energy =                       -925.6114298001079987
  @DF-UKS Final Energy:  -925.61383341984356
    Total Energy =                       -925.6138334198435587
  @DF-UKS Final Energy:  -925.61476379245084
    Total Energy =                       -925.6147637924508444
  @DF-UKS Final Energy:  -925.61500201406227
    Total Energy =                       -925.6150020140623838
  @DF-UKS Final Energy:  -925.61508601021933
    Total Energy =                       -925.6150860102193292
  @DF-UKS Final Energy:  -925.61510243729560
    Total Energy =                       -925.6151024372956044
  Basis Set: (CC-PVDZ AUX)
    Blend: CC-PVDZ-JKFIT
  Basis Set: CC-PVDZ
    Blend: CC-PVDZ
  Basis Set: (CC-PVDZ AUX)
    Blend: CC-PVDZ-JKFIT
  @DF-UKS Final Energy:  -925.61510626721986
    Total Energy =                       -925.6151062672198577
  Basis Set: CC-PVDZ
    Blend: CC-PVDZ
  Basis Set: (CC-PVDZ AUX)
    Blend: CC-PVDZ-JKFIT
  Charge       = 0
  Multiplicity = 1
  Basis Set: CC-PVDZ
    Blend: CC-PVDZ
  Basis Set: (CC-PVDZ AUX)
    Blend: CC-PVDZ-JKFIT

    Orbital Energies [Eh]
    ---------------------

    Alpha Occupied:

       1A1  -115.170079     2A1   -88.907728     3A1   -11.206088
       4A1    -8.758315     1B1    -8.754678     1B2    -8.754678
       5A1    -7.963112     6A1    -5.939333     2B1    -5.915180
       2B2    -5.915180     7A1    -1.032593     8A1    -0.665065
       9A1    -0.491173     3B1    -0.480998     3B2    -0.480998
       4B2    -0.247216     4B1    -0.247216

    Alpha Virtual:

      10A1    -0.183588    11A1     0.457096     5B2     0.474068
       5B1     0.474068    12A1     0.498180     6B2     0.535799
       6B1     0.535799    13A1     0.541408    14A1     0.614301
      15A1     0.626210     1A2     0.626214     7B1     0.635223
       7B2     0.635223    16A1     0.735023     2A2     0.777563
      17A1     0.777569     8B2     0.800589     8B1     0.800589
      18A1     1.159233

    Beta Occupied:

       1A1  -115.170079     2A1   -88.907728     3A1   -11.206088
       4A1    -8.758315     1B1    -8.754678     1B2    -8.754678
       5A1    -7.963112     6A1    -5.939333     2B2    -5.915180
       2B1    -5.915180     7A1    -1.032593     8A1    -0.665065
       9A1    -0.491173     3B1    -0.480998     3B2    -0.480998
       4B2    -0.247216     4B1    -0.247216

    Beta Virtual:

      10A1    -0.183588    11A1     0.457096     5B2     0.474068
       5B1     0.474068    12A1     0.498180     6B2     0.535799
       6B1     0.535799    13A1     0.541408    14A1     0.614301
      15A1     0.626210     1A2     0.626214     7B1     0.635223
       7B2     0.635223    16A1     0.735023     2A2     0.777563
      17A1     0.777569     8B2     0.800589     8B1     0.800589
      18A1     1.159233

    Final Occupation by Irrep:
             A1    A2    B1    B2
    DOCC [     9,    0,    4,    4 ]
    SOCC [     0,    0,    0,    0 ]
    NA   [     9,    0,    4,    4 ]
    NB   [     9,    0,    4,    4 ]

  @DF-UKS Final Energy:  -925.61510664649234

   => Energetics <=

    Nuclear Repulsion Energy =             61.3959058636671742
    One-Electron Energy =               -1399.8119167278546229
    Two-Electron Energy =                 458.3270355544685799
    DFT Exchange-Correlation Energy =     -45.5261313367735028
    Empirical Dispersion Energy =           0.0000000000000000
    VV10 Nonlocal Energy =                  0.0000000000000000
    Total Energy =                       -925.6151066464923360

  UHF NO Occupations:
  HONO-2 :    4 B2 2.0000000
  HONO-1 :    8 A1 2.0000000
  HONO-0 :    9 A1 2.0000000
  LUNO+0 :   10 A1 0.0000000
  LUNO+1 :    5 B1 0.0000000
  LUNO+2 :   11 A1 0.0000000
  LUNO+3 :   12 A1 0.0000000

Computation Completed

Properties will be evaluated at   0.000000,   0.000000,   0.000000 [a0]

Properties computed using the SCF density matrix

 Multipole Moments:

 ------------------------------------------------------------------------------------
     Multipole            Electronic (a.u.)      Nuclear  (a.u.)        Total (a.u.)
 ------------------------------------------------------------------------------------

 L = 1.  Multiply by 2.5417464519 to convert [e a0] to [Debye]
 Dipole X            :          0.0000000            0.0000000            0.0000000
 Dipole Y            :          0.0000000            0.0000000            0.0000000
 Dipole Z            :         -4.9137472            4.1669928           -0.7467544
 Magnitude           :                                                    0.7467544

 ------------------------------------------------------------------------------------

*** tstop() called on Joses-MacBook-Pro-2.local at Wed Jul 16 20:30:52 2025
Module time:
	user time   =       6.77 seconds =       0.11 minutes
	system time =       1.37 seconds =       0.02 minutes
	total time  =          1 seconds =       0.02 minutes
Total time:
	user time   =     197.48 seconds =       3.29 minutes
	system time =      55.33 seconds =       0.92 minutes
	total time  =         24 seconds =       0.40 minutes

*** tstart() called on Joses-MacBook-Pro-2.local
*** at Wed Jul 16 20:30:52 2025

         ------------------------------------------------------------
                                   SCF GRAD
                          Rob Parrish, Justin Turney,
                       Andy Simmonett, and Alex Sokolov
         ------------------------------------------------------------

  ==> Geometry <==

    Molecular point group: c2v
    Full point group: C_inf_v

    Geometry (in Angstrom), charge = 0, multiplicity = 1:

       Center              X                  Y                   Z               Mass
    ------------   -----------------  -----------------  -----------------  -----------------
         S            0.000000000000     0.000000000000     1.379013871496    31.972071174400
         AR           0.000000000000     0.000000000000    -1.103285795381    39.962383123700

  Nuclear repulsion =   61.395905863667174

  ==> Basis Set <==

  Basis Set: CC-PVDZ
    Blend: CC-PVDZ
    Number of shells: 16
    Number of basis functions: 36
    Number of Cartesian functions: 38
    Spherical Harmonics?: true
    Max angular momentum: 2

  ==> DFJKGrad: Density-Fitted SCF Gradients <==

    Gradient:                    1
    J tasked:                  Yes
    K tasked:                  Yes
    wK tasked:                  No
    OpenMP threads:              1
    Integrals threads:           1
    Memory [MiB]:              375
    Schwarz Cutoff:          1E-12
    Fitting Condition:       1E-10

   => Auxiliary Basis Set <=

  Basis Set: (CC-PVDZ AUX)
    Blend: CC-PVDZ-JKFIT
    Number of shells: 72
    Number of basis functions: 224
    Number of Cartesian functions: 260
    Spherical Harmonics?: true
    Max angular momentum: 3

  ==> DFT Potential <==

   => LibXC <=

    Version 6.2.2
    S. Lehtola, C. Steigemann, M. J.T. Oliveira, and M. A.L. Marques.,  SoftwareX 7, 1â€“5 (2018) (10.1016/j.softx.2017.11.002)

   => Composite Functional: B3LYP <=

    B3LYP Hyb-GGA Exchange-Correlation Functional

    P. J. Stephens, F. J. Devlin, C. F. Chabalowski, and M. J. Frisch.,  J. Phys. Chem. 98, 11623 (1994) (10.1021/j100096a001)

    Deriv               =              1
    GGA                 =           TRUE
    Meta                =          FALSE

    Exchange Hybrid     =           TRUE
    MP2 Hybrid          =          FALSE

   => Exchange Functionals <=

    0.0800   Slater exchange
    0.7200         Becke 88

   => Exact (HF) Exchange <=

    0.2000               HF

   => Correlation Functionals <=

    0.1900   Vosko, Wilk & Nusair (VWN5_RPA)
    0.8100   Lee, Yang & Parr

   => LibXC Density Thresholds  <==

    XC_HYB_GGA_XC_B3LYP:  1.00E-15

   => Molecular Quadrature <=

    Radial Scheme          =       TREUTLER
    Pruning Scheme         =           NONE
    Nuclear Scheme         =       TREUTLER

    Blocking Scheme        =         OCTREE
    BS radius alpha        =              1
    Pruning alpha          =              1
    Radial Points          =             75
    Spherical Points       =            302
    Total Points           =          40262
    Total Blocks           =            364
    Max Points             =            249
    Max Functions          =             36
    Weights Tolerance      =       1.00E-15

  -Total Gradient:
     Atom            X                  Y                   Z
    ------   -----------------  -----------------  -----------------
       1        0.000000000000    -0.000000000000    -0.000027214959
       2        0.000000000000     0.000000000000     0.000035266781

*** tstop() called on Joses-MacBook-Pro-2.local at Wed Jul 16 20:30:52 2025
Module time:
	user time   =       2.16 seconds =       0.04 minutes
	system time =       1.19 seconds =       0.02 minutes
	total time  =          0 seconds =       0.00 minutes
Total time:
	user time   =     199.64 seconds =       3.33 minutes
	system time =      56.52 seconds =       0.94 minutes
	total time  =         24 seconds =       0.40 minutes

    			-----------------------------------------

    			 OPTKING 3.0: for geometry optimizations

    			     By R.A. King, Bethel University

    			        with contributions from

    			    A.V. Copan, J. Cayton, A. Heide

    			-----------------------------------------

	                            ===> Fragment 1 <==

	 Z (Atomic Numbers)          Masses                          Geom
	      16.000000            31.972071          0.00000000  0.00000000  2.60595854
	      18.000000            39.962383          0.00000000  0.00000000 -2.08490799

	 - Coordinate -           - BOHR/RAD -       - ANG/DEG -
	 R(1,2)           =         4.690867           2.482300

	        --- Internal Coordinate Step in ANG or DEG, aJ/ANG or AJ/DEG ---
	-------------------------------------------------------------------------------
	           Coordinate      Previous         Force          Change          New
	           ----------      --------        ------          ------        ------
	               R(1,2)       2.48230        0.00026        0.00061       2.48291
	-------------------------------------------------------------------------------

	                                 ==> Convergence Check <==

	Measures of convergence in internal coordinates in au.

	Criteria marked as inactive (o), active & met (*), and active & unmet ( ).

	----------------------------------------------------------------------------------------------
	   Step    Total Energy     Delta E     Max Force     RMS Force      Max Disp      RMS Disp
	----------------------------------------------------------------------------------------------
	  Convergence Criteria     1.00e-06 *    3.00e-04 *             o    1.20e-03 *             o
	----------------------------------------------------------------------------------------------
	    19    -925.61510665   -3.79e-07 *    3.12e-05 *    3.12e-05 o    1.15e-03 *    1.15e-03 o  ~
	----------------------------------------------------------------------------------------------

Next Geometry in Ang
	Fragment 1 (Ang)

	    S   0.0000000000   0.0000000000   1.3793173628
	   Ar   0.0000000000   0.0000000000  -1.1035892867

    Final optimized geometry and variables:
    Molecular point group: c2v
    Full point group: C_inf_v

    Geometry (in Angstrom), charge = 0, multiplicity = 1:

    S            0.000000000000     0.000000000000     1.379013871496
    AR           0.000000000000     0.000000000000    -1.103285795381

    Psi4 stopped on: Wednesday, 16 July 2025 08:30PM
    Psi4 wall time for execution: 0:00:24.70

*** Psi4 exiting successfully. Buy a developer a beer!
