                               Psi4 1.9.1 release

  ==> Input File <==

--------------------------------------------------------------------------
molecule {
0 1
C   0.00000        0.60000        0.00000
Mg   0.00000       -0.60000        0.00000
}

set {
basis              cc-pvdz
reference          uks
maxiter            500
geom_maxiter       500
DAMPING_PERCENTAGE 1
guess              SAP
}

optimize('b3lyp')
--------------------------------------------------------------------------

    Molecular point group: c2v
  Charge       = 0
  Multiplicity = 1
  Basis Set: CC-PVDZ
    Blend: CC-PVDZ
  Basis Set: (CC-PVDZ AUX)
    Blend: CC-PVDZ-JKFIT + DEF2-UNIVERSAL-JKFIT
  @DF-UKS Final Energy:  -237.48083687076326
    Total Energy =                       -237.4808368707632553
 Dipole X            :          0.0000000            0.0000000            0.0000000
 Dipole Y            :          0.0000000            0.0000000            0.0000000
 Dipole Z            :         -2.3034404           -0.0056558           -2.3090962
 Magnitude           :                                                    2.3090962
    Molecular point group: c2v
  Basis Set: CC-PVDZ
    Blend: CC-PVDZ
  Basis Set: (CC-PVDZ AUX)
    Blend: CC-PVDZ-JKFIT + DEF2-UNIVERSAL-JKFIT
  Basis Set: CC-PVDZ
    Blend: CC-PVDZ
  Basis Set: (CC-PVDZ AUX)
    Blend: CC-PVDZ-JKFIT + DEF2-UNIVERSAL-JKFIT
  @DF-UKS Final Energy:  -237.61693664123482
    Total Energy =                       -237.6169366412348154
  Basis Set: CC-PVDZ
    Blend: CC-PVDZ
  Basis Set: (CC-PVDZ AUX)
    Blend: CC-PVDZ-JKFIT + DEF2-UNIVERSAL-JKFIT
  Basis Set: CC-PVDZ
    Blend: CC-PVDZ
  @DF-UKS Final Energy:  -237.72709356234884
    Total Energy =                       -237.7270935623488413
  @DF-UKS Final Energy:  -237.83269365446009
    Total Energy =                       -237.8326936544600869
  @DF-UKS Final Energy:  -237.92928366853312
    Total Energy =                       -237.9292836685331167
  @DF-UKS Final Energy:  -237.93095861845691
    Total Energy =                       -237.9309586184569127
  @DF-UKS Final Energy:  -237.93334924688887
    Total Energy =                       -237.9333492468888664
  @DF-UKS Final Energy:  -237.93351170893044
    Total Energy =                       -237.9335117089304390
  Basis Set: (CC-PVDZ AUX)
    Blend: CC-PVDZ-JKFIT + DEF2-UNIVERSAL-JKFIT
  Basis Set: CC-PVDZ
    Blend: CC-PVDZ
  Basis Set: (CC-PVDZ AUX)
    Blend: CC-PVDZ-JKFIT + DEF2-UNIVERSAL-JKFIT
  @DF-UKS Final Energy:  -237.93352389972546
    Total Energy =                       -237.9335238997254578
  Basis Set: CC-PVDZ
    Blend: CC-PVDZ
  Basis Set: (CC-PVDZ AUX)
    Blend: CC-PVDZ-JKFIT + DEF2-UNIVERSAL-JKFIT
  Charge       = 0
  Multiplicity = 1
  Basis Set: CC-PVDZ
    Blend: CC-PVDZ
  Basis Set: (CC-PVDZ AUX)
    Blend: CC-PVDZ-JKFIT + DEF2-UNIVERSAL-JKFIT

    Orbital Energies [Eh]
    ---------------------

    Alpha Occupied:

       1A1   -46.848946     2A1   -10.242960     3A1    -3.130956
       1B2    -1.875689     4A1    -1.873894     1B1    -1.873386
       5A1    -0.512125     6A1    -0.220518     2B1    -0.169105

    Alpha Virtual:

       2B2    -0.116783     7A1    -0.112503     3B1    -0.015169
       3B2    -0.015155     8A1     0.032058     9A1     0.095113
       4B2     0.150669     4B1     0.154225    10A1     0.223578
       1A2     0.303987    11A1     0.304577     5B2     0.340349
       5B1     0.347373    12A1     0.465307     6B2     0.566003
       6B1     0.574499    13A1     0.632559    14A1     0.868855
       2A2     1.208137    15A1     1.215442     7B2     1.294864
       7B1     1.317268    16A1     1.613833

    Beta Occupied:

       1A1   -46.848946     2A1   -10.242960     3A1    -3.130956
       1B2    -1.875689     4A1    -1.873894     1B1    -1.873386
       5A1    -0.512125     6A1    -0.220518     2B1    -0.169105

    Beta Virtual:

       2B2    -0.116783     7A1    -0.112503     3B1    -0.015169
       3B2    -0.015155     8A1     0.032058     9A1     0.095113
       4B2     0.150669     4B1     0.154225    10A1     0.223578
       1A2     0.303987    11A1     0.304577     5B2     0.340349
       5B1     0.347373    12A1     0.465307     6B2     0.566003
       6B1     0.574499    13A1     0.632559    14A1     0.868855
       2A2     1.208137    15A1     1.215442     7B2     1.294864
       7B1     1.317268    16A1     1.613833

    Final Occupation by Irrep:
             A1    A2    B1    B2
    DOCC [     6,    0,    2,    1 ]
    SOCC [     0,    0,    0,    0 ]
    NA   [     6,    0,    2,    1 ]
    NB   [     6,    0,    2,    1 ]

  @DF-UKS Final Energy:  -237.93352486699013

   => Energetics <=

    Nuclear Repulsion Energy =             18.0871467067278218
    One-Electron Energy =                -365.9925669713081220
    Two-Electron Energy =                 127.5009500753131420
    DFT Exchange-Correlation Energy =     -17.5290546777229785
    Empirical Dispersion Energy =           0.0000000000000000
    VV10 Nonlocal Energy =                  0.0000000000000000
    Total Energy =                       -237.9335248669901262

  UHF NO Occupations:
  HONO-2 :    1 B2 2.0000000
  HONO-1 :    5 A1 2.0000000
  HONO-0 :    6 A1 2.0000000
  LUNO+0 :    7 A1 0.0000000
  LUNO+1 :    8 A1 0.0000000
  LUNO+2 :    9 A1 0.0000000
  LUNO+3 :    2 B2 0.0000000

Computation Completed

Properties will be evaluated at   0.000000,   0.000000,   0.000000 [a0]

Properties computed using the SCF density matrix

 Multipole Moments:

 ------------------------------------------------------------------------------------
     Multipole            Electronic (a.u.)      Nuclear  (a.u.)        Total (a.u.)
 ------------------------------------------------------------------------------------

 L = 1.  Multiply by 2.5417464519 to convert [e a0] to [Debye]
 Dipole X            :          0.0000000            0.0000000            0.0000000
 Dipole Y            :          0.0000000            0.0000000            0.0000000
 Dipole Z            :         -1.4271119           -0.0099283           -1.4370402
 Magnitude           :                                                    1.4370402

 ------------------------------------------------------------------------------------

*** tstop() called on Joses-MacBook-Pro-2.local at Wed Jul 16 19:02:08 2025
Module time:
	user time   =       3.74 seconds =       0.06 minutes
	system time =       3.35 seconds =       0.06 minutes
	total time  =          1 seconds =       0.02 minutes
Total time:
	user time   =      55.61 seconds =       0.93 minutes
	system time =      51.02 seconds =       0.85 minutes
	total time  =         11 seconds =       0.18 minutes

*** tstart() called on Joses-MacBook-Pro-2.local
*** at Wed Jul 16 19:02:08 2025

         ------------------------------------------------------------
                                   SCF GRAD
                          Rob Parrish, Justin Turney,
                       Andy Simmonett, and Alex Sokolov
         ------------------------------------------------------------

  ==> Geometry <==

    Molecular point group: c2v
    Full point group: C_inf_v

    Geometry (in Angstrom), charge = 0, multiplicity = 1:

       Center              X                  Y                   Z               Mass
    ------------   -----------------  -----------------  -----------------  -----------------
         C            0.000000000000     0.000000000000     1.404048259701    12.000000000000
         MG           0.000000000000     0.000000000000    -0.702461948128    23.985041697000

  Nuclear repulsion =   18.087146706727822

  ==> Basis Set <==

  Basis Set: CC-PVDZ
    Blend: CC-PVDZ
    Number of shells: 14
    Number of basis functions: 32
    Number of Cartesian functions: 34
    Spherical Harmonics?: true
    Max angular momentum: 2

  ==> DFJKGrad: Density-Fitted SCF Gradients <==

    Gradient:                    1
    J tasked:                  Yes
    K tasked:                  Yes
    wK tasked:                  No
    OpenMP threads:              1
    Integrals threads:           1
    Memory [MiB]:              375
    Schwarz Cutoff:          1E-12
    Fitting Condition:       1E-10

   => Auxiliary Basis Set <=

  Basis Set: (CC-PVDZ AUX)
    Blend: CC-PVDZ-JKFIT + DEF2-UNIVERSAL-JKFIT
    Number of shells: 58
    Number of basis functions: 182
    Number of Cartesian functions: 218
    Spherical Harmonics?: true
    Max angular momentum: 4

  ==> DFT Potential <==

   => LibXC <=

    Version 6.2.2
    S. Lehtola, C. Steigemann, M. J.T. Oliveira, and M. A.L. Marques.,  SoftwareX 7, 1â€“5 (2018) (10.1016/j.softx.2017.11.002)

   => Composite Functional: B3LYP <=

    B3LYP Hyb-GGA Exchange-Correlation Functional

    P. J. Stephens, F. J. Devlin, C. F. Chabalowski, and M. J. Frisch.,  J. Phys. Chem. 98, 11623 (1994) (10.1021/j100096a001)

    Deriv               =              1
    GGA                 =           TRUE
    Meta                =          FALSE

    Exchange Hybrid     =           TRUE
    MP2 Hybrid          =          FALSE

   => Exchange Functionals <=

    0.0800   Slater exchange
    0.7200         Becke 88

   => Exact (HF) Exchange <=

    0.2000               HF

   => Correlation Functionals <=

    0.1900   Vosko, Wilk & Nusair (VWN5_RPA)
    0.8100   Lee, Yang & Parr

   => LibXC Density Thresholds  <==

    XC_HYB_GGA_XC_B3LYP:  1.00E-15

   => Molecular Quadrature <=

    Radial Scheme          =       TREUTLER
    Pruning Scheme         =           NONE
    Nuclear Scheme         =       TREUTLER

    Blocking Scheme        =         OCTREE
    BS radius alpha        =              1
    Pruning alpha          =              1
    Radial Points          =             75
    Spherical Points       =            302
    Total Points           =          43464
    Total Blocks           =            414
    Max Points             =            256
    Max Functions          =             32
    Weights Tolerance      =       1.00E-15

  -Total Gradient:
     Atom            X                  Y                   Z
    ------   -----------------  -----------------  -----------------
       1        0.000000000000    -0.000000000000    -0.000131157963
       2        0.000000000000     0.000000000000     0.000109001353

*** tstop() called on Joses-MacBook-Pro-2.local at Wed Jul 16 19:02:08 2025
Module time:
	user time   =       1.12 seconds =       0.02 minutes
	system time =       1.46 seconds =       0.02 minutes
	total time  =          0 seconds =       0.00 minutes
Total time:
	user time   =      56.73 seconds =       0.95 minutes
	system time =      52.48 seconds =       0.87 minutes
	total time  =         11 seconds =       0.18 minutes

    			-----------------------------------------

    			 OPTKING 3.0: for geometry optimizations

    			     By R.A. King, Bethel University

    			        with contributions from

    			    A.V. Copan, J. Cayton, A. Heide

    			-----------------------------------------

	                            ===> Fragment 1 <==

	 Z (Atomic Numbers)          Masses                          Geom
	       6.000000            12.000000          0.00000000  0.00000000  2.65326668
	      12.000000            23.985042          0.00000000  0.00000000 -1.32746070

	 - Coordinate -           - BOHR/RAD -       - ANG/DEG -
	 R(1,2)           =         3.980727           2.106510

	        --- Internal Coordinate Step in ANG or DEG, aJ/ANG or AJ/DEG ---
	-------------------------------------------------------------------------------
	           Coordinate      Previous         Force          Change          New
	           ----------      --------        ------          ------        ------
	               R(1,2)       2.10651        0.00099        0.00059       2.10710
	-------------------------------------------------------------------------------

	                                 ==> Convergence Check <==

	Measures of convergence in internal coordinates in au.

	Criteria marked as inactive (o), active & met (*), and active & unmet ( ).

	----------------------------------------------------------------------------------------------
	   Step    Total Energy     Delta E     Max Force     RMS Force      Max Disp      RMS Disp
	----------------------------------------------------------------------------------------------
	  Convergence Criteria     1.00e-06 *    3.00e-04 *             o    1.20e-03 *             o
	----------------------------------------------------------------------------------------------
	    10    -237.93352487   -9.67e-07 *    1.20e-04 *    1.20e-04 o    1.11e-03 *    1.11e-03 o  ~
	----------------------------------------------------------------------------------------------

Next Geometry in Ang
	Fragment 1 (Ang)

	    C   0.0000000000   0.0000000000   1.4043411450
	   Mg   0.0000000000   0.0000000000  -0.7027548335

    Final optimized geometry and variables:
    Molecular point group: c2v
    Full point group: C_inf_v

    Geometry (in Angstrom), charge = 0, multiplicity = 1:

    C            0.000000000000     0.000000000000     1.404048259701
    MG           0.000000000000     0.000000000000    -0.702461948128

    Psi4 stopped on: Wednesday, 16 July 2025 07:02PM
    Psi4 wall time for execution: 0:00:11.24

*** Psi4 exiting successfully. Buy a developer a beer!
