                               Psi4 1.9.1 release

  ==> Input File <==

--------------------------------------------------------------------------
molecule {
0 1
C   0.00000        0.60000        0.00000
C   0.00000       -0.60000        0.00000
}

set {
basis              cc-pvdz
reference          uks
maxiter            500
geom_maxiter       500
DAMPING_PERCENTAGE 1
guess              SAP
}

optimize('b3lyp')
--------------------------------------------------------------------------

    Molecular point group: d2h
  Charge       = 0
  Multiplicity = 1
  Basis Set: CC-PVDZ
    Blend: CC-PVDZ
  Basis Set: (CC-PVDZ AUX)
    Blend: CC-PVDZ-JKFIT
  @DF-UKS Final Energy:   -75.88310892446975
    Total Energy =                        -75.8831089244697665
 Dipole X            :          0.0000000            0.0000000            0.0000000
 Dipole Y            :          0.0000000            0.0000000            0.0000000
 Dipole Z            :          0.0000000            0.0000000            0.0000000
 Magnitude           :                                                    0.0000000
    Molecular point group: d2h
  Basis Set: CC-PVDZ
    Blend: CC-PVDZ
  Basis Set: (CC-PVDZ AUX)
    Blend: CC-PVDZ-JKFIT
  Basis Set: CC-PVDZ
    Blend: CC-PVDZ
  Basis Set: (CC-PVDZ AUX)
    Blend: CC-PVDZ-JKFIT
  @DF-UKS Final Energy:   -75.88921546089958
    Total Energy =                        -75.8892154608995781
  Basis Set: CC-PVDZ
    Blend: CC-PVDZ
  Basis Set: (CC-PVDZ AUX)
    Blend: CC-PVDZ-JKFIT
  Basis Set: CC-PVDZ
    Blend: CC-PVDZ
  Basis Set: (CC-PVDZ AUX)
    Blend: CC-PVDZ-JKFIT
  @DF-UKS Final Energy:   -75.88925455519040
    Total Energy =                        -75.8892545551904192
  Basis Set: CC-PVDZ
    Blend: CC-PVDZ
  Basis Set: (CC-PVDZ AUX)
    Blend: CC-PVDZ-JKFIT
  Charge       = 0
  Multiplicity = 1
  Basis Set: CC-PVDZ
    Blend: CC-PVDZ
  Basis Set: (CC-PVDZ AUX)
    Blend: CC-PVDZ-JKFIT

    Orbital Energies [Eh]
    ---------------------

    Alpha Occupied:

       1Ag   -10.299072     1B2u  -10.297731     2Ag    -0.786994
       2B2u   -0.411628     1B3u   -0.324662     1B1u   -0.324662

    Alpha Virtual:

       3Ag    -0.260312     1B3g    0.001686     1B1g    0.001686
       3B2u    0.267567     4Ag     0.414140     2B3u    0.440278
       2B1u    0.440278     5Ag     0.539218     2B3g    0.546373
       2B1g    0.546373     4B2u    0.637294     1B2g    0.999285
       6Ag     0.999285     5B2u    1.035666     3B1u    1.100751
       3B3u    1.100751     1Au     1.362516     6B2u    1.362516
       7Ag     1.756754     3B1g    1.809578     3B3g    1.809578
       7B2u    2.026966

    Beta Occupied:

       1Ag   -10.299072     1B2u  -10.297731     2Ag    -0.786994
       2B2u   -0.411628     1B3u   -0.324662     1B1u   -0.324662

    Beta Virtual:

       3Ag    -0.260312     1B3g    0.001686     1B1g    0.001686
       3B2u    0.267567     4Ag     0.414140     2B3u    0.440278
       2B1u    0.440278     5Ag     0.539218     2B3g    0.546373
       2B1g    0.546373     4B2u    0.637294     1B2g    0.999285
       6Ag     0.999285     5B2u    1.035666     3B1u    1.100751
       3B3u    1.100751     1Au     1.362516     6B2u    1.362516
       7Ag     1.756754     3B1g    1.809578     3B3g    1.809578
       7B2u    2.026966

    Final Occupation by Irrep:
             Ag   B1g   B2g   B3g    Au   B1u   B2u   B3u
    DOCC [     2,    0,    0,    0,    0,    1,    2,    1 ]
    SOCC [     0,    0,    0,    0,    0,    0,    0,    0 ]
    NA   [     2,    0,    0,    0,    0,    1,    2,    1 ]
    NB   [     2,    0,    0,    0,    0,    1,    2,    1 ]

  @DF-UKS Final Energy:   -75.88925573564487

   => Energetics <=

    Nuclear Repulsion Energy =             15.1029387767458338
    One-Electron Energy =                -130.9360498298232471
    Two-Electron Energy =                  48.4845670120452610
    DFT Exchange-Correlation Energy =      -8.5407116946127193
    Empirical Dispersion Energy =           0.0000000000000000
    VV10 Nonlocal Energy =                  0.0000000000000000
    Total Energy =                        -75.8892557356448805

  UHF NO Occupations:
  HONO-2 :    1B1u 2.0000000
  HONO-1 :    1B3u 2.0000000
  HONO-0 :    2B2u 2.0000000
  LUNO+0 :    3 Ag 0.0000000
  LUNO+1 :    3B2u 0.0000000
  LUNO+2 :    4 Ag 0.0000000
  LUNO+3 :    2B3u 0.0000000

Computation Completed

Properties will be evaluated at   0.000000,   0.000000,   0.000000 [a0]

Properties computed using the SCF density matrix

 Multipole Moments:

 ------------------------------------------------------------------------------------
     Multipole            Electronic (a.u.)      Nuclear  (a.u.)        Total (a.u.)
 ------------------------------------------------------------------------------------

 L = 1.  Multiply by 2.5417464519 to convert [e a0] to [Debye]
 Dipole X            :          0.0000000            0.0000000            0.0000000
 Dipole Y            :          0.0000000            0.0000000            0.0000000
 Dipole Z            :          0.0000000            0.0000000            0.0000000
 Magnitude           :                                                    0.0000000

 ------------------------------------------------------------------------------------

*** tstop() called on Joses-MacBook-Pro-2.local at Wed Jul 16 18:59:07 2025
Module time:
	user time   =       4.25 seconds =       0.07 minutes
	system time =       2.53 seconds =       0.04 minutes
	total time  =          1 seconds =       0.02 minutes
Total time:
	user time   =      21.66 seconds =       0.36 minutes
	system time =      16.36 seconds =       0.27 minutes
	total time  =          4 seconds =       0.07 minutes

*** tstart() called on Joses-MacBook-Pro-2.local
*** at Wed Jul 16 18:59:07 2025

         ------------------------------------------------------------
                                   SCF GRAD
                          Rob Parrish, Justin Turney,
                       Andy Simmonett, and Alex Sokolov
         ------------------------------------------------------------

  ==> Geometry <==

    Molecular point group: d2h
    Full point group: D_inf_h

    Geometry (in Angstrom), charge = 0, multiplicity = 1:

       Center              X                  Y                   Z               Mass
    ------------   -----------------  -----------------  -----------------  -----------------
         C           -0.000000000000     0.630684526559     0.000000000000    12.000000000000
         C            0.000000000000    -0.630684526559     0.000000000000    12.000000000000

  Nuclear repulsion =   15.102938776745834

  ==> Basis Set <==

  Basis Set: CC-PVDZ
    Blend: CC-PVDZ
    Number of shells: 12
    Number of basis functions: 28
    Number of Cartesian functions: 30
    Spherical Harmonics?: true
    Max angular momentum: 2

  ==> DFJKGrad: Density-Fitted SCF Gradients <==

    Gradient:                    1
    J tasked:                  Yes
    K tasked:                  Yes
    wK tasked:                  No
    OpenMP threads:              1
    Integrals threads:           1
    Memory [MiB]:              375
    Schwarz Cutoff:          1E-12
    Fitting Condition:       1E-10

   => Auxiliary Basis Set <=

  Basis Set: (CC-PVDZ AUX)
    Blend: CC-PVDZ-JKFIT
    Number of shells: 48
    Number of basis functions: 140
    Number of Cartesian functions: 162
    Spherical Harmonics?: true
    Max angular momentum: 3

  ==> DFT Potential <==

   => LibXC <=

    Version 6.2.2
    S. Lehtola, C. Steigemann, M. J.T. Oliveira, and M. A.L. Marques.,  SoftwareX 7, 1â€“5 (2018) (10.1016/j.softx.2017.11.002)

   => Composite Functional: B3LYP <=

    B3LYP Hyb-GGA Exchange-Correlation Functional

    P. J. Stephens, F. J. Devlin, C. F. Chabalowski, and M. J. Frisch.,  J. Phys. Chem. 98, 11623 (1994) (10.1021/j100096a001)

    Deriv               =              1
    GGA                 =           TRUE
    Meta                =          FALSE

    Exchange Hybrid     =           TRUE
    MP2 Hybrid          =          FALSE

   => Exchange Functionals <=

    0.0800   Slater exchange
    0.7200         Becke 88

   => Exact (HF) Exchange <=

    0.2000               HF

   => Correlation Functionals <=

    0.1900   Vosko, Wilk & Nusair (VWN5_RPA)
    0.8100   Lee, Yang & Parr

   => LibXC Density Thresholds  <==

    XC_HYB_GGA_XC_B3LYP:  1.00E-15

   => Molecular Quadrature <=

    Radial Scheme          =       TREUTLER
    Pruning Scheme         =           NONE
    Nuclear Scheme         =       TREUTLER

    Blocking Scheme        =         OCTREE
    BS radius alpha        =              1
    Pruning alpha          =              1
    Radial Points          =             75
    Spherical Points       =            302
    Total Points           =          42404
    Total Blocks           =            390
    Max Points             =            247
    Max Functions          =             28
    Weights Tolerance      =       1.00E-15

  -Total Gradient:
     Atom            X                  Y                   Z
    ------   -----------------  -----------------  -----------------
       1        0.000000000000    -0.000245779139     0.000000000000
       2       -0.000000000000     0.000245779139     0.000000000000

*** tstop() called on Joses-MacBook-Pro-2.local at Wed Jul 16 18:59:07 2025
Module time:
	user time   =       1.68 seconds =       0.03 minutes
	system time =       0.69 seconds =       0.01 minutes
	total time  =          0 seconds =       0.00 minutes
Total time:
	user time   =      23.34 seconds =       0.39 minutes
	system time =      17.05 seconds =       0.28 minutes
	total time  =          4 seconds =       0.07 minutes

    			-----------------------------------------

    			 OPTKING 3.0: for geometry optimizations

    			     By R.A. King, Bethel University

    			        with contributions from

    			    A.V. Copan, J. Cayton, A. Heide

    			-----------------------------------------

	                            ===> Fragment 1 <==

	 Z (Atomic Numbers)          Masses                          Geom
	       6.000000            12.000000         -0.00000000  1.19182103  0.00000000
	       6.000000            12.000000          0.00000000 -1.19182103  0.00000000

	 - Coordinate -           - BOHR/RAD -       - ANG/DEG -
	 R(1,2)           =         2.383642           1.261369

	        --- Internal Coordinate Step in ANG or DEG, aJ/ANG or AJ/DEG ---
	-------------------------------------------------------------------------------
	           Coordinate      Previous         Force          Change          New
	           ----------      --------        ------          ------        ------
	               R(1,2)       1.26137        0.00202        0.00013       1.26150
	-------------------------------------------------------------------------------

	                                 ==> Convergence Check <==

	Measures of convergence in internal coordinates in au.

	Criteria marked as inactive (o), active & met (*), and active & unmet ( ).

	----------------------------------------------------------------------------------------------
	   Step    Total Energy     Delta E     Max Force     RMS Force      Max Disp      RMS Disp
	----------------------------------------------------------------------------------------------
	  Convergence Criteria     1.00e-06 *    3.00e-04 *             o    1.20e-03 *             o
	----------------------------------------------------------------------------------------------
	     4     -75.88925574   -1.18e-06      2.46e-04 *    2.46e-04 o    2.54e-04 *    2.54e-04 o  ~
	----------------------------------------------------------------------------------------------

Next Geometry in Ang
	Fragment 1 (Ang)

	    C  -0.0000000000   0.6307516030   0.0000000000
	    C   0.0000000000  -0.6307516030   0.0000000000

    Final optimized geometry and variables:
    Molecular point group: d2h
    Full point group: D_inf_h

    Geometry (in Angstrom), charge = 0, multiplicity = 1:

    C           -0.000000000000     0.630684526559     0.000000000000
    C            0.000000000000    -0.630684526559     0.000000000000

    Psi4 stopped on: Wednesday, 16 July 2025 06:59PM
    Psi4 wall time for execution: 0:00:05.10

*** Psi4 exiting successfully. Buy a developer a beer!
