                               Psi4 1.9.1 release

  ==> Input File <==

--------------------------------------------------------------------------
molecule {
0 1
Li   0.00000        0.60000        0.00000
Al   0.00000       -0.60000        0.00000
}

set {
basis              cc-pvdz
reference          uks
maxiter            500
geom_maxiter       500
DAMPING_PERCENTAGE 1
guess              SAP
}

optimize('b3lyp')
--------------------------------------------------------------------------

    Molecular point group: c2v
  Charge       = 0
  Multiplicity = 1
  Basis Set: CC-PVDZ
    Blend: CC-PVDZ
  Basis Set: (CC-PVDZ AUX)
    Blend: CC-PVDZ-JKFIT + DEF2-UNIVERSAL-JKFIT
  @DF-UKS Final Energy:  -249.49722626022765
    Total Energy =                       -249.4972262602276487
 Dipole X            :          0.0000000            0.0000000            0.0000000
 Dipole Y            :          0.0000000            0.0000000            0.0000000
 Dipole Z            :          0.9626764           -0.6845814            0.2780951
 Magnitude           :                                                    0.2780951
    Molecular point group: c2v
  Basis Set: CC-PVDZ
    Blend: CC-PVDZ
  Basis Set: (CC-PVDZ AUX)
    Blend: CC-PVDZ-JKFIT + DEF2-UNIVERSAL-JKFIT
  Basis Set: CC-PVDZ
    Blend: CC-PVDZ
  Basis Set: (CC-PVDZ AUX)
    Blend: CC-PVDZ-JKFIT + DEF2-UNIVERSAL-JKFIT
  @DF-UKS Final Energy:  -249.56208217727038
    Total Energy =                       -249.5620821772703835
  Basis Set: CC-PVDZ
    Blend: CC-PVDZ
  Basis Set: (CC-PVDZ AUX)
    Blend: CC-PVDZ-JKFIT + DEF2-UNIVERSAL-JKFIT
  Basis Set: CC-PVDZ
    Blend: CC-PVDZ
  @DF-UKS Final Energy:  -249.64230010689306
    Total Energy =                       -249.6423001068930603
  @DF-UKS Final Energy:  -249.74952766637071
    Total Energy =                       -249.7495276663707102
  @DF-UKS Final Energy:  -249.80841010937880
    Total Energy =                       -249.8084101093787979
  @DF-UKS Final Energy:  -249.83499184027227
    Total Energy =                       -249.8349918402722665
  @DF-UKS Final Energy:  -249.84537573018042
    Total Energy =                       -249.8453757301804217
  @DF-UKS Final Energy:  -249.84865335367971
    Total Energy =                       -249.8486533536797083
  @DF-UKS Final Energy:  -249.84933042158801
    Total Energy =                       -249.8493304215880073
  @DF-UKS Final Energy:  -249.84938972136888
    Total Energy =                       -249.8493897213688797
  Basis Set: (CC-PVDZ AUX)
    Blend: CC-PVDZ-JKFIT + DEF2-UNIVERSAL-JKFIT
  Basis Set: CC-PVDZ
    Blend: CC-PVDZ
  Basis Set: (CC-PVDZ AUX)
    Blend: CC-PVDZ-JKFIT + DEF2-UNIVERSAL-JKFIT
  @DF-UKS Final Energy:  -249.84939523421730
    Total Energy =                       -249.8493952342172975
  Basis Set: CC-PVDZ
    Blend: CC-PVDZ
  Basis Set: (CC-PVDZ AUX)
    Blend: CC-PVDZ-JKFIT + DEF2-UNIVERSAL-JKFIT
  Charge       = 0
  Multiplicity = 1
  Basis Set: CC-PVDZ
    Blend: CC-PVDZ
  Basis Set: (CC-PVDZ AUX)
    Blend: CC-PVDZ-JKFIT + DEF2-UNIVERSAL-JKFIT

    Orbital Energies [Eh]
    ---------------------

    Alpha Occupied:

       1A1   -56.056365     2A1    -4.135843     3A1    -2.691149
       1B2    -2.690755     1B1    -2.681983     4A1    -2.072840
       5A1    -0.308466     2B1    -0.108935

    Alpha Virtual:

       6A1    -0.103111     2B2    -0.076738     7A1    -0.050021
       3B1    -0.001595     3B2     0.006236     8A1     0.025048
       4B1     0.060878     4B2     0.066386     9A1     0.074732
      10A1     0.151174     1A2     0.201791    11A1     0.208324
      12A1     0.212242     5B1     0.217757     5B2     0.220520
       6B2     0.266113     6B1     0.272722    13A1     0.282746
       2A2     0.321991    14A1     0.327405    15A1     0.439590
       7B2     0.451107     7B1     0.452886    16A1     0.715980

    Beta Occupied:

       1A1   -56.056365     2A1    -4.135843     3A1    -2.691149
       1B2    -2.690755     1B1    -2.681983     4A1    -2.072840
       5A1    -0.308466     2B1    -0.108935

    Beta Virtual:

       6A1    -0.103111     2B2    -0.076738     7A1    -0.050021
       3B1    -0.001595     3B2     0.006236     8A1     0.025048
       4B1     0.060878     4B2     0.066386     9A1     0.074732
      10A1     0.151174     1A2     0.201791    11A1     0.208324
      12A1     0.212242     5B1     0.217757     5B2     0.220520
       6B2     0.266113     6B1     0.272722    13A1     0.282746
       2A2     0.321991    14A1     0.327405    15A1     0.439590
       7B2     0.451107     7B1     0.452886    16A1     0.715980

    Final Occupation by Irrep:
             A1    A2    B1    B2
    DOCC [     5,    0,    2,    1 ]
    SOCC [     0,    0,    0,    0 ]
    NA   [     5,    0,    2,    1 ]
    NB   [     5,    0,    2,    1 ]

  @DF-UKS Final Energy:  -249.84939577609637

   => Energetics <=

    Nuclear Repulsion Energy =              8.4582280011725839
    One-Electron Energy =                -363.3490537169009258
    Two-Electron Energy =                 121.5209602546147636
    DFT Exchange-Correlation Energy =     -16.4795303149827745
    Empirical Dispersion Energy =           0.0000000000000000
    VV10 Nonlocal Energy =                  0.0000000000000000
    Total Energy =                       -249.8493957760963724

  UHF NO Occupations:
  HONO-2 :    3 A1 2.0000000
  HONO-1 :    4 A1 2.0000000
  HONO-0 :    5 A1 2.0000000
  LUNO+0 :    3 B1 0.0000000
  LUNO+1 :    6 A1 0.0000000
  LUNO+2 :    4 B1 0.0000000
  LUNO+3 :    7 A1 0.0000000

Computation Completed

Properties will be evaluated at   0.000000,   0.000000,   0.000000 [a0]

Properties computed using the SCF density matrix

 Multipole Moments:

 ------------------------------------------------------------------------------------
     Multipole            Electronic (a.u.)      Nuclear  (a.u.)        Total (a.u.)
 ------------------------------------------------------------------------------------

 L = 1.  Multiply by 2.5417464519 to convert [e a0] to [Debye]
 Dipole X            :          0.0000000            0.0000000            0.0000000
 Dipole Y            :          0.0000000            0.0000000            0.0000000
 Dipole Z            :          2.5153699           -1.3919710            1.1233989
 Magnitude           :                                                    1.1233989

 ------------------------------------------------------------------------------------

*** tstop() called on Joses-MacBook-Pro-2.local at Wed Jul 16 18:33:50 2025
Module time:
	user time   =       3.05 seconds =       0.05 minutes
	system time =       2.94 seconds =       0.05 minutes
	total time  =          0 seconds =       0.00 minutes
Total time:
	user time   =      55.93 seconds =       0.93 minutes
	system time =      63.31 seconds =       1.06 minutes
	total time  =         11 seconds =       0.18 minutes

*** tstart() called on Joses-MacBook-Pro-2.local
*** at Wed Jul 16 18:33:50 2025

         ------------------------------------------------------------
                                   SCF GRAD
                          Rob Parrish, Justin Turney,
                       Andy Simmonett, and Alex Sokolov
         ------------------------------------------------------------

  ==> Geometry <==

    Molecular point group: c2v
    Full point group: C_inf_v

    Geometry (in Angstrom), charge = 0, multiplicity = 1:

       Center              X                  Y                   Z               Mass
    ------------   -----------------  -----------------  -----------------  -----------------
         LI           0.000000000000     0.000000000000     1.936446681689     7.016003436600
         AL           0.000000000000     0.000000000000    -0.503533798060    26.981538530000

  Nuclear repulsion =    8.458228001172584

  ==> Basis Set <==

  Basis Set: CC-PVDZ
    Blend: CC-PVDZ
    Number of shells: 14
    Number of basis functions: 32
    Number of Cartesian functions: 34
    Spherical Harmonics?: true
    Max angular momentum: 2

  ==> DFJKGrad: Density-Fitted SCF Gradients <==

    Gradient:                    1
    J tasked:                  Yes
    K tasked:                  Yes
    wK tasked:                  No
    OpenMP threads:              1
    Integrals threads:           1
    Memory [MiB]:              375
    Schwarz Cutoff:          1E-12
    Fitting Condition:       1E-10

   => Auxiliary Basis Set <=

  Basis Set: (CC-PVDZ AUX)
    Blend: CC-PVDZ-JKFIT + DEF2-UNIVERSAL-JKFIT
    Number of shells: 53
    Number of basis functions: 163
    Number of Cartesian functions: 190
    Spherical Harmonics?: true
    Max angular momentum: 3

  ==> DFT Potential <==

   => LibXC <=

    Version 6.2.2
    S. Lehtola, C. Steigemann, M. J.T. Oliveira, and M. A.L. Marques.,  SoftwareX 7, 1â€“5 (2018) (10.1016/j.softx.2017.11.002)

   => Composite Functional: B3LYP <=

    B3LYP Hyb-GGA Exchange-Correlation Functional

    P. J. Stephens, F. J. Devlin, C. F. Chabalowski, and M. J. Frisch.,  J. Phys. Chem. 98, 11623 (1994) (10.1021/j100096a001)

    Deriv               =              1
    GGA                 =           TRUE
    Meta                =          FALSE

    Exchange Hybrid     =           TRUE
    MP2 Hybrid          =          FALSE

   => Exchange Functionals <=

    0.0800   Slater exchange
    0.7200         Becke 88

   => Exact (HF) Exchange <=

    0.2000               HF

   => Correlation Functionals <=

    0.1900   Vosko, Wilk & Nusair (VWN5_RPA)
    0.8100   Lee, Yang & Parr

   => LibXC Density Thresholds  <==

    XC_HYB_GGA_XC_B3LYP:  1.00E-15

   => Molecular Quadrature <=

    Radial Scheme          =       TREUTLER
    Pruning Scheme         =           NONE
    Nuclear Scheme         =       TREUTLER

    Blocking Scheme        =         OCTREE
    BS radius alpha        =              1
    Pruning alpha          =              1
    Radial Points          =             75
    Spherical Points       =            302
    Total Points           =          44301
    Total Blocks           =            442
    Max Points             =            254
    Max Functions          =             32
    Weights Tolerance      =       1.00E-15

  -Total Gradient:
     Atom            X                  Y                   Z
    ------   -----------------  -----------------  -----------------
       1       -0.000000000000     0.000000000000    -0.000059943728
       2        0.000000000000     0.000000000000     0.000058262182

*** tstop() called on Joses-MacBook-Pro-2.local at Wed Jul 16 18:33:51 2025
Module time:
	user time   =       0.94 seconds =       0.02 minutes
	system time =       1.52 seconds =       0.03 minutes
	total time  =          1 seconds =       0.02 minutes
Total time:
	user time   =      56.87 seconds =       0.95 minutes
	system time =      64.83 seconds =       1.08 minutes
	total time  =         12 seconds =       0.20 minutes

    			-----------------------------------------

    			 OPTKING 3.0: for geometry optimizations

    			     By R.A. King, Bethel University

    			        with contributions from

    			    A.V. Copan, J. Cayton, A. Heide

    			-----------------------------------------

	                            ===> Fragment 1 <==

	 Z (Atomic Numbers)          Masses                          Geom
	       3.000000             7.016003          0.00000000  0.00000000  3.65935388
	      13.000000            26.981539          0.00000000  0.00000000 -0.95154097

	 - Coordinate -           - BOHR/RAD -       - ANG/DEG -
	 R(1,2)           =         4.610895           2.439980

	        --- Internal Coordinate Step in ANG or DEG, aJ/ANG or AJ/DEG ---
	-------------------------------------------------------------------------------
	           Coordinate      Previous         Force          Change          New
	           ----------      --------        ------          ------        ------
	               R(1,2)       2.43998        0.00049        0.00084       2.44082
	-------------------------------------------------------------------------------

	                                 ==> Convergence Check <==

	Measures of convergence in internal coordinates in au.

	Criteria marked as inactive (o), active & met (*), and active & unmet ( ).

	----------------------------------------------------------------------------------------------
	   Step    Total Energy     Delta E     Max Force     RMS Force      Max Disp      RMS Disp
	----------------------------------------------------------------------------------------------
	  Convergence Criteria     1.00e-06 *    3.00e-04 *             o    1.20e-03 *             o
	----------------------------------------------------------------------------------------------
	    12    -249.84939578   -5.42e-07 *    5.91e-05 *    5.91e-05 o    1.59e-03      1.59e-03 o  ~
	----------------------------------------------------------------------------------------------

Next Geometry in Ang
	Fragment 1 (Ang)

	   Li   0.0000000000   0.0000000000   1.9368661396
	   Al   0.0000000000   0.0000000000  -0.5039532560

    Final optimized geometry and variables:
    Molecular point group: c2v
    Full point group: C_inf_v

    Geometry (in Angstrom), charge = 0, multiplicity = 1:

    LI           0.000000000000     0.000000000000     1.936446681689
    AL           0.000000000000     0.000000000000    -0.503533798060

    Psi4 stopped on: Wednesday, 16 July 2025 06:33PM
    Psi4 wall time for execution: 0:00:12.36

*** Psi4 exiting successfully. Buy a developer a beer!
