                               Psi4 1.9.1 release

  ==> Input File <==

--------------------------------------------------------------------------
molecule {
0 1
F   0.00000        0.60000        0.00000
Al   0.00000       -0.60000        0.00000
}

set {
basis              cc-pvdz
reference          uks
maxiter            500
geom_maxiter       500
DAMPING_PERCENTAGE 1
guess              SAP
}

optimize('b3lyp')
--------------------------------------------------------------------------

    Molecular point group: c2v
  Charge       = 0
  Multiplicity = 1
  Basis Set: CC-PVDZ
    Blend: CC-PVDZ
  Basis Set: (CC-PVDZ AUX)
    Blend: CC-PVDZ-JKFIT
  @DF-UKS Final Energy:  -342.02893122899735
    Total Energy =                       -342.0289312289973509
 Dipole X            :          0.0000000            0.0000000            0.0000000
 Dipole Y            :          0.0000000            0.0000000            0.0000000
 Dipole Z            :          0.2668879           -0.2044455            0.0624424
 Magnitude           :                                                    0.0624424
    Molecular point group: c2v
  Basis Set: CC-PVDZ
    Blend: CC-PVDZ
  Basis Set: (CC-PVDZ AUX)
    Blend: CC-PVDZ-JKFIT
  Basis Set: CC-PVDZ
    Blend: CC-PVDZ
  Basis Set: (CC-PVDZ AUX)
    Blend: CC-PVDZ-JKFIT
  @DF-UKS Final Energy:  -342.22115327231126
    Total Energy =                       -342.2211532723112555
  Basis Set: CC-PVDZ
    Blend: CC-PVDZ
  Basis Set: (CC-PVDZ AUX)
    Blend: CC-PVDZ-JKFIT
  Basis Set: CC-PVDZ
    Blend: CC-PVDZ
  @DF-UKS Final Energy:  -342.30131291156295
    Total Energy =                       -342.3013129115630022
  @DF-UKS Final Energy:  -342.32955339001774
    Total Energy =                       -342.3295533900177361
  @DF-UKS Final Energy:  -342.34542500831543
    Total Energy =                       -342.3454250083154307
  @DF-UKS Final Energy:  -342.35022023423397
    Total Energy =                       -342.3502202342339729
  @DF-UKS Final Energy:  -342.35227218728409
    Total Energy =                       -342.3522721872840862
  @DF-UKS Final Energy:  -342.35271948401254
    Total Energy =                       -342.3527194840125389
  @DF-UKS Final Energy:  -342.35283839887512
    Total Energy =                       -342.3528383988751216
  Basis Set: (CC-PVDZ AUX)
    Blend: CC-PVDZ-JKFIT
  Basis Set: CC-PVDZ
    Blend: CC-PVDZ
  Basis Set: (CC-PVDZ AUX)
    Blend: CC-PVDZ-JKFIT
  @DF-UKS Final Energy:  -342.35285723875273
    Total Energy =                       -342.3528572387527902
  Basis Set: CC-PVDZ
    Blend: CC-PVDZ
  Basis Set: (CC-PVDZ AUX)
    Blend: CC-PVDZ-JKFIT
  Charge       = 0
  Multiplicity = 1
  Basis Set: CC-PVDZ
    Blend: CC-PVDZ
  Basis Set: (CC-PVDZ AUX)
    Blend: CC-PVDZ-JKFIT

    Orbital Energies [Eh]
    ---------------------

    Alpha Occupied:

       1A1   -56.078083     2A1   -24.648896     3A1    -4.158754
       1B1    -2.712048     1B2    -2.712048     4A1    -2.708480
       5A1    -1.123487     6A1    -0.439304     2B2    -0.383984
       2B1    -0.383984     7A1    -0.257827

    Alpha Virtual:

       3B1    -0.054166     3B2    -0.054166     8A1     0.021609
       9A1     0.174219     4B2     0.220190     4B1     0.220190
       1A2     0.266479    10A1     0.266479    11A1     0.274628
       5B1     0.324131     5B2     0.324131    12A1     0.490148
       6B1     1.289531     6B2     1.289531    13A1     1.314656
      14A1     2.227239     2A2     3.603534    15A1     3.603681
       7B1     3.623418     7B2     3.623418    16A1     3.677801

    Beta Occupied:

       1A1   -56.078083     2A1   -24.648896     3A1    -4.158754
       1B1    -2.712048     1B2    -2.712048     4A1    -2.708480
       5A1    -1.123487     6A1    -0.439304     2B2    -0.383984
       2B1    -0.383984     7A1    -0.257827

    Beta Virtual:

       3B1    -0.054166     3B2    -0.054166     8A1     0.021609
       9A1     0.174219     4B2     0.220190     4B1     0.220190
       1A2     0.266479    10A1     0.266479    11A1     0.274628
       5B1     0.324131     5B2     0.324131    12A1     0.490148
       6B1     1.289531     6B2     1.289531    13A1     1.314656
      14A1     2.227239     2A2     3.603534    15A1     3.603681
       7B1     3.623418     7B2     3.623418    16A1     3.677801

    Final Occupation by Irrep:
             A1    A2    B1    B2
    DOCC [     7,    0,    2,    2 ]
    SOCC [     0,    0,    0,    0 ]
    NA   [     7,    0,    2,    2 ]
    NB   [     7,    0,    2,    2 ]

  @DF-UKS Final Energy:  -342.35285837284425

   => Energetics <=

    Nuclear Repulsion Energy =             36.2703135916189296
    One-Electron Energy =                -549.2344487349876090
    Two-Electron Energy =                 194.1124887678145114
    DFT Exchange-Correlation Energy =     -23.5012119972900173
    Empirical Dispersion Energy =           0.0000000000000000
    VV10 Nonlocal Energy =                  0.0000000000000000
    Total Energy =                       -342.3528583728441959

  UHF NO Occupations:
  HONO-2 :    5 A1 2.0000000
  HONO-1 :    7 A1 2.0000000
  HONO-0 :    6 A1 2.0000000
  LUNO+0 :    8 A1 0.0000000
  LUNO+1 :    9 A1 0.0000000
  LUNO+2 :   10 A1 0.0000000
  LUNO+3 :    3 B2 0.0000000

Computation Completed

Properties will be evaluated at   0.000000,   0.000000,   0.000000 [a0]

Properties computed using the SCF density matrix

 Multipole Moments:

 ------------------------------------------------------------------------------------
     Multipole            Electronic (a.u.)      Nuclear  (a.u.)        Total (a.u.)
 ------------------------------------------------------------------------------------

 L = 1.  Multiply by 2.5417464519 to convert [e a0] to [Debye]
 Dipole X            :          0.0000000            0.0000000            0.0000000
 Dipole Y            :          0.0000000            0.0000000            0.0000000
 Dipole Z            :         -0.3174661           -0.2908252           -0.6082913
 Magnitude           :                                                    0.6082913

 ------------------------------------------------------------------------------------

*** tstop() called on Joses-MacBook-Pro-2.local at Wed Jul 16 19:27:34 2025
Module time:
	user time   =       4.02 seconds =       0.07 minutes
	system time =       1.28 seconds =       0.02 minutes
	total time  =          1 seconds =       0.02 minutes
Total time:
	user time   =      52.06 seconds =       0.87 minutes
	system time =      52.84 seconds =       0.88 minutes
	total time  =         11 seconds =       0.18 minutes

*** tstart() called on Joses-MacBook-Pro-2.local
*** at Wed Jul 16 19:27:34 2025

         ------------------------------------------------------------
                                   SCF GRAD
                          Rob Parrish, Justin Turney,
                       Andy Simmonett, and Alex Sokolov
         ------------------------------------------------------------

  ==> Geometry <==

    Molecular point group: c2v
    Full point group: C_inf_v

    Geometry (in Angstrom), charge = 0, multiplicity = 1:

       Center              X                  Y                   Z               Mass
    ------------   -----------------  -----------------  -----------------  -----------------
         F            0.000000000000     0.000000000000     1.001691475788    18.998403162730
         AL           0.000000000000     0.000000000000    -0.705317025585    26.981538530000

  Nuclear repulsion =   36.270313591618930

  ==> Basis Set <==

  Basis Set: CC-PVDZ
    Blend: CC-PVDZ
    Number of shells: 14
    Number of basis functions: 32
    Number of Cartesian functions: 34
    Spherical Harmonics?: true
    Max angular momentum: 2

  ==> DFJKGrad: Density-Fitted SCF Gradients <==

    Gradient:                    1
    J tasked:                  Yes
    K tasked:                  Yes
    wK tasked:                  No
    OpenMP threads:              1
    Integrals threads:           1
    Memory [MiB]:              375
    Schwarz Cutoff:          1E-12
    Fitting Condition:       1E-10

   => Auxiliary Basis Set <=

  Basis Set: (CC-PVDZ AUX)
    Blend: CC-PVDZ-JKFIT
    Number of shells: 60
    Number of basis functions: 182
    Number of Cartesian functions: 211
    Spherical Harmonics?: true
    Max angular momentum: 3

  ==> DFT Potential <==

   => LibXC <=

    Version 6.2.2
    S. Lehtola, C. Steigemann, M. J.T. Oliveira, and M. A.L. Marques.,  SoftwareX 7, 1â€“5 (2018) (10.1016/j.softx.2017.11.002)

   => Composite Functional: B3LYP <=

    B3LYP Hyb-GGA Exchange-Correlation Functional

    P. J. Stephens, F. J. Devlin, C. F. Chabalowski, and M. J. Frisch.,  J. Phys. Chem. 98, 11623 (1994) (10.1021/j100096a001)

    Deriv               =              1
    GGA                 =           TRUE
    Meta                =          FALSE

    Exchange Hybrid     =           TRUE
    MP2 Hybrid          =          FALSE

   => Exchange Functionals <=

    0.0800   Slater exchange
    0.7200         Becke 88

   => Exact (HF) Exchange <=

    0.2000               HF

   => Correlation Functionals <=

    0.1900   Vosko, Wilk & Nusair (VWN5_RPA)
    0.8100   Lee, Yang & Parr

   => LibXC Density Thresholds  <==

    XC_HYB_GGA_XC_B3LYP:  1.00E-15

   => Molecular Quadrature <=

    Radial Scheme          =       TREUTLER
    Pruning Scheme         =           NONE
    Nuclear Scheme         =       TREUTLER

    Blocking Scheme        =         OCTREE
    BS radius alpha        =              1
    Pruning alpha          =              1
    Radial Points          =             75
    Spherical Points       =            302
    Total Points           =          43420
    Total Blocks           =            406
    Max Points             =            253
    Max Functions          =             32
    Weights Tolerance      =       1.00E-15

  -Total Gradient:
     Atom            X                  Y                   Z
    ------   -----------------  -----------------  -----------------
       1        0.000000000000    -0.000000000000    -0.000201962508
       2        0.000000000000     0.000000000000     0.000071347594

*** tstop() called on Joses-MacBook-Pro-2.local at Wed Jul 16 19:27:34 2025
Module time:
	user time   =       1.38 seconds =       0.02 minutes
	system time =       1.19 seconds =       0.02 minutes
	total time  =          0 seconds =       0.00 minutes
Total time:
	user time   =      53.45 seconds =       0.89 minutes
	system time =      54.03 seconds =       0.90 minutes
	total time  =         11 seconds =       0.18 minutes

    			-----------------------------------------

    			 OPTKING 3.0: for geometry optimizations

    			     By R.A. King, Bethel University

    			        with contributions from

    			    A.V. Copan, J. Cayton, A. Heide

    			-----------------------------------------

	                            ===> Fragment 1 <==

	 Z (Atomic Numbers)          Masses                          Geom
	       9.000000            18.998403          0.00000000  0.00000000  1.89292255
	      13.000000            26.981539          0.00000000  0.00000000 -1.33285601

	 - Coordinate -           - BOHR/RAD -       - ANG/DEG -
	 R(1,2)           =         3.225779           1.707009

	        --- Internal Coordinate Step in ANG or DEG, aJ/ANG or AJ/DEG ---
	-------------------------------------------------------------------------------
	           Coordinate      Previous         Force          Change          New
	           ----------      --------        ------          ------        ------
	               R(1,2)       1.70701        0.00113        0.00026       1.70727
	-------------------------------------------------------------------------------

	                                 ==> Convergence Check <==

	Measures of convergence in internal coordinates in au.

	Criteria marked as inactive (o), active & met (*), and active & unmet ( ).

	----------------------------------------------------------------------------------------------
	   Step    Total Energy     Delta E     Max Force     RMS Force      Max Disp      RMS Disp
	----------------------------------------------------------------------------------------------
	  Convergence Criteria     1.00e-06 *    3.00e-04 *             o    1.20e-03 *             o
	----------------------------------------------------------------------------------------------
	    11    -342.35285837   -1.13e-06      1.37e-04 *    1.37e-04 o    4.86e-04 *    4.86e-04 o  ~
	----------------------------------------------------------------------------------------------

Next Geometry in Ang
	Fragment 1 (Ang)

	    F   0.0000000000   0.0000000000   1.0018200186
	   Al   0.0000000000   0.0000000000  -0.7054455684

    Final optimized geometry and variables:
    Molecular point group: c2v
    Full point group: C_inf_v

    Geometry (in Angstrom), charge = 0, multiplicity = 1:

    F            0.000000000000     0.000000000000     1.001691475788
    AL           0.000000000000     0.000000000000    -0.705317025585

    Psi4 stopped on: Wednesday, 16 July 2025 07:27PM
    Psi4 wall time for execution: 0:00:11.09

*** Psi4 exiting successfully. Buy a developer a beer!
