                               Psi4 1.9.1 release

  ==> Input File <==

--------------------------------------------------------------------------
molecule {
0 1
He   0.00000        0.60000        0.00000
C   0.00000       -0.60000        0.00000
}

set {
basis              cc-pvdz
reference          uks
maxiter            500
geom_maxiter       500
DAMPING_PERCENTAGE 1
guess              SAP
}

optimize('b3lyp')
--------------------------------------------------------------------------

    Molecular point group: c2v
  Charge       = 0
  Multiplicity = 1
  Basis Set: CC-PVDZ
    Blend: CC-PVDZ
  Basis Set: (CC-PVDZ AUX)
    Blend: CC-PVDZ-JKFIT + DEF2-UNIVERSAL-JKFIT
  @DF-UKS Final Energy:   -40.63559915364866
    Total Energy =                        -40.6355991536486627
 Dipole X            :          0.0000000            0.0000000            0.0000000
 Dipole Y            :          0.0000000            0.0000000            0.0000000
 Dipole Z            :          0.8759739           -0.0022134            0.8737605
 Magnitude           :                                                    0.8737605
    Molecular point group: c2v
  Basis Set: CC-PVDZ
    Blend: CC-PVDZ
  Basis Set: (CC-PVDZ AUX)
    Blend: CC-PVDZ-JKFIT + DEF2-UNIVERSAL-JKFIT
  Basis Set: CC-PVDZ
    Blend: CC-PVDZ
  Basis Set: (CC-PVDZ AUX)
    Blend: CC-PVDZ-JKFIT + DEF2-UNIVERSAL-JKFIT
  @DF-UKS Final Energy:   -40.66131782866998
    Total Energy =                        -40.6613178286699721
  Basis Set: CC-PVDZ
    Blend: CC-PVDZ
  Basis Set: (CC-PVDZ AUX)
    Blend: CC-PVDZ-JKFIT + DEF2-UNIVERSAL-JKFIT
  Basis Set: CC-PVDZ
    Blend: CC-PVDZ
  @DF-UKS Final Energy:   -40.67633383470270
    Total Energy =                        -40.6763338347027030
  @DF-UKS Final Energy:   -40.68450939359126
    Total Energy =                        -40.6845093935912629
  @DF-UKS Final Energy:   -40.68826489040030
    Total Energy =                        -40.6882648904002977
  @DF-UKS Final Energy:   -40.68997149788750
    Total Energy =                        -40.6899714978874982
  @DF-UKS Final Energy:   -40.69070095153431
    Total Energy =                        -40.6907009515343105
  @DF-UKS Final Energy:   -40.69099292563503
    Total Energy =                        -40.6909929256350225
  @DF-UKS Final Energy:   -40.69109557717486
    Total Energy =                        -40.6910955771748561
  @DF-UKS Final Energy:   -40.69111882435283
    Total Energy =                        -40.6911188243528414
  @DF-UKS Final Energy:   -40.69112677974154
    Total Energy =                        -40.6911267797415448
  Basis Set: (CC-PVDZ AUX)
    Blend: CC-PVDZ-JKFIT + DEF2-UNIVERSAL-JKFIT
  Basis Set: CC-PVDZ
    Blend: CC-PVDZ
  Basis Set: (CC-PVDZ AUX)
    Blend: CC-PVDZ-JKFIT + DEF2-UNIVERSAL-JKFIT
  @DF-UKS Final Energy:   -40.69112806084052
    Total Energy =                        -40.6911280608405193
  Basis Set: CC-PVDZ
    Blend: CC-PVDZ
  Basis Set: (CC-PVDZ AUX)
    Blend: CC-PVDZ-JKFIT + DEF2-UNIVERSAL-JKFIT
  Charge       = 0
  Multiplicity = 1
  Basis Set: CC-PVDZ
    Blend: CC-PVDZ
  Basis Set: (CC-PVDZ AUX)
    Blend: CC-PVDZ-JKFIT + DEF2-UNIVERSAL-JKFIT

    Orbital Energies [Eh]
    ---------------------

    Alpha Occupied:

       1A1   -10.324136     2A1    -0.666667     3A1    -0.538034
       1B2    -0.202905

    Alpha Virtual:

       1B1    -0.141135     4A1    -0.138956     2B1     0.474826
       2B2     0.481756     5A1     0.482387     6A1     0.557985
       7A1     1.089592     3B1     1.136514     3B2     1.156477
       1A2     1.156514     8A1     1.166993     9A1     1.235982
       4B1     2.174924     4B2     2.175487    10A1     2.201916

    Beta Occupied:

       1A1   -10.324136     2A1    -0.666667     3A1    -0.538034
       1B2    -0.202905

    Beta Virtual:

       1B1    -0.141135     4A1    -0.138956     2B1     0.474826
       2B2     0.481756     5A1     0.482387     6A1     0.557985
       7A1     1.089592     3B1     1.136514     3B2     1.156477
       1A2     1.156514     8A1     1.166993     9A1     1.235982
       4B1     2.174924     4B2     2.175487    10A1     2.201916

    Final Occupation by Irrep:
             A1    A2    B1    B2
    DOCC [     3,    0,    0,    1 ]
    SOCC [     0,    0,    0,    0 ]
    NA   [     3,    0,    0,    1 ]
    NB   [     3,    0,    0,    1 ]

  @DF-UKS Final Energy:   -40.69112826591319

   => Energetics <=

    Nuclear Repulsion Energy =              2.4264168077731063
    One-Electron Energy =                 -59.1002952676911875
    Two-Electron Energy =                  21.0587333861857715
    DFT Exchange-Correlation Energy =      -5.0759831921808800
    Empirical Dispersion Energy =           0.0000000000000000
    VV10 Nonlocal Energy =                  0.0000000000000000
    Total Energy =                        -40.6911282659131857

  UHF NO Occupations:
  HONO-2 :    2 A1 2.0000000
  HONO-1 :    3 A1 2.0000000
  HONO-0 :    1 B2 2.0000000
  LUNO+0 :    4 A1 0.0000000
  LUNO+1 :    5 A1 0.0000000
  LUNO+2 :    2 B2 0.0000000
  LUNO+3 :    6 A1 0.0000000

Computation Completed

Properties will be evaluated at   0.000000,   0.000000,   0.000000 [a0]

Properties computed using the SCF density matrix

 Multipole Moments:

 ------------------------------------------------------------------------------------
     Multipole            Electronic (a.u.)      Nuclear  (a.u.)        Total (a.u.)
 ------------------------------------------------------------------------------------

 L = 1.  Multiply by 2.5417464519 to convert [e a0] to [Debye]
 Dipole X            :          0.0000000            0.0000000            0.0000000
 Dipole Y            :          0.0000000            0.0000000            0.0000000
 Dipole Z            :          0.0363726           -0.0048272            0.0315454
 Magnitude           :                                                    0.0315454

 ------------------------------------------------------------------------------------

*** tstop() called on Joses-MacBook-Pro-2.local at Wed Jul 16 18:20:04 2025
Module time:
	user time   =       0.60 seconds =       0.01 minutes
	system time =       3.09 seconds =       0.05 minutes
	total time  =          0 seconds =       0.00 minutes
Total time:
	user time   =      14.73 seconds =       0.25 minutes
	system time =      52.46 seconds =       0.87 minutes
	total time  =          7 seconds =       0.12 minutes

*** tstart() called on Joses-MacBook-Pro-2.local
*** at Wed Jul 16 18:20:04 2025

         ------------------------------------------------------------
                                   SCF GRAD
                          Rob Parrish, Justin Turney,
                       Andy Simmonett, and Alex Sokolov
         ------------------------------------------------------------

  ==> Geometry <==

    Molecular point group: c2v
    Full point group: C_inf_v

    Geometry (in Angstrom), charge = 0, multiplicity = 1:

       Center              X                  Y                   Z               Mass
    ------------   -----------------  -----------------  -----------------  -----------------
         HE           0.000000000000     0.000000000000     1.962490581391     4.002603254130
         C            0.000000000000     0.000000000000    -0.654589265606    12.000000000000

  Nuclear repulsion =    2.426416807773106

  ==> Basis Set <==

  Basis Set: CC-PVDZ
    Blend: CC-PVDZ
    Number of shells: 9
    Number of basis functions: 19
    Number of Cartesian functions: 20
    Spherical Harmonics?: true
    Max angular momentum: 2

  ==> DFJKGrad: Density-Fitted SCF Gradients <==

    Gradient:                    1
    J tasked:                  Yes
    K tasked:                  Yes
    wK tasked:                  No
    OpenMP threads:              1
    Integrals threads:           1
    Memory [MiB]:              375
    Schwarz Cutoff:          1E-12
    Fitting Condition:       1E-10

   => Auxiliary Basis Set <=

  Basis Set: (CC-PVDZ AUX)
    Blend: CC-PVDZ-JKFIT + DEF2-UNIVERSAL-JKFIT
    Number of shells: 33
    Number of basis functions: 93
    Number of Cartesian functions: 106
    Spherical Harmonics?: true
    Max angular momentum: 3

  ==> DFT Potential <==

   => LibXC <=

    Version 6.2.2
    S. Lehtola, C. Steigemann, M. J.T. Oliveira, and M. A.L. Marques.,  SoftwareX 7, 1â€“5 (2018) (10.1016/j.softx.2017.11.002)

   => Composite Functional: B3LYP <=

    B3LYP Hyb-GGA Exchange-Correlation Functional

    P. J. Stephens, F. J. Devlin, C. F. Chabalowski, and M. J. Frisch.,  J. Phys. Chem. 98, 11623 (1994) (10.1021/j100096a001)

    Deriv               =              1
    GGA                 =           TRUE
    Meta                =          FALSE

    Exchange Hybrid     =           TRUE
    MP2 Hybrid          =          FALSE

   => Exchange Functionals <=

    0.0800   Slater exchange
    0.7200         Becke 88

   => Exact (HF) Exchange <=

    0.2000               HF

   => Correlation Functionals <=

    0.1900   Vosko, Wilk & Nusair (VWN5_RPA)
    0.8100   Lee, Yang & Parr

   => LibXC Density Thresholds  <==

    XC_HYB_GGA_XC_B3LYP:  1.00E-15

   => Molecular Quadrature <=

    Radial Scheme          =       TREUTLER
    Pruning Scheme         =           NONE
    Nuclear Scheme         =       TREUTLER

    Blocking Scheme        =         OCTREE
    BS radius alpha        =              1
    Pruning alpha          =              1
    Radial Points          =             75
    Spherical Points       =            302
    Total Points           =          43625
    Total Blocks           =            387
    Max Points             =            252
    Max Functions          =             19
    Weights Tolerance      =       1.00E-15

  -Total Gradient:
     Atom            X                  Y                   Z
    ------   -----------------  -----------------  -----------------
       1       -0.000000000000    -0.000000000000    -0.000013303676
       2        0.000000000000     0.000000000000     0.000009941468

*** tstop() called on Joses-MacBook-Pro-2.local at Wed Jul 16 18:20:04 2025
Module time:
	user time   =       0.26 seconds =       0.00 minutes
	system time =       0.83 seconds =       0.01 minutes
	total time  =          0 seconds =       0.00 minutes
Total time:
	user time   =      14.99 seconds =       0.25 minutes
	system time =      53.29 seconds =       0.89 minutes
	total time  =          7 seconds =       0.12 minutes

    			-----------------------------------------

    			 OPTKING 3.0: for geometry optimizations

    			     By R.A. King, Bethel University

    			        with contributions from

    			    A.V. Copan, J. Cayton, A. Heide

    			-----------------------------------------

	                            ===> Fragment 1 <==

	 Z (Atomic Numbers)          Masses                          Geom
	       2.000000             4.002603          0.00000000  0.00000000  3.70856972
	       6.000000            12.000000          0.00000000  0.00000000 -1.23699444

	 - Coordinate -           - BOHR/RAD -       - ANG/DEG -
	 R(1,2)           =         4.945564           2.617080

	        --- Internal Coordinate Step in ANG or DEG, aJ/ANG or AJ/DEG ---
	-------------------------------------------------------------------------------
	           Coordinate      Previous         Force          Change          New
	           ----------      --------        ------          ------        ------
	               R(1,2)       2.61708        0.00010        0.00419       2.62127
	-------------------------------------------------------------------------------

	                                 ==> Convergence Check <==

	Measures of convergence in internal coordinates in au.

	Criteria marked as inactive (o), active & met (*), and active & unmet ( ).

	----------------------------------------------------------------------------------------------
	   Step    Total Energy     Delta E     Max Force     RMS Force      Max Disp      RMS Disp
	----------------------------------------------------------------------------------------------
	  Convergence Criteria     1.00e-06 *    3.00e-04 *             o    1.20e-03 *             o
	----------------------------------------------------------------------------------------------
	    13     -40.69112827   -2.05e-07 *    1.16e-05 *    1.16e-05 o    7.91e-03      7.91e-03 o  ~
	----------------------------------------------------------------------------------------------

Next Geometry in Ang
	Fragment 1 (Ang)

	   He   0.0000000000   0.0000000000   1.9645835412
	    C   0.0000000000   0.0000000000  -0.6566822254

    Final optimized geometry and variables:
    Molecular point group: c2v
    Full point group: C_inf_v

    Geometry (in Angstrom), charge = 0, multiplicity = 1:

    HE           0.000000000000     0.000000000000     1.962490581391
    C            0.000000000000     0.000000000000    -0.654589265606

    Psi4 stopped on: Wednesday, 16 July 2025 06:20PM
    Psi4 wall time for execution: 0:00:07.87

*** Psi4 exiting successfully. Buy a developer a beer!
