                               Psi4 1.9.1 release

  ==> Input File <==

--------------------------------------------------------------------------
molecule {
0 1
C   0.00000        0.60000        0.00000
Ne   0.00000       -0.60000        0.00000
}

set {
basis              cc-pvdz
reference          uks
maxiter            500
geom_maxiter       500
DAMPING_PERCENTAGE 1
guess              SAP
}

optimize('b3lyp')
--------------------------------------------------------------------------

    Molecular point group: c2v
  Charge       = 0
  Multiplicity = 1
  Basis Set: CC-PVDZ
    Blend: CC-PVDZ
  Basis Set: (CC-PVDZ AUX)
    Blend: CC-PVDZ-JKFIT
  @DF-UKS Final Energy:  -166.50596824076712
    Total Energy =                       -166.5059682407671175
 Dipole X            :          0.0000000            0.0000000            0.0000000
 Dipole Y            :          0.0000000            0.0000000            0.0000000
 Dipole Z            :         -1.4691032           -0.0032151           -1.4723183
 Magnitude           :                                                    1.4723183
    Molecular point group: c2v
  Basis Set: CC-PVDZ
    Blend: CC-PVDZ
  Basis Set: (CC-PVDZ AUX)
    Blend: CC-PVDZ-JKFIT
  Basis Set: CC-PVDZ
    Blend: CC-PVDZ
  Basis Set: (CC-PVDZ AUX)
    Blend: CC-PVDZ-JKFIT
  @DF-UKS Final Energy:  -166.60096857302187
    Total Energy =                       -166.6009685730218735
  Basis Set: CC-PVDZ
    Blend: CC-PVDZ
  Basis Set: (CC-PVDZ AUX)
    Blend: CC-PVDZ-JKFIT
  Basis Set: CC-PVDZ
    Blend: CC-PVDZ
  @DF-UKS Final Energy:  -166.64677383683991
    Total Energy =                       -166.6467738368399125
  @DF-UKS Final Energy:  -166.67395593196977
    Total Energy =                       -166.6739559319697719
  @DF-UKS Final Energy:  -166.68665714141039
    Total Energy =                       -166.6866571414103930
  @DF-UKS Final Energy:  -166.69260676452893
    Total Energy =                       -166.6926067645289038
  @DF-UKS Final Energy:  -166.69525910533116
    Total Energy =                       -166.6952591053311608
  @DF-UKS Final Energy:  -166.69630682178865
    Total Energy =                       -166.6963068217886530
  @DF-UKS Final Energy:  -166.69657021605499
    Total Energy =                       -166.6965702160549938
  @DF-UKS Final Energy:  -166.69666334463483
    Total Energy =                       -166.6966633446348283
  @DF-UKS Final Energy:  -166.69667943803535
    Total Energy =                       -166.6966794380353463
  Basis Set: (CC-PVDZ AUX)
    Blend: CC-PVDZ-JKFIT
  Basis Set: CC-PVDZ
    Blend: CC-PVDZ
  Basis Set: (CC-PVDZ AUX)
    Blend: CC-PVDZ-JKFIT
  @DF-UKS Final Energy:  -166.69668247328721
    Total Energy =                       -166.6966824732872112
  Basis Set: CC-PVDZ
    Blend: CC-PVDZ
  Basis Set: (CC-PVDZ AUX)
    Blend: CC-PVDZ-JKFIT
  Charge       = 0
  Multiplicity = 1
  Basis Set: CC-PVDZ
    Blend: CC-PVDZ
  Basis Set: (CC-PVDZ AUX)
    Blend: CC-PVDZ-JKFIT

    Orbital Energies [Eh]
    ---------------------

    Alpha Occupied:

       1A1   -30.990900     2A1   -10.318724     3A1    -1.453614
       4A1    -0.575965     1B2    -0.561006     1B1    -0.560177
       5A1    -0.523394     2B1    -0.198635

    Alpha Virtual:

       2B2    -0.137096     6A1    -0.129689     3B2     0.477884
       3B1     0.484991     7A1     0.499410     8A1     0.570580
       9A1     1.091816     4B2     1.134200     4B1     1.153440
       1A2     1.160530    10A1     1.173219     5B2     1.358174
       5B1     1.360851    11A1     1.486908    12A1     1.949693
       6B2     4.702939     6B1     4.703545    13A1     4.704734
       2A2     4.704764    14A1     4.707024

    Beta Occupied:

       1A1   -30.990900     2A1   -10.318724     3A1    -1.453614
       4A1    -0.575965     1B2    -0.561006     1B1    -0.560177
       5A1    -0.523394     2B1    -0.198635

    Beta Virtual:

       2B2    -0.137096     6A1    -0.129689     3B2     0.477884
       3B1     0.484991     7A1     0.499410     8A1     0.570580
       9A1     1.091816     4B2     1.134200     4B1     1.153440
       1A2     1.160530    10A1     1.173219     5B2     1.358174
       5B1     1.360851    11A1     1.486908    12A1     1.949693
       6B2     4.702939     6B1     4.703545    13A1     4.704734
       2A2     4.704764    14A1     4.707024

    Final Occupation by Irrep:
             A1    A2    B1    B2
    DOCC [     5,    0,    2,    1 ]
    SOCC [     0,    0,    0,    0 ]
    NA   [     5,    0,    2,    1 ]
    NB   [     5,    0,    2,    1 ]

  @DF-UKS Final Energy:  -166.69668314019702

   => Energetics <=

    Nuclear Repulsion Energy =             12.9404977542145350
    One-Electron Energy =                -258.6323464997046813
    Two-Electron Energy =                  93.3098830296572999
    DFT Exchange-Correlation Energy =     -14.3147174243641899
    Empirical Dispersion Energy =           0.0000000000000000
    VV10 Nonlocal Energy =                  0.0000000000000000
    Total Energy =                       -166.6966831401970239

  UHF NO Occupations:
  HONO-2 :    3 A1 2.0000000
  HONO-1 :    4 A1 2.0000000
  HONO-0 :    5 A1 2.0000000
  LUNO+0 :    2 B2 0.0000000
  LUNO+1 :    6 A1 0.0000000
  LUNO+2 :    7 A1 0.0000000
  LUNO+3 :    3 B1 0.0000000

Computation Completed

Properties will be evaluated at   0.000000,   0.000000,   0.000000 [a0]

Properties computed using the SCF density matrix

 Multipole Moments:

 ------------------------------------------------------------------------------------
     Multipole            Electronic (a.u.)      Nuclear  (a.u.)        Total (a.u.)
 ------------------------------------------------------------------------------------

 L = 1.  Multiply by 2.5417464519 to convert [e a0] to [Debye]
 Dipole X            :          0.0000000            0.0000000            0.0000000
 Dipole Y            :          0.0000000            0.0000000            0.0000000
 Dipole Z            :         -0.1241382           -0.0065738           -0.1307120
 Magnitude           :                                                    0.1307120

 ------------------------------------------------------------------------------------

*** tstop() called on Joses-MacBook-Pro-2.local at Wed Jul 16 19:00:39 2025
Module time:
	user time   =       2.36 seconds =       0.04 minutes
	system time =       3.03 seconds =       0.05 minutes
	total time  =          1 seconds =       0.02 minutes
Total time:
	user time   =      48.10 seconds =       0.80 minutes
	system time =      54.52 seconds =       0.91 minutes
	total time  =         10 seconds =       0.17 minutes

*** tstart() called on Joses-MacBook-Pro-2.local
*** at Wed Jul 16 19:00:39 2025

         ------------------------------------------------------------
                                   SCF GRAD
                          Rob Parrish, Justin Turney,
                       Andy Simmonett, and Alex Sokolov
         ------------------------------------------------------------

  ==> Geometry <==

    Molecular point group: c2v
    Full point group: C_inf_v

    Geometry (in Angstrom), charge = 0, multiplicity = 1:

       Center              X                  Y                   Z               Mass
    ------------   -----------------  -----------------  -----------------  -----------------
         C            0.000000000000     0.000000000000     1.533274242634    12.000000000000
         NE           0.000000000000     0.000000000000    -0.920312415565    19.992440176200

  Nuclear repulsion =   12.940497754214535

  ==> Basis Set <==

  Basis Set: CC-PVDZ
    Blend: CC-PVDZ
    Number of shells: 12
    Number of basis functions: 28
    Number of Cartesian functions: 30
    Spherical Harmonics?: true
    Max angular momentum: 2

  ==> DFJKGrad: Density-Fitted SCF Gradients <==

    Gradient:                    1
    J tasked:                  Yes
    K tasked:                  Yes
    wK tasked:                  No
    OpenMP threads:              1
    Integrals threads:           1
    Memory [MiB]:              375
    Schwarz Cutoff:          1E-12
    Fitting Condition:       1E-10

   => Auxiliary Basis Set <=

  Basis Set: (CC-PVDZ AUX)
    Blend: CC-PVDZ-JKFIT
    Number of shells: 48
    Number of basis functions: 140
    Number of Cartesian functions: 162
    Spherical Harmonics?: true
    Max angular momentum: 3

  ==> DFT Potential <==

   => LibXC <=

    Version 6.2.2
    S. Lehtola, C. Steigemann, M. J.T. Oliveira, and M. A.L. Marques.,  SoftwareX 7, 1â€“5 (2018) (10.1016/j.softx.2017.11.002)

   => Composite Functional: B3LYP <=

    B3LYP Hyb-GGA Exchange-Correlation Functional

    P. J. Stephens, F. J. Devlin, C. F. Chabalowski, and M. J. Frisch.,  J. Phys. Chem. 98, 11623 (1994) (10.1021/j100096a001)

    Deriv               =              1
    GGA                 =           TRUE
    Meta                =          FALSE

    Exchange Hybrid     =           TRUE
    MP2 Hybrid          =          FALSE

   => Exchange Functionals <=

    0.0800   Slater exchange
    0.7200         Becke 88

   => Exact (HF) Exchange <=

    0.2000               HF

   => Correlation Functionals <=

    0.1900   Vosko, Wilk & Nusair (VWN5_RPA)
    0.8100   Lee, Yang & Parr

   => LibXC Density Thresholds  <==

    XC_HYB_GGA_XC_B3LYP:  1.00E-15

   => Molecular Quadrature <=

    Radial Scheme          =       TREUTLER
    Pruning Scheme         =           NONE
    Nuclear Scheme         =       TREUTLER

    Blocking Scheme        =         OCTREE
    BS radius alpha        =              1
    Pruning alpha          =              1
    Radial Points          =             75
    Spherical Points       =            302
    Total Points           =          43385
    Total Blocks           =            384
    Max Points             =            256
    Max Functions          =             28
    Weights Tolerance      =       1.00E-15

  -Total Gradient:
     Atom            X                  Y                   Z
    ------   -----------------  -----------------  -----------------
       1        0.000000000000     0.000000000000    -0.000026151930
       2       -0.000000000000    -0.000000000000     0.000034474148

*** tstop() called on Joses-MacBook-Pro-2.local at Wed Jul 16 19:00:39 2025
Module time:
	user time   =       0.33 seconds =       0.01 minutes
	system time =       1.15 seconds =       0.02 minutes
	total time  =          0 seconds =       0.00 minutes
Total time:
	user time   =      48.43 seconds =       0.81 minutes
	system time =      55.68 seconds =       0.93 minutes
	total time  =         10 seconds =       0.17 minutes

    			-----------------------------------------

    			 OPTKING 3.0: for geometry optimizations

    			     By R.A. King, Bethel University

    			        with contributions from

    			    A.V. Copan, J. Cayton, A. Heide

    			-----------------------------------------

	                            ===> Fragment 1 <==

	 Z (Atomic Numbers)          Masses                          Geom
	       6.000000            12.000000          0.00000000  0.00000000  2.89746839
	      10.000000            19.992440          0.00000000  0.00000000 -1.73913842

	 - Coordinate -           - BOHR/RAD -       - ANG/DEG -
	 R(1,2)           =         4.636607           2.453587

	        --- Internal Coordinate Step in ANG or DEG, aJ/ANG or AJ/DEG ---
	-------------------------------------------------------------------------------
	           Coordinate      Previous         Force          Change          New
	           ----------      --------        ------          ------        ------
	               R(1,2)       2.45359        0.00025        0.00191       2.45550
	-------------------------------------------------------------------------------

	                                 ==> Convergence Check <==

	Measures of convergence in internal coordinates in au.

	Criteria marked as inactive (o), active & met (*), and active & unmet ( ).

	----------------------------------------------------------------------------------------------
	   Step    Total Energy     Delta E     Max Force     RMS Force      Max Disp      RMS Disp
	----------------------------------------------------------------------------------------------
	  Convergence Criteria     1.00e-06 *    3.00e-04 *             o    1.20e-03 *             o
	----------------------------------------------------------------------------------------------
	    13    -166.69668314   -6.67e-07 *    3.03e-05 *    3.03e-05 o    3.62e-03      3.62e-03 o  ~
	----------------------------------------------------------------------------------------------

Next Geometry in Ang
	Fragment 1 (Ang)

	    C   0.0000000000   0.0000000000   1.5342315536
	   Ne   0.0000000000   0.0000000000  -0.9212697265

    Final optimized geometry and variables:
    Molecular point group: c2v
    Full point group: C_inf_v

    Geometry (in Angstrom), charge = 0, multiplicity = 1:

    C            0.000000000000     0.000000000000     1.533274242634
    NE           0.000000000000     0.000000000000    -0.920312415565

    Psi4 stopped on: Wednesday, 16 July 2025 07:00PM
    Psi4 wall time for execution: 0:00:10.37

*** Psi4 exiting successfully. Buy a developer a beer!
