                               Psi4 1.9.1 release

  ==> Input File <==

--------------------------------------------------------------------------
molecule {
0 1
Mg   0.00000        0.60000        0.00000
Ar   0.00000       -0.60000        0.00000
}

set {
basis              cc-pvdz
reference          uks
maxiter            500
geom_maxiter       500
DAMPING_PERCENTAGE 1
guess              SAP
}

optimize('b3lyp')
--------------------------------------------------------------------------

    Molecular point group: c2v
  Charge       = 0
  Multiplicity = 1
  Basis Set: CC-PVDZ
    Blend: CC-PVDZ
  Basis Set: (CC-PVDZ AUX)
    Blend: CC-PVDZ-JKFIT + DEF2-UNIVERSAL-JKFIT
  @DF-UKS Final Energy:  -726.30718819495826
    Total Energy =                       -726.3071881949582576
 Dipole X            :          0.0000000            0.0000000            0.0000000
 Dipole Y            :          0.0000000            0.0000000            0.0000000
 Dipole Z            :         -3.0916872            1.6956924           -1.3959948
 Magnitude           :                                                    1.3959948
    Molecular point group: c2v
  Basis Set: CC-PVDZ
    Blend: CC-PVDZ
  Basis Set: (CC-PVDZ AUX)
    Blend: CC-PVDZ-JKFIT + DEF2-UNIVERSAL-JKFIT
  Basis Set: CC-PVDZ
    Blend: CC-PVDZ
  Basis Set: (CC-PVDZ AUX)
    Blend: CC-PVDZ-JKFIT + DEF2-UNIVERSAL-JKFIT
  @DF-UKS Final Energy:  -726.33801594807687
    Total Energy =                       -726.3380159480769862
  Basis Set: CC-PVDZ
    Blend: CC-PVDZ
  Basis Set: (CC-PVDZ AUX)
    Blend: CC-PVDZ-JKFIT + DEF2-UNIVERSAL-JKFIT
  Basis Set: CC-PVDZ
    Blend: CC-PVDZ
  @DF-UKS Final Energy:  -726.39630742923418
    Total Energy =                       -726.3963074292341844
  @DF-UKS Final Energy:  -726.59546288789909
    Total Energy =                       -726.5954628878990889
  @DF-UKS Final Energy:  -727.15200166622924
    Total Energy =                       -727.1520016662291255
  @DF-UKS Final Energy:  -727.34216661785035
    Total Energy =                       -727.3421666178503528
  @DF-UKS Final Energy:  -727.45990325140292
    Total Energy =                       -727.4599032514029204
  @DF-UKS Final Energy:  -727.52952763539372
    Total Energy =                       -727.5295276353937197
  @DF-UKS Final Energy:  -727.56989323148207
    Total Energy =                       -727.5698932314820695
  @DF-UKS Final Energy:  -727.59435366587593
    Total Energy =                       -727.5943536658759285
  @DF-UKS Final Energy:  -727.60987866465007
    Total Energy =                       -727.6098786646499548
  @DF-UKS Final Energy:  -727.61985268838646
    Total Energy =                       -727.6198526883864588
  @DF-UKS Final Energy:  -727.62599237994584
    Total Energy =                       -727.6259923799458420
  @DF-UKS Final Energy:  -727.62953957418335
    Total Energy =                       -727.6295395741833545
  @DF-UKS Final Energy:  -727.63149649834645
    Total Energy =                       -727.6314964983465643
  @DF-UKS Final Energy:  -727.63253954011645
    Total Energy =                       -727.6325395401164542
  @DF-UKS Final Energy:  -727.63307817337875
    Total Energy =                       -727.6330781733787489
  @DF-UKS Final Energy:  -727.63334949141176
    Total Energy =                       -727.6333494914117637
  @DF-UKS Final Energy:  -727.63348317495763
    Total Energy =                       -727.6334831749576324
  @DF-UKS Final Energy:  -727.63354698765204
    Total Energy =                       -727.6335469876520392
  @DF-UKS Final Energy:  -727.63357515353027
    Total Energy =                       -727.6335751535301597
  @DF-UKS Final Energy:  -727.63358411622107
    Total Energy =                       -727.6335841162210727
  Basis Set: (CC-PVDZ AUX)
    Blend: CC-PVDZ-JKFIT + DEF2-UNIVERSAL-JKFIT
  Basis Set: CC-PVDZ
    Blend: CC-PVDZ
  Basis Set: (CC-PVDZ AUX)
    Blend: CC-PVDZ-JKFIT + DEF2-UNIVERSAL-JKFIT
  @DF-UKS Final Energy:  -727.63358645807023
    Total Energy =                       -727.6335864580702264
  Basis Set: CC-PVDZ
    Blend: CC-PVDZ
  Basis Set: (CC-PVDZ AUX)
    Blend: CC-PVDZ-JKFIT + DEF2-UNIVERSAL-JKFIT
  Charge       = 0
  Multiplicity = 1
  Basis Set: CC-PVDZ
    Blend: CC-PVDZ
  Basis Set: (CC-PVDZ AUX)
    Blend: CC-PVDZ-JKFIT + DEF2-UNIVERSAL-JKFIT

    Orbital Energies [Eh]
    ---------------------

    Alpha Occupied:

       1A1  -115.098908     2A1   -46.818587     3A1   -11.134992
       4A1    -8.684883     1B2    -8.684845     1B1    -8.684845
       5A1    -3.099026     6A1    -1.842357     2B2    -1.842353
       2B1    -1.842353     7A1    -0.963155     8A1    -0.421006
       3B1    -0.420815     3B2    -0.420815     9A1    -0.195002

    Alpha Virtual:

       4B1    -0.031333     4B2    -0.031333    10A1    -0.030726
      11A1     0.101898     5B1     0.166516     5B2     0.166516
      12A1     0.167674    13A1     0.322071     1A2     0.322420
      14A1     0.322421     6B1     0.322432     6B2     0.322432
       7B1     0.584079     7B2     0.584079    15A1     0.602220
      16A1     0.746994     2A2     0.837037     8B2     0.837068
       8B1     0.837068    17A1     0.837101    18A1     0.837987

    Beta Occupied:

       1A1  -115.098908     2A1   -46.818587     3A1   -11.134992
       4A1    -8.684883     1B2    -8.684845     1B1    -8.684845
       5A1    -3.099026     6A1    -1.842357     2B2    -1.842353
       2B1    -1.842353     7A1    -0.963155     8A1    -0.421006
       3B1    -0.420815     3B2    -0.420815     9A1    -0.195002

    Beta Virtual:

       4B1    -0.031333     4B2    -0.031333    10A1    -0.030726
      11A1     0.101898     5B1     0.166516     5B2     0.166516
      12A1     0.167674    13A1     0.322071     1A2     0.322420
      14A1     0.322421     6B1     0.322432     6B2     0.322432
       7B1     0.584079     7B2     0.584079    15A1     0.602220
      16A1     0.746994     2A2     0.837037     8B2     0.837068
       8B1     0.837068    17A1     0.837101    18A1     0.837987

    Final Occupation by Irrep:
             A1    A2    B1    B2
    DOCC [     9,    0,    3,    3 ]
    SOCC [     0,    0,    0,    0 ]
    NA   [     9,    0,    3,    3 ]
    NB   [     9,    0,    3,    3 ]

  @DF-UKS Final Energy:  -727.63358655743400

   => Energetics <=

    Nuclear Repulsion Energy =             22.8332437808801600
    One-Electron Energy =               -1053.4765206718218451
    Two-Electron Energy =                 341.1666749811700470
    DFT Exchange-Correlation Energy =     -38.1569846476623979
    Empirical Dispersion Energy =           0.0000000000000000
    VV10 Nonlocal Energy =                  0.0000000000000000
    Total Energy =                       -727.6335865574341142

  UHF NO Occupations:
  HONO-2 :    3 B1 2.0000000
  HONO-1 :    9 A1 2.0000000
  HONO-0 :    3 B2 2.0000000
  LUNO+0 :    4 B2 0.0000000
  LUNO+1 :   10 A1 0.0000000
  LUNO+2 :   11 A1 0.0000000
  LUNO+3 :   12 A1 0.0000000

Computation Completed

Properties will be evaluated at   0.000000,   0.000000,   0.000000 [a0]

Properties computed using the SCF density matrix

 Multipole Moments:

 ------------------------------------------------------------------------------------
     Multipole            Electronic (a.u.)      Nuclear  (a.u.)        Total (a.u.)
 ------------------------------------------------------------------------------------

 L = 1.  Multiply by 2.5417464519 to convert [e a0] to [Debye]
 Dipole X            :          0.0000000            0.0000000            0.0000000
 Dipole Y            :          0.0000000            0.0000000            0.0000000
 Dipole Z            :         -7.0992599            7.0738052           -0.0254547
 Magnitude           :                                                    0.0254547

 ------------------------------------------------------------------------------------

*** tstop() called on Joses-MacBook-Pro-2.local at Wed Jul 16 20:03:04 2025
Module time:
	user time   =       4.34 seconds =       0.07 minutes
	system time =       2.84 seconds =       0.05 minutes
	total time  =          1 seconds =       0.02 minutes
Total time:
	user time   =     342.25 seconds =       5.70 minutes
	system time =     102.56 seconds =       1.71 minutes
	total time  =         46 seconds =       0.77 minutes

*** tstart() called on Joses-MacBook-Pro-2.local
*** at Wed Jul 16 20:03:04 2025

         ------------------------------------------------------------
                                   SCF GRAD
                          Rob Parrish, Justin Turney,
                       Andy Simmonett, and Alex Sokolov
         ------------------------------------------------------------

  ==> Geometry <==

    Molecular point group: c2v
    Full point group: C_inf_v

    Geometry (in Angstrom), charge = 0, multiplicity = 1:

       Center              X                  Y                   Z               Mass
    ------------   -----------------  -----------------  -----------------  -----------------
         MG           0.000000000000     0.000000000000     3.128351826452    23.985041697000
         AR           0.000000000000     0.000000000000    -1.877606967735    39.962383123700

  Nuclear repulsion =   22.833243780880160

  ==> Basis Set <==

  Basis Set: CC-PVDZ
    Blend: CC-PVDZ
    Number of shells: 16
    Number of basis functions: 36
    Number of Cartesian functions: 38
    Spherical Harmonics?: true
    Max angular momentum: 2

  ==> DFJKGrad: Density-Fitted SCF Gradients <==

    Gradient:                    1
    J tasked:                  Yes
    K tasked:                  Yes
    wK tasked:                  No
    OpenMP threads:              1
    Integrals threads:           1
    Memory [MiB]:              375
    Schwarz Cutoff:          1E-12
    Fitting Condition:       1E-10

   => Auxiliary Basis Set <=

  Basis Set: (CC-PVDZ AUX)
    Blend: CC-PVDZ-JKFIT + DEF2-UNIVERSAL-JKFIT
    Number of shells: 70
    Number of basis functions: 224
    Number of Cartesian functions: 267
    Spherical Harmonics?: true
    Max angular momentum: 4

  ==> DFT Potential <==

   => LibXC <=

    Version 6.2.2
    S. Lehtola, C. Steigemann, M. J.T. Oliveira, and M. A.L. Marques.,  SoftwareX 7, 1â€“5 (2018) (10.1016/j.softx.2017.11.002)

   => Composite Functional: B3LYP <=

    B3LYP Hyb-GGA Exchange-Correlation Functional

    P. J. Stephens, F. J. Devlin, C. F. Chabalowski, and M. J. Frisch.,  J. Phys. Chem. 98, 11623 (1994) (10.1021/j100096a001)

    Deriv               =              1
    GGA                 =           TRUE
    Meta                =          FALSE

    Exchange Hybrid     =           TRUE
    MP2 Hybrid          =          FALSE

   => Exchange Functionals <=

    0.0800   Slater exchange
    0.7200         Becke 88

   => Exact (HF) Exchange <=

    0.2000               HF

   => Correlation Functionals <=

    0.1900   Vosko, Wilk & Nusair (VWN5_RPA)
    0.8100   Lee, Yang & Parr

   => LibXC Density Thresholds  <==

    XC_HYB_GGA_XC_B3LYP:  1.00E-15

   => Molecular Quadrature <=

    Radial Scheme          =       TREUTLER
    Pruning Scheme         =           NONE
    Nuclear Scheme         =       TREUTLER

    Blocking Scheme        =         OCTREE
    BS radius alpha        =              1
    Pruning alpha          =              1
    Radial Points          =             75
    Spherical Points       =            302
    Total Points           =          43154
    Total Blocks           =            450
    Max Points             =            256
    Max Functions          =             36
    Weights Tolerance      =       1.00E-15

  -Total Gradient:
     Atom            X                  Y                   Z
    ------   -----------------  -----------------  -----------------
       1       -0.000000000000     0.000000000000    -0.000010882657
       2        0.000000000000    -0.000000000000    -0.000010605614

*** tstop() called on Joses-MacBook-Pro-2.local at Wed Jul 16 20:03:04 2025
Module time:
	user time   =       1.49 seconds =       0.02 minutes
	system time =       2.10 seconds =       0.03 minutes
	total time  =          0 seconds =       0.00 minutes
Total time:
	user time   =     343.74 seconds =       5.73 minutes
	system time =     104.67 seconds =       1.74 minutes
	total time  =         46 seconds =       0.77 minutes

    			-----------------------------------------

    			 OPTKING 3.0: for geometry optimizations

    			     By R.A. King, Bethel University

    			        with contributions from

    			    A.V. Copan, J. Cayton, A. Heide

    			-----------------------------------------

	                            ===> Fragment 1 <==

	 Z (Atomic Numbers)          Masses                          Geom
	      12.000000            23.985042          0.00000000  0.00000000  5.91172818
	      18.000000            39.962383          0.00000000  0.00000000 -3.54816294

	 - Coordinate -           - BOHR/RAD -       - ANG/DEG -
	 R(1,2)           =         9.459891           5.005959

	        --- Internal Coordinate Step in ANG or DEG, aJ/ANG or AJ/DEG ---
	-------------------------------------------------------------------------------
	           Coordinate      Previous         Force          Change          New
	           ----------      --------        ------          ------        ------
	               R(1,2)       5.00596        0.00000        0.00051       5.00647
	-------------------------------------------------------------------------------

	                                 ==> Convergence Check <==

	Measures of convergence in internal coordinates in au.

	Criteria marked as inactive (o), active & met (*), and active & unmet ( ).

	----------------------------------------------------------------------------------------------
	   Step    Total Energy     Delta E     Max Force     RMS Force      Max Disp      RMS Disp
	----------------------------------------------------------------------------------------------
	  Convergence Criteria     1.00e-06 *    3.00e-04 *             o    1.20e-03 *             o
	----------------------------------------------------------------------------------------------
	    24    -727.63358656   -9.94e-08 *    1.39e-07 *    1.39e-07 o    9.69e-04 *    9.69e-04 o  ~
	----------------------------------------------------------------------------------------------

Next Geometry in Ang
	Fragment 1 (Ang)

	   Mg   0.0000000000   0.0000000000   3.1286083351
	   Ar   0.0000000000   0.0000000000  -1.8778634764

    Final optimized geometry and variables:
    Molecular point group: c2v
    Full point group: C_inf_v

    Geometry (in Angstrom), charge = 0, multiplicity = 1:

    MG           0.000000000000     0.000000000000     3.128351826452
    AR           0.000000000000     0.000000000000    -1.877606967735

    Psi4 stopped on: Wednesday, 16 July 2025 08:03PM
    Psi4 wall time for execution: 0:00:46.62

*** Psi4 exiting successfully. Buy a developer a beer!
