                               Psi4 1.9.1 release

  ==> Input File <==

--------------------------------------------------------------------------
molecule {
0 1
He   0.00000        0.60000        0.00000
Be   0.00000       -0.60000        0.00000
}

set {
basis              cc-pvdz
reference          uks
maxiter            500
geom_maxiter       500
DAMPING_PERCENTAGE 1
guess              SAP
}

optimize('b3lyp')
--------------------------------------------------------------------------

    Molecular point group: c2v
  Charge       = 0
  Multiplicity = 1
  Basis Set: CC-PVDZ
    Blend: CC-PVDZ
  Basis Set: (CC-PVDZ AUX)
    Blend: DEF2-UNIVERSAL-JKFIT
  @DF-UKS Final Energy:   -17.47496580120185
    Total Energy =                        -17.4749658012018507
 Dipole X            :          0.0000000            0.0000000            0.0000000
 Dipole Y            :          0.0000000            0.0000000            0.0000000
 Dipole Z            :          1.3373731            0.3509073            1.6882804
 Magnitude           :                                                    1.6882804
    Molecular point group: c2v
  Basis Set: CC-PVDZ
    Blend: CC-PVDZ
  Basis Set: (CC-PVDZ AUX)
    Blend: DEF2-UNIVERSAL-JKFIT
  Basis Set: CC-PVDZ
    Blend: CC-PVDZ
  Basis Set: (CC-PVDZ AUX)
    Blend: DEF2-UNIVERSAL-JKFIT
  @DF-UKS Final Energy:   -17.51320559084215
    Total Energy =                        -17.5132055908421549
  Basis Set: CC-PVDZ
    Blend: CC-PVDZ
  Basis Set: (CC-PVDZ AUX)
    Blend: DEF2-UNIVERSAL-JKFIT
  Basis Set: CC-PVDZ
    Blend: CC-PVDZ
  @DF-UKS Final Energy:   -17.53619321670015
    Total Energy =                        -17.5361932167001520
  @DF-UKS Final Energy:   -17.55612953935018
    Total Energy =                        -17.5561295393501773
  @DF-UKS Final Energy:   -17.56381895311955
    Total Energy =                        -17.5638189531195472
  @DF-UKS Final Energy:   -17.57160137399613
    Total Energy =                        -17.5716013739961348
  @DF-UKS Final Energy:   -17.57326904490105
    Total Energy =                        -17.5732690449010498
  @DF-UKS Final Energy:   -17.57617459123633
    Total Energy =                        -17.5761745912363310
  @DF-UKS Final Energy:   -17.57651904017156
    Total Energy =                        -17.5765190401715579
  @DF-UKS Final Energy:   -17.57769082093932
    Total Energy =                        -17.5776908209393206
  @DF-UKS Final Energy:   -17.57812143541189
    Total Energy =                        -17.5781214354118909
  @DF-UKS Final Energy:   -17.57832381094647
    Total Energy =                        -17.5783238109464719
  @DF-UKS Final Energy:   -17.57840377555226
    Total Energy =                        -17.5784037755522569
  @DF-UKS Final Energy:   -17.57843043600199
    Total Energy =                        -17.5784304360019874
  Basis Set: (CC-PVDZ AUX)
    Blend: DEF2-UNIVERSAL-JKFIT
  Basis Set: CC-PVDZ
    Blend: CC-PVDZ
  Basis Set: (CC-PVDZ AUX)
    Blend: DEF2-UNIVERSAL-JKFIT
  @DF-UKS Final Energy:   -17.57843766085513
    Total Energy =                        -17.5784376608551263
  Basis Set: CC-PVDZ
    Blend: CC-PVDZ
  Basis Set: (CC-PVDZ AUX)
    Blend: DEF2-UNIVERSAL-JKFIT
  Charge       = 0
  Multiplicity = 1
  Basis Set: CC-PVDZ
    Blend: CC-PVDZ
  Basis Set: (CC-PVDZ AUX)
    Blend: DEF2-UNIVERSAL-JKFIT

    Orbital Energies [Eh]
    ---------------------

    Alpha Occupied:

       1A1    -4.087339     2A1    -0.651796     3A1    -0.232671

    Alpha Virtual:

       1B1    -0.049715     1B2    -0.049715     4A1    -0.048789
       5A1     0.192989     2B2     0.194780     2B1     0.194780
       6A1     0.199271     7A1     0.478522     8A1     0.478765
       1A2     0.478765     3B2     0.478786     3B1     0.478786
       9A1     1.144053     4B1     2.187734     4B2     2.187734
      10A1     2.192646

    Beta Occupied:

       1A1    -4.087339     2A1    -0.651796     3A1    -0.232671

    Beta Virtual:

       1B1    -0.049715     1B2    -0.049715     4A1    -0.048789
       5A1     0.192989     2B2     0.194780     2B1     0.194780
       6A1     0.199271     7A1     0.478522     8A1     0.478765
       1A2     0.478765     3B1     0.478786     3B2     0.478786
       9A1     1.144053     4B1     2.187734     4B2     2.187734
      10A1     2.192646

    Final Occupation by Irrep:
             A1    A2    B1    B2
    DOCC [     3,    0,    0,    0 ]
    SOCC [     0,    0,    0,    0 ]
    NA   [     3,    0,    0,    0 ]
    NB   [     3,    0,    0,    0 ]

  @DF-UKS Final Energy:   -17.57843833232774

   => Energetics <=

    Nuclear Repulsion Energy =              1.1003232150178945
    One-Electron Energy =                 -25.1624906980718315
    Two-Electron Energy =                   9.5905942854560617
    DFT Exchange-Correlation Energy =      -3.1068651347298641
    Empirical Dispersion Energy =           0.0000000000000000
    VV10 Nonlocal Energy =                  0.0000000000000000
    Total Energy =                        -17.5784383323277389

  UHF NO Occupations:
  HONO-2 :    1 A1 2.0000000
  HONO-1 :    2 A1 2.0000000
  HONO-0 :    3 A1 2.0000000
  LUNO+0 :    4 A1 0.0000000
  LUNO+1 :    5 A1 0.0000000
  LUNO+2 :    6 A1 0.0000000
  LUNO+3 :    7 A1 0.0000000

Computation Completed

Properties will be evaluated at   0.000000,   0.000000,   0.000000 [a0]

Properties computed using the SCF density matrix

 Multipole Moments:

 ------------------------------------------------------------------------------------
     Multipole            Electronic (a.u.)      Nuclear  (a.u.)        Total (a.u.)
 ------------------------------------------------------------------------------------

 L = 1.  Multiply by 2.5417464519 to convert [e a0] to [Debye]
 Dipole X            :          0.0000000            0.0000000            0.0000000
 Dipole Y            :          0.0000000            0.0000000            0.0000000
 Dipole Z            :         -1.1054513            1.1250764            0.0196251
 Magnitude           :                                                    0.0196251

 ------------------------------------------------------------------------------------

*** tstop() called on Joses-MacBook-Pro-2.local at Wed Jul 16 18:19:16 2025
Module time:
	user time   =       0.59 seconds =       0.01 minutes
	system time =       3.31 seconds =       0.06 minutes
	total time  =          0 seconds =       0.00 minutes
Total time:
	user time   =      16.90 seconds =       0.28 minutes
	system time =      67.69 seconds =       1.13 minutes
	total time  =          9 seconds =       0.15 minutes

*** tstart() called on Joses-MacBook-Pro-2.local
*** at Wed Jul 16 18:19:16 2025

         ------------------------------------------------------------
                                   SCF GRAD
                          Rob Parrish, Justin Turney,
                       Andy Simmonett, and Alex Sokolov
         ------------------------------------------------------------

  ==> Geometry <==

    Molecular point group: c2v
    Full point group: C_inf_v

    Geometry (in Angstrom), charge = 0, multiplicity = 1:

       Center              X                  Y                   Z               Mass
    ------------   -----------------  -----------------  -----------------  -----------------
         HE           0.000000000000     0.000000000000     2.664181490345     4.002603254130
         BE           0.000000000000     0.000000000000    -1.183249544082     9.012183065000

  Nuclear repulsion =    1.100323215017895

  ==> Basis Set <==

  Basis Set: CC-PVDZ
    Blend: CC-PVDZ
    Number of shells: 9
    Number of basis functions: 19
    Number of Cartesian functions: 20
    Spherical Harmonics?: true
    Max angular momentum: 2

  ==> DFJKGrad: Density-Fitted SCF Gradients <==

    Gradient:                    1
    J tasked:                  Yes
    K tasked:                  Yes
    wK tasked:                  No
    OpenMP threads:              1
    Integrals threads:           1
    Memory [MiB]:              375
    Schwarz Cutoff:          1E-12
    Fitting Condition:       1E-10

   => Auxiliary Basis Set <=

  Basis Set: (CC-PVDZ AUX)
    Blend: DEF2-UNIVERSAL-JKFIT
    Number of shells: 26
    Number of basis functions: 74
    Number of Cartesian functions: 85
    Spherical Harmonics?: true
    Max angular momentum: 3

  ==> DFT Potential <==

   => LibXC <=

    Version 6.2.2
    S. Lehtola, C. Steigemann, M. J.T. Oliveira, and M. A.L. Marques.,  SoftwareX 7, 1â€“5 (2018) (10.1016/j.softx.2017.11.002)

   => Composite Functional: B3LYP <=

    B3LYP Hyb-GGA Exchange-Correlation Functional

    P. J. Stephens, F. J. Devlin, C. F. Chabalowski, and M. J. Frisch.,  J. Phys. Chem. 98, 11623 (1994) (10.1021/j100096a001)

    Deriv               =              1
    GGA                 =           TRUE
    Meta                =          FALSE

    Exchange Hybrid     =           TRUE
    MP2 Hybrid          =          FALSE

   => Exchange Functionals <=

    0.0800   Slater exchange
    0.7200         Becke 88

   => Exact (HF) Exchange <=

    0.2000               HF

   => Correlation Functionals <=

    0.1900   Vosko, Wilk & Nusair (VWN5_RPA)
    0.8100   Lee, Yang & Parr

   => LibXC Density Thresholds  <==

    XC_HYB_GGA_XC_B3LYP:  1.00E-15

   => Molecular Quadrature <=

    Radial Scheme          =       TREUTLER
    Pruning Scheme         =           NONE
    Nuclear Scheme         =       TREUTLER

    Blocking Scheme        =         OCTREE
    BS radius alpha        =              1
    Pruning alpha          =              1
    Radial Points          =             75
    Spherical Points       =            302
    Total Points           =          43683
    Total Blocks           =            408
    Max Points             =            256
    Max Functions          =             19
    Weights Tolerance      =       1.00E-15

  -Total Gradient:
     Atom            X                  Y                   Z
    ------   -----------------  -----------------  -----------------
       1        0.000000000000    -0.000000000000    -0.000000151558
       2        0.000000000000     0.000000000000     0.000012680624

*** tstop() called on Joses-MacBook-Pro-2.local at Wed Jul 16 18:19:16 2025
Module time:
	user time   =       0.25 seconds =       0.00 minutes
	system time =       0.85 seconds =       0.01 minutes
	total time  =          0 seconds =       0.00 minutes
Total time:
	user time   =      17.15 seconds =       0.29 minutes
	system time =      68.54 seconds =       1.14 minutes
	total time  =          9 seconds =       0.15 minutes

    			-----------------------------------------

    			 OPTKING 3.0: for geometry optimizations

    			     By R.A. King, Bethel University

    			        with contributions from

    			    A.V. Copan, J. Cayton, A. Heide

    			-----------------------------------------

	                            ===> Fragment 1 <==

	 Z (Atomic Numbers)          Masses                          Geom
	       2.000000             4.002603          0.00000000  0.00000000  5.03457337
	       4.000000             9.012183          0.00000000  0.00000000 -2.23601758

	 - Coordinate -           - BOHR/RAD -       - ANG/DEG -
	 R(1,2)           =         7.270591           3.847431

	        --- Internal Coordinate Step in ANG or DEG, aJ/ANG or AJ/DEG ---
	-------------------------------------------------------------------------------
	           Coordinate      Previous         Force          Change          New
	           ----------      --------        ------          ------        ------
	               R(1,2)       3.84743        0.00005        0.00855       3.85598
	-------------------------------------------------------------------------------

	                                 ==> Convergence Check <==

	Measures of convergence in internal coordinates in au.

	Criteria marked as inactive (o), active & met (*), and active & unmet ( ).

	----------------------------------------------------------------------------------------------
	   Step    Total Energy     Delta E     Max Force     RMS Force      Max Disp      RMS Disp
	----------------------------------------------------------------------------------------------
	  Convergence Criteria     1.00e-06 *    3.00e-04 *             o    1.20e-03 *             o
	----------------------------------------------------------------------------------------------
	    16     -17.57843833   -6.71e-07 *    6.42e-06 *    6.42e-06 o    1.62e-02      1.62e-02 o  ~
	----------------------------------------------------------------------------------------------

Next Geometry in Ang
	Fragment 1 (Ang)

	   He   0.0000000000   0.0000000000   2.6684560659
	   Be   0.0000000000   0.0000000000  -1.1875241197

    Final optimized geometry and variables:
    Molecular point group: c2v
    Full point group: C_inf_v

    Geometry (in Angstrom), charge = 0, multiplicity = 1:

    HE           0.000000000000     0.000000000000     2.664181490345
    BE           0.000000000000     0.000000000000    -1.183249544082

    Psi4 stopped on: Wednesday, 16 July 2025 06:19PM
    Psi4 wall time for execution: 0:00:09.40

*** Psi4 exiting successfully. Buy a developer a beer!
