                               Psi4 1.9.1 release

  ==> Input File <==

--------------------------------------------------------------------------
molecule {
0 1
Be   0.00000        0.60000        0.00000
Ar   0.00000       -0.60000        0.00000
}

set {
basis              cc-pvdz
reference          uks
maxiter            500
geom_maxiter       500
DAMPING_PERCENTAGE 1
guess              SAP
}

optimize('b3lyp')
--------------------------------------------------------------------------

    Molecular point group: c2v
  Charge       = 0
  Multiplicity = 1
  Basis Set: CC-PVDZ
    Blend: CC-PVDZ
  Basis Set: (CC-PVDZ AUX)
    Blend: CC-PVDZ-JKFIT + DEF2-UNIVERSAL-JKFIT
  @DF-UKS Final Energy:  -541.70872543696885
    Total Energy =                       -541.7087254369688480
 Dipole X            :          0.0000000            0.0000000            0.0000000
 Dipole Y            :          0.0000000            0.0000000            0.0000000
 Dipole Z            :         -2.1769142           -0.1097272           -2.2866414
 Magnitude           :                                                    2.2866414
    Molecular point group: c2v
  Basis Set: CC-PVDZ
    Blend: CC-PVDZ
  Basis Set: (CC-PVDZ AUX)
    Blend: CC-PVDZ-JKFIT + DEF2-UNIVERSAL-JKFIT
  Basis Set: CC-PVDZ
    Blend: CC-PVDZ
  Basis Set: (CC-PVDZ AUX)
    Blend: CC-PVDZ-JKFIT + DEF2-UNIVERSAL-JKFIT
  @DF-UKS Final Energy:  -541.90353411103990
    Total Energy =                       -541.9035341110397894
  Basis Set: CC-PVDZ
    Blend: CC-PVDZ
  Basis Set: (CC-PVDZ AUX)
    Blend: CC-PVDZ-JKFIT + DEF2-UNIVERSAL-JKFIT
  Basis Set: CC-PVDZ
    Blend: CC-PVDZ
  @DF-UKS Final Energy:  -542.02355701173587
    Total Energy =                       -542.0235570117359885
  @DF-UKS Final Energy:  -542.09152331421376
    Total Energy =                       -542.0915233142136458
  @DF-UKS Final Energy:  -542.13126176778451
    Total Energy =                       -542.1312617677845083
  @DF-UKS Final Energy:  -542.15873117869660
    Total Energy =                       -542.1587311786965984
  @DF-UKS Final Energy:  -542.17989076976812
    Total Energy =                       -542.1798907697681216
  @DF-UKS Final Energy:  -542.19517350064314
    Total Energy =                       -542.1951735006431363
  @DF-UKS Final Energy:  -542.19627672285947
    Total Energy =                       -542.1962767228594657
  @DF-UKS Final Energy:  -542.20552828085692
    Total Energy =                       -542.2055282808570382
  @DF-UKS Final Energy:  -542.20586197973728
    Total Energy =                       -542.2058619797372785
  @DF-UKS Final Energy:  -542.21013614800040
    Total Energy =                       -542.2101361480004016
  @DF-UKS Final Energy:  -542.21022757762910
    Total Energy =                       -542.2102275776290981
  @DF-UKS Final Energy:  -542.21217021204347
    Total Energy =                       -542.2121702120434747
  @DF-UKS Final Energy:  -542.21219349500973
    Total Energy =                       -542.2121934950097284
  @DF-UKS Final Energy:  -542.21305684954882
    Total Energy =                       -542.2130568495488205
  @DF-UKS Final Energy:  -542.21306226673710
    Total Energy =                       -542.2130622667370972
  @DF-UKS Final Energy:  -542.21306757017612
    Total Energy =                       -542.2130675701761220
  @DF-UKS Final Energy:  -542.21341890874669
    Total Energy =                       -542.2134189087466893
  @DF-UKS Final Energy:  -542.21352823011318
    Total Energy =                       -542.2135282301130701
  @DF-UKS Final Energy:  -542.21357618327761
    Total Energy =                       -542.2135761832776097
  @DF-UKS Final Energy:  -542.21359148946772
    Total Energy =                       -542.2135914894677171
  Basis Set: (CC-PVDZ AUX)
    Blend: CC-PVDZ-JKFIT + DEF2-UNIVERSAL-JKFIT
  Basis Set: CC-PVDZ
    Blend: CC-PVDZ
  Basis Set: (CC-PVDZ AUX)
    Blend: CC-PVDZ-JKFIT + DEF2-UNIVERSAL-JKFIT
  @DF-UKS Final Energy:  -542.21359549039789
    Total Energy =                       -542.2135954903978927
  Basis Set: CC-PVDZ
    Blend: CC-PVDZ
  Basis Set: (CC-PVDZ AUX)
    Blend: CC-PVDZ-JKFIT + DEF2-UNIVERSAL-JKFIT
  Charge       = 0
  Multiplicity = 1
  Basis Set: CC-PVDZ
    Blend: CC-PVDZ
  Basis Set: (CC-PVDZ AUX)
    Blend: CC-PVDZ-JKFIT + DEF2-UNIVERSAL-JKFIT

    Orbital Energies [Eh]
    ---------------------

    Alpha Occupied:

       1A1  -115.099017     2A1   -11.135099     3A1    -8.684993
       1B2    -8.684951     1B1    -8.684951     4A1    -4.087300
       5A1    -0.963248     6A1    -0.421152     2B1    -0.420900
       2B2    -0.420900     7A1    -0.232557

    Alpha Virtual:

       3B1    -0.049595     3B2    -0.049595     8A1    -0.049022
       9A1     0.192293     4B1     0.194808     4B2     0.194808
      10A1     0.195411    11A1     0.475604     5B2     0.478784
       5B1     0.478784     1A2     0.478856    12A1     0.478860
       6B2     0.584214     6B1     0.584214    13A1     0.611443
      14A1     0.746652     2A2     0.836974    15A1     0.836988
       7B1     0.837017     7B2     0.837017    16A1     0.838707

    Beta Occupied:

       1A1  -115.099017     2A1   -11.135099     3A1    -8.684993
       1B2    -8.684951     1B1    -8.684951     4A1    -4.087300
       5A1    -0.963248     6A1    -0.421152     2B1    -0.420900
       2B2    -0.420900     7A1    -0.232557

    Beta Virtual:

       3B1    -0.049595     3B2    -0.049595     8A1    -0.049022
       9A1     0.192293     4B1     0.194808     4B2     0.194808
      10A1     0.195411    11A1     0.475604     5B2     0.478784
       5B1     0.478784     1A2     0.478856    12A1     0.478860
       6B1     0.584214     6B2     0.584214    13A1     0.611443
      14A1     0.746652     2A2     0.836974    15A1     0.836988
       7B1     0.837017     7B2     0.837017    16A1     0.838707

    Final Occupation by Irrep:
             A1    A2    B1    B2
    DOCC [     7,    0,    2,    2 ]
    SOCC [     0,    0,    0,    0 ]
    NA   [     7,    0,    2,    2 ]
    NB   [     7,    0,    2,    2 ]

  @DF-UKS Final Energy:  -542.21359593920329

   => Energetics <=

    Nuclear Repulsion Energy =              8.4526602420436792
    One-Electron Energy =                -764.3707284060913025
    Two-Electron Energy =                 240.8291693199923316
    DFT Exchange-Correlation Energy =     -27.1246970951479440
    Empirical Dispersion Energy =           0.0000000000000000
    VV10 Nonlocal Energy =                  0.0000000000000000
    Total Energy =                       -542.2135959392032873

  UHF NO Occupations:
  HONO-2 :    2 B1 2.0000000
  HONO-1 :    2 B2 2.0000000
  HONO-0 :    7 A1 2.0000000
  LUNO+0 :    8 A1 0.0000000
  LUNO+1 :    3 B1 0.0000000
  LUNO+2 :    9 A1 0.0000000
  LUNO+3 :   10 A1 0.0000000

Computation Completed

Properties will be evaluated at   0.000000,   0.000000,   0.000000 [a0]

Properties computed using the SCF density matrix

 Multipole Moments:

 ------------------------------------------------------------------------------------
     Multipole            Electronic (a.u.)      Nuclear  (a.u.)        Total (a.u.)
 ------------------------------------------------------------------------------------

 L = 1.  Multiply by 2.5417464519 to convert [e a0] to [Debye]
 Dipole X            :          0.0000000            0.0000000            0.0000000
 Dipole Y            :          0.0000000            0.0000000            0.0000000
 Dipole Z            :          0.3851933           -0.4121671           -0.0269739
 Magnitude           :                                                    0.0269739

 ------------------------------------------------------------------------------------

*** tstop() called on Joses-MacBook-Pro-2.local at Wed Jul 16 18:47:59 2025
Module time:
	user time   =       2.35 seconds =       0.04 minutes
	system time =       2.91 seconds =       0.05 minutes
	total time  =          0 seconds =       0.00 minutes
Total time:
	user time   =     123.47 seconds =       2.06 minutes
	system time =     103.32 seconds =       1.72 minutes
	total time  =         24 seconds =       0.40 minutes

*** tstart() called on Joses-MacBook-Pro-2.local
*** at Wed Jul 16 18:47:59 2025

         ------------------------------------------------------------
                                   SCF GRAD
                          Rob Parrish, Justin Turney,
                       Andy Simmonett, and Alex Sokolov
         ------------------------------------------------------------

  ==> Geometry <==

    Molecular point group: c2v
    Full point group: C_inf_v

    Geometry (in Angstrom), charge = 0, multiplicity = 1:

       Center              X                  Y                   Z               Mass
    ------------   -----------------  -----------------  -----------------  -----------------
         BE           0.000000000000     0.000000000000     3.678078532806     9.012183065000
         AR           0.000000000000     0.000000000000    -0.829467976484    39.962383123700

  Nuclear repulsion =    8.452660242043679

  ==> Basis Set <==

  Basis Set: CC-PVDZ
    Blend: CC-PVDZ
    Number of shells: 14
    Number of basis functions: 32
    Number of Cartesian functions: 34
    Spherical Harmonics?: true
    Max angular momentum: 2

  ==> DFJKGrad: Density-Fitted SCF Gradients <==

    Gradient:                    1
    J tasked:                  Yes
    K tasked:                  Yes
    wK tasked:                  No
    OpenMP threads:              1
    Integrals threads:           1
    Memory [MiB]:              375
    Schwarz Cutoff:          1E-12
    Fitting Condition:       1E-10

   => Auxiliary Basis Set <=

  Basis Set: (CC-PVDZ AUX)
    Blend: CC-PVDZ-JKFIT + DEF2-UNIVERSAL-JKFIT
    Number of shells: 53
    Number of basis functions: 163
    Number of Cartesian functions: 190
    Spherical Harmonics?: true
    Max angular momentum: 3

  ==> DFT Potential <==

   => LibXC <=

    Version 6.2.2
    S. Lehtola, C. Steigemann, M. J.T. Oliveira, and M. A.L. Marques.,  SoftwareX 7, 1â€“5 (2018) (10.1016/j.softx.2017.11.002)

   => Composite Functional: B3LYP <=

    B3LYP Hyb-GGA Exchange-Correlation Functional

    P. J. Stephens, F. J. Devlin, C. F. Chabalowski, and M. J. Frisch.,  J. Phys. Chem. 98, 11623 (1994) (10.1021/j100096a001)

    Deriv               =              1
    GGA                 =           TRUE
    Meta                =          FALSE

    Exchange Hybrid     =           TRUE
    MP2 Hybrid          =          FALSE

   => Exchange Functionals <=

    0.0800   Slater exchange
    0.7200         Becke 88

   => Exact (HF) Exchange <=

    0.2000               HF

   => Correlation Functionals <=

    0.1900   Vosko, Wilk & Nusair (VWN5_RPA)
    0.8100   Lee, Yang & Parr

   => LibXC Density Thresholds  <==

    XC_HYB_GGA_XC_B3LYP:  1.00E-15

   => Molecular Quadrature <=

    Radial Scheme          =       TREUTLER
    Pruning Scheme         =           NONE
    Nuclear Scheme         =       TREUTLER

    Blocking Scheme        =         OCTREE
    BS radius alpha        =              1
    Pruning alpha          =              1
    Radial Points          =             75
    Spherical Points       =            302
    Total Points           =          42916
    Total Blocks           =            446
    Max Points             =            253
    Max Functions          =             32
    Weights Tolerance      =       1.00E-15

  -Total Gradient:
     Atom            X                  Y                   Z
    ------   -----------------  -----------------  -----------------
       1        0.000000000000     0.000000000000    -0.000005241480
       2        0.000000000000    -0.000000000000     0.000002167725

*** tstop() called on Joses-MacBook-Pro-2.local at Wed Jul 16 18:48:00 2025
Module time:
	user time   =       0.84 seconds =       0.01 minutes
	system time =       1.70 seconds =       0.03 minutes
	total time  =          1 seconds =       0.02 minutes
Total time:
	user time   =     124.31 seconds =       2.07 minutes
	system time =     105.03 seconds =       1.75 minutes
	total time  =         25 seconds =       0.42 minutes

    			-----------------------------------------

    			 OPTKING 3.0: for geometry optimizations

    			     By R.A. King, Bethel University

    			        with contributions from

    			    A.V. Copan, J. Cayton, A. Heide

    			-----------------------------------------

	                            ===> Fragment 1 <==

	 Z (Atomic Numbers)          Masses                          Geom
	       4.000000             9.012183          0.00000000  0.00000000  6.95056109
	      18.000000            39.962383          0.00000000  0.00000000 -1.56746731

	 - Coordinate -           - BOHR/RAD -       - ANG/DEG -
	 R(1,2)           =         8.518028           4.507547

	        --- Internal Coordinate Step in ANG or DEG, aJ/ANG or AJ/DEG ---
	-------------------------------------------------------------------------------
	           Coordinate      Previous         Force          Change          New
	           ----------      --------        ------          ------        ------
	               R(1,2)       4.50755        0.00003        0.00809       4.51564
	-------------------------------------------------------------------------------

	                                 ==> Convergence Check <==

	Measures of convergence in internal coordinates in au.

	Criteria marked as inactive (o), active & met (*), and active & unmet ( ).

	----------------------------------------------------------------------------------------------
	   Step    Total Energy     Delta E     Max Force     RMS Force      Max Disp      RMS Disp
	----------------------------------------------------------------------------------------------
	  Convergence Criteria     1.00e-06 *    3.00e-04 *             o    1.20e-03 *             o
	----------------------------------------------------------------------------------------------
	    24    -542.21359594   -4.49e-07 *    3.70e-06 *    3.70e-06 o    1.53e-02      1.53e-02 o  ~
	----------------------------------------------------------------------------------------------

Next Geometry in Ang
	Fragment 1 (Ang)

	   Be   0.0000000000   0.0000000000   3.6821251813
	   Ar   0.0000000000   0.0000000000  -0.8335146250

    Final optimized geometry and variables:
    Molecular point group: c2v
    Full point group: C_inf_v

    Geometry (in Angstrom), charge = 0, multiplicity = 1:

    BE           0.000000000000     0.000000000000     3.678078532806
    AR           0.000000000000     0.000000000000    -0.829467976484

    Psi4 stopped on: Wednesday, 16 July 2025 06:48PM
    Psi4 wall time for execution: 0:00:24.91

*** Psi4 exiting successfully. Buy a developer a beer!
