                               Psi4 1.9.1 release

  ==> Input File <==

--------------------------------------------------------------------------
molecule {
0 1
N   0.00000        0.60000        0.00000
Cl   0.00000       -0.60000        0.00000
}

set {
basis              cc-pvdz
reference          uks
maxiter            500
geom_maxiter       500
DAMPING_PERCENTAGE 1
guess              SAP
}

optimize('b3lyp')
--------------------------------------------------------------------------

    Molecular point group: c2v
  Charge       = 0
  Multiplicity = 1
  Basis Set: CC-PVDZ
    Blend: CC-PVDZ
  Basis Set: (CC-PVDZ AUX)
    Blend: CC-PVDZ-JKFIT
  @DF-UKS Final Energy:  -514.53926813029818
    Total Energy =                       -514.5392681302981828
 Dipole X            :          0.0000000            0.0000000            0.0000000
 Dipole Y            :          0.0000000            0.0000000            0.0000000
 Dipole Z            :         -1.2122474            0.3116229           -0.9006245
 Magnitude           :                                                    0.9006245
    Molecular point group: c2v
  Basis Set: CC-PVDZ
    Blend: CC-PVDZ
  Basis Set: (CC-PVDZ AUX)
    Blend: CC-PVDZ-JKFIT
  Basis Set: CC-PVDZ
    Blend: CC-PVDZ
  Basis Set: (CC-PVDZ AUX)
    Blend: CC-PVDZ-JKFIT
  @DF-UKS Final Energy:  -514.68420907331597
    Total Energy =                       -514.6842090733159694
  Basis Set: CC-PVDZ
    Blend: CC-PVDZ
  Basis Set: (CC-PVDZ AUX)
    Blend: CC-PVDZ-JKFIT
  Basis Set: CC-PVDZ
    Blend: CC-PVDZ
  @DF-UKS Final Energy:  -514.74931475271137
    Total Energy =                       -514.7493147527113706
  @DF-UKS Final Energy:  -514.76955630610883
    Total Energy =                       -514.7695563061088251
  @DF-UKS Final Energy:  -514.77970235395105
    Total Energy =                       -514.7797023539510519
  @DF-UKS Final Energy:  -514.78262807581166
    Total Energy =                       -514.7826280758116582
  @DF-UKS Final Energy:  -514.78358956424449
    Total Energy =                       -514.7835895642444939
  @DF-UKS Final Energy:  -514.78402026509002
    Total Energy =                       -514.7840202650900210
  @DF-UKS Final Energy:  -514.78411874361393
    Total Energy =                       -514.7841187436139307
  Basis Set: (CC-PVDZ AUX)
    Blend: CC-PVDZ-JKFIT
  Basis Set: CC-PVDZ
    Blend: CC-PVDZ
  Basis Set: (CC-PVDZ AUX)
    Blend: CC-PVDZ-JKFIT
  @DF-UKS Final Energy:  -514.78413123630082
    Total Energy =                       -514.7841312363008228
  Basis Set: CC-PVDZ
    Blend: CC-PVDZ
  Basis Set: (CC-PVDZ AUX)
    Blend: CC-PVDZ-JKFIT
  Charge       = 0
  Multiplicity = 1
  Basis Set: CC-PVDZ
    Blend: CC-PVDZ
  Basis Set: (CC-PVDZ AUX)
    Blend: CC-PVDZ-JKFIT

    Orbital Energies [Eh]
    ---------------------

    Alpha Occupied:

       1A1  -101.622726     2A1   -14.416895     3A1    -9.539156
       4A1    -7.300494     1B2    -7.296622     1B1    -7.288763
       5A1    -0.969894     6A1    -0.691250     2B2    -0.418365
       7A1    -0.413700     2B1    -0.409428     3B1    -0.222591

    Alpha Virtual:

       3B2    -0.163243     8A1     0.014337     9A1     0.476007
       4B2     0.502025     4B1     0.516047    10A1     0.554690
       5B2     0.630331     5B1     0.642826     1A2     0.669592
      11A1     0.670037    12A1     0.709790     6B2     0.790774
       6B1     0.806023    13A1     1.024352    14A1     1.185282
       2A2     1.746876    15A1     1.753034     7B2     1.877470
       7B1     1.909168    16A1     2.377654

    Beta Occupied:

       1A1  -101.622726     2A1   -14.416895     3A1    -9.539156
       4A1    -7.300494     1B2    -7.296622     1B1    -7.288763
       5A1    -0.969894     6A1    -0.691250     2B2    -0.418365
       7A1    -0.413700     2B1    -0.409428     3B1    -0.222591

    Beta Virtual:

       3B2    -0.163243     8A1     0.014337     9A1     0.476007
       4B2     0.502025     4B1     0.516047    10A1     0.554690
       5B2     0.630331     5B1     0.642826     1A2     0.669592
      11A1     0.670037    12A1     0.709790     6B2     0.790774
       6B1     0.806023    13A1     1.024352    14A1     1.185282
       2A2     1.746876    15A1     1.753034     7B2     1.877470
       7B1     1.909168    16A1     2.377654

    Final Occupation by Irrep:
             A1    A2    B1    B2
    DOCC [     7,    0,    3,    2 ]
    SOCC [     0,    0,    0,    0 ]
    NA   [     7,    0,    3,    2 ]
    NB   [     7,    0,    3,    2 ]

  @DF-UKS Final Energy:  -514.78413183937892

   => Energetics <=

    Nuclear Repulsion Energy =             38.6693578185028457
    One-Electron Energy =                -785.6084560059255182
    Two-Electron Energy =                 260.3964942647262433
    DFT Exchange-Correlation Energy =     -28.2415279166825002
    Empirical Dispersion Energy =           0.0000000000000000
    VV10 Nonlocal Energy =                  0.0000000000000000
    Total Energy =                       -514.7841318393789152

  UHF NO Occupations:
  HONO-2 :    6 A1 2.0000000
  HONO-1 :    5 A1 2.0000000
  HONO-0 :    7 A1 2.0000000
  LUNO+0 :    8 A1 0.0000000
  LUNO+1 :    3 B2 0.0000000
  LUNO+2 :    4 B1 0.0000000
  LUNO+3 :    9 A1 0.0000000

Computation Completed

Properties will be evaluated at   0.000000,   0.000000,   0.000000 [a0]

Properties computed using the SCF density matrix

 Multipole Moments:

 ------------------------------------------------------------------------------------
     Multipole            Electronic (a.u.)      Nuclear  (a.u.)        Total (a.u.)
 ------------------------------------------------------------------------------------

 L = 1.  Multiply by 2.5417464519 to convert [e a0] to [Debye]
 Dipole X            :          0.0000000            0.0000000            0.0000000
 Dipole Y            :          0.0000000            0.0000000            0.0000000
 Dipole Z            :         -1.0341399            0.4228917           -0.6112482
 Magnitude           :                                                    0.6112482

 ------------------------------------------------------------------------------------

*** tstop() called on Joses-MacBook-Pro-2.local at Wed Jul 16 19:14:59 2025
Module time:
	user time   =       4.97 seconds =       0.08 minutes
	system time =       3.93 seconds =       0.07 minutes
	total time  =          1 seconds =       0.02 minutes
Total time:
	user time   =      76.96 seconds =       1.28 minutes
	system time =      60.91 seconds =       1.02 minutes
	total time  =         14 seconds =       0.23 minutes

*** tstart() called on Joses-MacBook-Pro-2.local
*** at Wed Jul 16 19:14:59 2025

         ------------------------------------------------------------
                                   SCF GRAD
                          Rob Parrish, Justin Turney,
                       Andy Simmonett, and Alex Sokolov
         ------------------------------------------------------------

  ==> Geometry <==

    Molecular point group: c2v
    Full point group: C_inf_v

    Geometry (in Angstrom), charge = 0, multiplicity = 1:

       Center              X                  Y                   Z               Mass
    ------------   -----------------  -----------------  -----------------  -----------------
         N            0.000000000000     0.000000000000     1.162827588889    14.003074004430
         CL           0.000000000000     0.000000000000    -0.465647555831    34.968852682000

  Nuclear repulsion =   38.669357818502846

  ==> Basis Set <==

  Basis Set: CC-PVDZ
    Blend: CC-PVDZ
    Number of shells: 14
    Number of basis functions: 32
    Number of Cartesian functions: 34
    Spherical Harmonics?: true
    Max angular momentum: 2

  ==> DFJKGrad: Density-Fitted SCF Gradients <==

    Gradient:                    1
    J tasked:                  Yes
    K tasked:                  Yes
    wK tasked:                  No
    OpenMP threads:              1
    Integrals threads:           1
    Memory [MiB]:              375
    Schwarz Cutoff:          1E-12
    Fitting Condition:       1E-10

   => Auxiliary Basis Set <=

  Basis Set: (CC-PVDZ AUX)
    Blend: CC-PVDZ-JKFIT
    Number of shells: 60
    Number of basis functions: 182
    Number of Cartesian functions: 211
    Spherical Harmonics?: true
    Max angular momentum: 3

  ==> DFT Potential <==

   => LibXC <=

    Version 6.2.2
    S. Lehtola, C. Steigemann, M. J.T. Oliveira, and M. A.L. Marques.,  SoftwareX 7, 1â€“5 (2018) (10.1016/j.softx.2017.11.002)

   => Composite Functional: B3LYP <=

    B3LYP Hyb-GGA Exchange-Correlation Functional

    P. J. Stephens, F. J. Devlin, C. F. Chabalowski, and M. J. Frisch.,  J. Phys. Chem. 98, 11623 (1994) (10.1021/j100096a001)

    Deriv               =              1
    GGA                 =           TRUE
    Meta                =          FALSE

    Exchange Hybrid     =           TRUE
    MP2 Hybrid          =          FALSE

   => Exchange Functionals <=

    0.0800   Slater exchange
    0.7200         Becke 88

   => Exact (HF) Exchange <=

    0.2000               HF

   => Correlation Functionals <=

    0.1900   Vosko, Wilk & Nusair (VWN5_RPA)
    0.8100   Lee, Yang & Parr

   => LibXC Density Thresholds  <==

    XC_HYB_GGA_XC_B3LYP:  1.00E-15

   => Molecular Quadrature <=

    Radial Scheme          =       TREUTLER
    Pruning Scheme         =           NONE
    Nuclear Scheme         =       TREUTLER

    Blocking Scheme        =         OCTREE
    BS radius alpha        =              1
    Pruning alpha          =              1
    Radial Points          =             75
    Spherical Points       =            302
    Total Points           =          41091
    Total Blocks           =            364
    Max Points             =            255
    Max Functions          =             32
    Weights Tolerance      =       1.00E-15

  -Total Gradient:
     Atom            X                  Y                   Z
    ------   -----------------  -----------------  -----------------
       1       -0.000000000000     0.000000000000    -0.000090490893
       2        0.000000000000     0.000000000000     0.000071505813

*** tstop() called on Joses-MacBook-Pro-2.local at Wed Jul 16 19:14:59 2025
Module time:
	user time   =       1.19 seconds =       0.02 minutes
	system time =       1.51 seconds =       0.03 minutes
	total time  =          0 seconds =       0.00 minutes
Total time:
	user time   =      78.16 seconds =       1.30 minutes
	system time =      62.42 seconds =       1.04 minutes
	total time  =         14 seconds =       0.23 minutes

    			-----------------------------------------

    			 OPTKING 3.0: for geometry optimizations

    			     By R.A. King, Bethel University

    			        with contributions from

    			    A.V. Copan, J. Cayton, A. Heide

    			-----------------------------------------

	                            ===> Fragment 1 <==

	 Z (Atomic Numbers)          Masses                          Geom
	       7.000000            14.003074          0.00000000  0.00000000  2.19742567
	      17.000000            34.968853          0.00000000  0.00000000 -0.87994635

	 - Coordinate -           - BOHR/RAD -       - ANG/DEG -
	 R(1,2)           =         3.077372           1.628475

	        --- Internal Coordinate Step in ANG or DEG, aJ/ANG or AJ/DEG ---
	-------------------------------------------------------------------------------
	           Coordinate      Previous         Force          Change          New
	           ----------      --------        ------          ------        ------
	               R(1,2)       1.62848        0.00067        0.00014       1.62861
	-------------------------------------------------------------------------------

	                                 ==> Convergence Check <==

	Measures of convergence in internal coordinates in au.

	Criteria marked as inactive (o), active & met (*), and active & unmet ( ).

	----------------------------------------------------------------------------------------------
	   Step    Total Energy     Delta E     Max Force     RMS Force      Max Disp      RMS Disp
	----------------------------------------------------------------------------------------------
	  Convergence Criteria     1.00e-06 *    3.00e-04 *             o    1.20e-03 *             o
	----------------------------------------------------------------------------------------------
	    11    -514.78413184   -6.03e-07 *    8.10e-05 *    8.10e-05 o    2.56e-04 *    2.56e-04 o  ~
	----------------------------------------------------------------------------------------------

Next Geometry in Ang
	Fragment 1 (Ang)

	    N   0.0000000000   0.0000000000   1.1628954423
	   Cl   0.0000000000   0.0000000000  -0.4657154093

    Final optimized geometry and variables:
    Molecular point group: c2v
    Full point group: C_inf_v

    Geometry (in Angstrom), charge = 0, multiplicity = 1:

    N            0.000000000000     0.000000000000     1.162827588889
    CL           0.000000000000     0.000000000000    -0.465647555831

    Psi4 stopped on: Wednesday, 16 July 2025 07:14PM
    Psi4 wall time for execution: 0:00:15.02

*** Psi4 exiting successfully. Buy a developer a beer!
