                               Psi4 1.9.1 release

  ==> Input File <==

--------------------------------------------------------------------------
molecule {
0 1
Mg   0.00000        0.60000        0.00000
Si   0.00000       -0.60000        0.00000
}

set {
basis              cc-pvdz
reference          uks
maxiter            500
geom_maxiter       500
DAMPING_PERCENTAGE 1
guess              SAP
}

optimize('b3lyp')
--------------------------------------------------------------------------

    Molecular point group: c2v
  Charge       = 0
  Multiplicity = 1
  Basis Set: CC-PVDZ
    Blend: CC-PVDZ
  Basis Set: (CC-PVDZ AUX)
    Blend: CC-PVDZ-JKFIT + DEF2-UNIVERSAL-JKFIT
  @DF-UKS Final Energy:  -488.52939288535902
    Total Energy =                       -488.5293928853590160
 Dipole X            :          0.0000000            0.0000000            0.0000000
 Dipole Y            :          0.0000000            0.0000000            0.0000000
 Dipole Z            :          1.2950114           -0.0029443            1.2920671
 Magnitude           :                                                    1.2920671
    Molecular point group: c2v
  Basis Set: CC-PVDZ
    Blend: CC-PVDZ
  Basis Set: (CC-PVDZ AUX)
    Blend: CC-PVDZ-JKFIT + DEF2-UNIVERSAL-JKFIT
  Basis Set: CC-PVDZ
    Blend: CC-PVDZ
  Basis Set: (CC-PVDZ AUX)
    Blend: CC-PVDZ-JKFIT + DEF2-UNIVERSAL-JKFIT
  @DF-UKS Final Energy:  -488.53969331599711
    Total Energy =                       -488.5396933159971127
  Basis Set: CC-PVDZ
    Blend: CC-PVDZ
  Basis Set: (CC-PVDZ AUX)
    Blend: CC-PVDZ-JKFIT + DEF2-UNIVERSAL-JKFIT
  Basis Set: CC-PVDZ
    Blend: CC-PVDZ
  @DF-UKS Final Energy:  -488.55962046775500
    Total Energy =                       -488.5596204677549963
  @DF-UKS Final Energy:  -488.63234700089686
    Total Energy =                       -488.6323470008968570
  @DF-UKS Final Energy:  -488.96618580027132
    Total Energy =                       -488.9661858002713188
  @DF-UKS Final Energy:  -489.18612101629577
    Total Energy =                       -489.1861210162957718
  @DF-UKS Final Energy:  -489.36424451176327
    Total Energy =                       -489.3642445117632747
  @DF-UKS Final Energy:  -489.43154906508784
    Total Energy =                       -489.4315490650878360
  @DF-UKS Final Energy:  -489.46164571717122
    Total Energy =                       -489.4616457171712227
  @DF-UKS Final Energy:  -489.47319440574842
    Total Energy =                       -489.4731944057484156
  @DF-UKS Final Energy:  -489.47671821536539
    Total Energy =                       -489.4767182153653948
  @DF-UKS Final Energy:  -489.47732679507448
    Total Energy =                       -489.4773267950744753
  @DF-UKS Final Energy:  -489.47746373774231
    Total Energy =                       -489.4774637377423119
  @DF-UKS Final Energy:  -489.47747587683671
    Total Energy =                       -489.4774758768366496
  Basis Set: (CC-PVDZ AUX)
    Blend: CC-PVDZ-JKFIT + DEF2-UNIVERSAL-JKFIT
  Basis Set: CC-PVDZ
    Blend: CC-PVDZ
  Basis Set: (CC-PVDZ AUX)
    Blend: CC-PVDZ-JKFIT + DEF2-UNIVERSAL-JKFIT
  @DF-UKS Final Energy:  -489.47747699221310
    Total Energy =                       -489.4774769922130417
  Basis Set: CC-PVDZ
    Blend: CC-PVDZ
  Basis Set: (CC-PVDZ AUX)
    Blend: CC-PVDZ-JKFIT + DEF2-UNIVERSAL-JKFIT
  Charge       = 0
  Multiplicity = 1
  Basis Set: CC-PVDZ
    Blend: CC-PVDZ
  Basis Set: (CC-PVDZ AUX)
    Blend: CC-PVDZ-JKFIT + DEF2-UNIVERSAL-JKFIT

    Orbital Energies [Eh]
    ---------------------

    Alpha Occupied:

       1A1   -66.146094     2A1   -46.851527     3A1    -5.286537
       1B1    -3.650392     4A1    -3.645327     1B2    -3.637052
       5A1    -3.132442     2B1    -1.876848     6A1    -1.876026
       2B2    -1.874667     7A1    -0.420238     8A1    -0.221900
       3B2    -0.146196

    Alpha Virtual:

       3B1    -0.115244     9A1    -0.105656     4B1    -0.024952
       4B2    -0.020669    10A1     0.028009    11A1     0.089208
       5B1     0.143103     5B2     0.147781    12A1     0.166382
       6B1     0.265192    13A1     0.267473     6B2     0.273555
       1A2     0.292726    14A1     0.293807     7B1     0.345445
       7B2     0.360441    15A1     0.388185     2A2     0.405342
      16A1     0.410460    17A1     0.489452     8B1     0.524644
       8B2     0.539547    18A1     0.764432

    Beta Occupied:

       1A1   -66.146094     2A1   -46.851527     3A1    -5.286537
       1B1    -3.650392     4A1    -3.645327     1B2    -3.637052
       5A1    -3.132442     2B1    -1.876848     6A1    -1.876026
       2B2    -1.874667     7A1    -0.420238     8A1    -0.221900
       3B2    -0.146196

    Beta Virtual:

       3B1    -0.115244     9A1    -0.105656     4B1    -0.024952
       4B2    -0.020669    10A1     0.028009    11A1     0.089208
       5B1     0.143103     5B2     0.147781    12A1     0.166382
       6B1     0.265192    13A1     0.267473     6B2     0.273555
       1A2     0.292726    14A1     0.293807     7B1     0.345445
       7B2     0.360441    15A1     0.388185     2A2     0.405342
      16A1     0.410460    17A1     0.489452     8B1     0.524644
       8B2     0.539547    18A1     0.764432

    Final Occupation by Irrep:
             A1    A2    B1    B2
    DOCC [     8,    0,    2,    3 ]
    SOCC [     0,    0,    0,    0 ]
    NA   [     8,    0,    2,    3 ]
    NB   [     8,    0,    2,    3 ]

  @DF-UKS Final Energy:  -489.47747708685574

   => Energetics <=

    Nuclear Repulsion Energy =             34.7509392969884274
    One-Electron Energy =                -749.4812908960165032
    Two-Electron Energy =                 255.3144337005097100
    DFT Exchange-Correlation Energy =     -30.0615591883373945
    Empirical Dispersion Energy =           0.0000000000000000
    VV10 Nonlocal Energy =                  0.0000000000000000
    Total Energy =                       -489.4774770868557425

  UHF NO Occupations:
  HONO-2 :    3 B2 2.0000000
  HONO-1 :    7 A1 2.0000000
  HONO-0 :    8 A1 2.0000000
  LUNO+0 :    9 A1 0.0000000
  LUNO+1 :    4 B2 0.0000000
  LUNO+2 :    3 B1 0.0000000
  LUNO+3 :   10 A1 0.0000000

Computation Completed

Properties will be evaluated at   0.000000,   0.000000,   0.000000 [a0]

Properties computed using the SCF density matrix

 Multipole Moments:

 ------------------------------------------------------------------------------------
     Multipole            Electronic (a.u.)      Nuclear  (a.u.)        Total (a.u.)
 ------------------------------------------------------------------------------------

 L = 1.  Multiply by 2.5417464519 to convert [e a0] to [Debye]
 Dipole X            :          0.0000000            0.0000000            0.0000000
 Dipole Y            :          0.0000000            0.0000000            0.0000000
 Dipole Z            :          1.1955127           -0.0062768            1.1892359
 Magnitude           :                                                    1.1892359

 ------------------------------------------------------------------------------------

*** tstop() called on Joses-MacBook-Pro-2.local at Wed Jul 16 19:56:21 2025
Module time:
	user time   =       5.87 seconds =       0.10 minutes
	system time =       2.68 seconds =       0.04 minutes
	total time  =          1 seconds =       0.02 minutes
Total time:
	user time   =     182.81 seconds =       3.05 minutes
	system time =      63.33 seconds =       1.06 minutes
	total time  =         23 seconds =       0.38 minutes

*** tstart() called on Joses-MacBook-Pro-2.local
*** at Wed Jul 16 19:56:21 2025

         ------------------------------------------------------------
                                   SCF GRAD
                          Rob Parrish, Justin Turney,
                       Andy Simmonett, and Alex Sokolov
         ------------------------------------------------------------

  ==> Geometry <==

    Molecular point group: c2v
    Full point group: C_inf_v

    Geometry (in Angstrom), charge = 0, multiplicity = 1:

       Center              X                  Y                   Z               Mass
    ------------   -----------------  -----------------  -----------------  -----------------
         MG           0.000000000000     0.000000000000     1.377394282955    23.985041697000
         SI           0.000000000000     0.000000000000    -1.180860923696    27.976926534650

  Nuclear repulsion =   34.750939296988427

  ==> Basis Set <==

  Basis Set: CC-PVDZ
    Blend: CC-PVDZ
    Number of shells: 16
    Number of basis functions: 36
    Number of Cartesian functions: 38
    Spherical Harmonics?: true
    Max angular momentum: 2

  ==> DFJKGrad: Density-Fitted SCF Gradients <==

    Gradient:                    1
    J tasked:                  Yes
    K tasked:                  Yes
    wK tasked:                  No
    OpenMP threads:              1
    Integrals threads:           1
    Memory [MiB]:              375
    Schwarz Cutoff:          1E-12
    Fitting Condition:       1E-10

   => Auxiliary Basis Set <=

  Basis Set: (CC-PVDZ AUX)
    Blend: CC-PVDZ-JKFIT + DEF2-UNIVERSAL-JKFIT
    Number of shells: 70
    Number of basis functions: 224
    Number of Cartesian functions: 267
    Spherical Harmonics?: true
    Max angular momentum: 4

  ==> DFT Potential <==

   => LibXC <=

    Version 6.2.2
    S. Lehtola, C. Steigemann, M. J.T. Oliveira, and M. A.L. Marques.,  SoftwareX 7, 1â€“5 (2018) (10.1016/j.softx.2017.11.002)

   => Composite Functional: B3LYP <=

    B3LYP Hyb-GGA Exchange-Correlation Functional

    P. J. Stephens, F. J. Devlin, C. F. Chabalowski, and M. J. Frisch.,  J. Phys. Chem. 98, 11623 (1994) (10.1021/j100096a001)

    Deriv               =              1
    GGA                 =           TRUE
    Meta                =          FALSE

    Exchange Hybrid     =           TRUE
    MP2 Hybrid          =          FALSE

   => Exchange Functionals <=

    0.0800   Slater exchange
    0.7200         Becke 88

   => Exact (HF) Exchange <=

    0.2000               HF

   => Correlation Functionals <=

    0.1900   Vosko, Wilk & Nusair (VWN5_RPA)
    0.8100   Lee, Yang & Parr

   => LibXC Density Thresholds  <==

    XC_HYB_GGA_XC_B3LYP:  1.00E-15

   => Molecular Quadrature <=

    Radial Scheme          =       TREUTLER
    Pruning Scheme         =           NONE
    Nuclear Scheme         =       TREUTLER

    Blocking Scheme        =         OCTREE
    BS radius alpha        =              1
    Pruning alpha          =              1
    Radial Points          =             75
    Spherical Points       =            302
    Total Points           =          42940
    Total Blocks           =            421
    Max Points             =            254
    Max Functions          =             36
    Weights Tolerance      =       1.00E-15

  -Total Gradient:
     Atom            X                  Y                   Z
    ------   -----------------  -----------------  -----------------
       1        0.000000000000     0.000000000000    -0.000009580579
       2        0.000000000000     0.000000000000     0.000025309283

*** tstop() called on Joses-MacBook-Pro-2.local at Wed Jul 16 19:56:22 2025
Module time:
	user time   =       3.16 seconds =       0.05 minutes
	system time =       1.48 seconds =       0.02 minutes
	total time  =          1 seconds =       0.02 minutes
Total time:
	user time   =     185.97 seconds =       3.10 minutes
	system time =      64.82 seconds =       1.08 minutes
	total time  =         24 seconds =       0.40 minutes

    			-----------------------------------------

    			 OPTKING 3.0: for geometry optimizations

    			     By R.A. King, Bethel University

    			        with contributions from

    			    A.V. Copan, J. Cayton, A. Heide

    			-----------------------------------------

	                            ===> Fragment 1 <==

	 Z (Atomic Numbers)          Masses                          Geom
	      12.000000            23.985042          0.00000000  0.00000000  2.60289796
	      14.000000            27.976927          0.00000000  0.00000000 -2.23150374

	 - Coordinate -           - BOHR/RAD -       - ANG/DEG -
	 R(1,2)           =         4.834402           2.558255

	        --- Internal Coordinate Step in ANG or DEG, aJ/ANG or AJ/DEG ---
	-------------------------------------------------------------------------------
	           Coordinate      Previous         Force          Change          New
	           ----------      --------        ------          ------        ------
	               R(1,2)       2.55826        0.00014        0.00018       2.55843
	-------------------------------------------------------------------------------

	                                 ==> Convergence Check <==

	Measures of convergence in internal coordinates in au.

	Criteria marked as inactive (o), active & met (*), and active & unmet ( ).

	----------------------------------------------------------------------------------------------
	   Step    Total Energy     Delta E     Max Force     RMS Force      Max Disp      RMS Disp
	----------------------------------------------------------------------------------------------
	  Convergence Criteria     1.00e-06 *    3.00e-04 *             o    1.20e-03 *             o
	----------------------------------------------------------------------------------------------
	    16    -489.47747709   -9.46e-08 *    1.74e-05 *    1.74e-05 o    3.32e-04 *    3.32e-04 o  ~
	----------------------------------------------------------------------------------------------

Next Geometry in Ang
	Fragment 1 (Ang)

	   Mg   0.0000000000   0.0000000000   1.3774822178
	   Si   0.0000000000   0.0000000000  -1.1809488586

    Final optimized geometry and variables:
    Molecular point group: c2v
    Full point group: C_inf_v

    Geometry (in Angstrom), charge = 0, multiplicity = 1:

    MG           0.000000000000     0.000000000000     1.377394282955
    SI           0.000000000000     0.000000000000    -1.180860923696

    Psi4 stopped on: Wednesday, 16 July 2025 07:56PM
    Psi4 wall time for execution: 0:00:24.59

*** Psi4 exiting successfully. Buy a developer a beer!
