                               Psi4 1.9.1 release

  ==> Input File <==

--------------------------------------------------------------------------
molecule {
0 1
He   0.00000        0.60000        0.00000
He   0.00000       -0.60000        0.00000
}

set {
basis              cc-pvdz
reference          uks
maxiter            500
geom_maxiter       500
DAMPING_PERCENTAGE 1
guess              SAP
}

optimize('b3lyp')
--------------------------------------------------------------------------

    Molecular point group: d2h
  Charge       = 0
  Multiplicity = 1
  Basis Set: CC-PVDZ
    Blend: CC-PVDZ
  Basis Set: (CC-PVDZ AUX)
    Blend: DEF2-UNIVERSAL-JKFIT
  @DF-UKS Final Energy:    -5.75092816612907
    Total Energy =                         -5.7509281661290750
 Dipole X            :          0.0000000            0.0000000            0.0000000
 Dipole Y            :          0.0000000            0.0000000            0.0000000
 Dipole Z            :          0.0000000            0.0000000            0.0000000
 Magnitude           :                                                    0.0000000
    Molecular point group: d2h
  Basis Set: CC-PVDZ
    Blend: CC-PVDZ
  Basis Set: (CC-PVDZ AUX)
    Blend: DEF2-UNIVERSAL-JKFIT
  Basis Set: CC-PVDZ
    Blend: CC-PVDZ
  Basis Set: (CC-PVDZ AUX)
    Blend: DEF2-UNIVERSAL-JKFIT
  @DF-UKS Final Energy:    -5.79408708271131
    Total Energy =                         -5.7940870827113145
  Basis Set: CC-PVDZ
    Blend: CC-PVDZ
  Basis Set: (CC-PVDZ AUX)
    Blend: DEF2-UNIVERSAL-JKFIT
  Basis Set: CC-PVDZ
    Blend: CC-PVDZ
  @DF-UKS Final Energy:    -5.80295246012112
    Total Energy =                         -5.8029524601211246
  @DF-UKS Final Energy:    -5.80897961103932
    Total Energy =                         -5.8089796110393159
  @DF-UKS Final Energy:    -5.81166570948213
    Total Energy =                         -5.8116657094821340
  @DF-UKS Final Energy:    -5.81300794281382
    Total Energy =                         -5.8130079428138171
  @DF-UKS Final Energy:    -5.81364064659442
    Total Energy =                         -5.8136406465944157
  @DF-UKS Final Energy:    -5.81393476834884
    Total Energy =                         -5.8139347683488447
  @DF-UKS Final Energy:    -5.81403882945197
    Total Energy =                         -5.8140388294519711
  @DF-UKS Final Energy:    -5.81410318634474
    Total Energy =                         -5.8141031863447381
  @DF-UKS Final Energy:    -5.81413942682310
    Total Energy =                         -5.8141394268231013
  @DF-UKS Final Energy:    -5.81415365657576
    Total Energy =                         -5.8141536565757637
  @DF-UKS Final Energy:    -5.81416246212141
    Total Energy =                         -5.8141624621214056
  @DF-UKS Final Energy:    -5.81416815655491
    Total Energy =                         -5.8141681565549135
  @DF-UKS Final Energy:    -5.81417083399240
    Total Energy =                         -5.8141708339924021
  @DF-UKS Final Energy:    -5.81417284346926
    Total Energy =                         -5.8141728434692599
  @DF-UKS Final Energy:    -5.81417448491999
    Total Energy =                         -5.8141744849199917
  @DF-UKS Final Energy:    -5.81417609858035
    Total Energy =                         -5.8141760985803526
  @DF-UKS Final Energy:    -5.81417820620424
    Total Energy =                         -5.8141782062042440
  Basis Set: (CC-PVDZ AUX)
    Blend: DEF2-UNIVERSAL-JKFIT
  Basis Set: CC-PVDZ
    Blend: CC-PVDZ
  Basis Set: (CC-PVDZ AUX)
    Blend: DEF2-UNIVERSAL-JKFIT
  @DF-UKS Final Energy:    -5.81418602982432
    Total Energy =                         -5.8141860298243229
  Basis Set: CC-PVDZ
    Blend: CC-PVDZ
  Basis Set: (CC-PVDZ AUX)
    Blend: DEF2-UNIVERSAL-JKFIT
  Charge       = 0
  Multiplicity = 1
  Basis Set: CC-PVDZ
    Blend: CC-PVDZ
  Basis Set: (CC-PVDZ AUX)
    Blend: DEF2-UNIVERSAL-JKFIT

    Orbital Energies [Eh]
    ---------------------

    Alpha Occupied:

       1Ag    -0.650071     1B2u   -0.649680

    Alpha Virtual:

       2Ag     1.116076     2B2u    1.120514     1B1u    2.189283
       1B3u    2.189283     1B3g    2.189283     1B1g    2.189283
       3Ag     2.189288     3B2u    2.189288

    Beta Occupied:

       1Ag    -0.650071     1B2u   -0.649680

    Beta Virtual:

       2Ag     1.116076     2B2u    1.120514     1B1u    2.189283
       1B3u    2.189283     1B3g    2.189283     1B1g    2.189283
       3Ag     2.189288     3B2u    2.189288

    Final Occupation by Irrep:
             Ag   B1g   B2g   B3g    Au   B1u   B2u   B3u
    DOCC [     1,    0,    0,    0,    0,    0,    1,    0 ]
    SOCC [     0,    0,    0,    0,    0,    0,    0,    0 ]
    NA   [     1,    0,    0,    0,    0,    0,    1,    0 ]
    NB   [     1,    0,    0,    0,    0,    0,    1,    0 ]

  @DF-UKS Final Energy:    -5.81420466953649

   => Energetics <=

    Nuclear Repulsion Energy =              0.5624555393659700
    One-Electron Energy =                  -8.8890489252640670
    Two-Electron Energy =                   4.2592240125213490
    DFT Exchange-Correlation Energy =      -1.7468352961597411
    Empirical Dispersion Energy =           0.0000000000000000
    VV10 Nonlocal Energy =                  0.0000000000000000
    Total Energy =                         -5.8142046695364886

  UHF NO Occupations:
  HONO-1 :    1B2u 2.0000000
  HONO-0 :    1 Ag 2.0000000
  LUNO+0 :    2B2u 0.0000000
  LUNO+1 :    2 Ag 0.0000000
  LUNO+2 :    3 Ag 0.0000000
  LUNO+3 :    1B3u 0.0000000

Computation Completed

Properties will be evaluated at   0.000000,   0.000000,   0.000000 [a0]

Properties computed using the SCF density matrix

 Multipole Moments:

 ------------------------------------------------------------------------------------
     Multipole            Electronic (a.u.)      Nuclear  (a.u.)        Total (a.u.)
 ------------------------------------------------------------------------------------

 L = 1.  Multiply by 2.5417464519 to convert [e a0] to [Debye]
 Dipole X            :          0.0000000            0.0000000            0.0000000
 Dipole Y            :          0.0000000            0.0000000            0.0000000
 Dipole Z            :          0.0000000            0.0000000            0.0000000
 Magnitude           :                                                    0.0000000

 ------------------------------------------------------------------------------------

*** tstop() called on Joses-MacBook-Pro-2.local at Wed Jul 16 18:18:30 2025
Module time:
	user time   =       0.36 seconds =       0.01 minutes
	system time =       1.69 seconds =       0.03 minutes
	total time  =          0 seconds =       0.00 minutes
Total time:
	user time   =      13.99 seconds =       0.23 minutes
	system time =      54.86 seconds =       0.91 minutes
	total time  =          8 seconds =       0.13 minutes

*** tstart() called on Joses-MacBook-Pro-2.local
*** at Wed Jul 16 18:18:30 2025

         ------------------------------------------------------------
                                   SCF GRAD
                          Rob Parrish, Justin Turney,
                       Andy Simmonett, and Alex Sokolov
         ------------------------------------------------------------

  ==> Geometry <==

    Molecular point group: d2h
    Full point group: D_inf_h

    Geometry (in Angstrom), charge = 0, multiplicity = 1:

       Center              X                  Y                   Z               Mass
    ------------   -----------------  -----------------  -----------------  -----------------
         HE          -0.000000000000     1.881667700407     0.000000000000     4.002603254130
         HE           0.000000000000    -1.881667700407     0.000000000000     4.002603254130

  Nuclear repulsion =    0.562455539365970

  ==> Basis Set <==

  Basis Set: CC-PVDZ
    Blend: CC-PVDZ
    Number of shells: 6
    Number of basis functions: 10
    Number of Cartesian functions: 10
    Spherical Harmonics?: true
    Max angular momentum: 1

  ==> DFJKGrad: Density-Fitted SCF Gradients <==

    Gradient:                    1
    J tasked:                  Yes
    K tasked:                  Yes
    wK tasked:                  No
    OpenMP threads:              1
    Integrals threads:           1
    Memory [MiB]:              375
    Schwarz Cutoff:          1E-12
    Fitting Condition:       1E-10

   => Auxiliary Basis Set <=

  Basis Set: (CC-PVDZ AUX)
    Blend: DEF2-UNIVERSAL-JKFIT
    Number of shells: 18
    Number of basis functions: 46
    Number of Cartesian functions: 50
    Spherical Harmonics?: true
    Max angular momentum: 2

  ==> DFT Potential <==

   => LibXC <=

    Version 6.2.2
    S. Lehtola, C. Steigemann, M. J.T. Oliveira, and M. A.L. Marques.,  SoftwareX 7, 1â€“5 (2018) (10.1016/j.softx.2017.11.002)

   => Composite Functional: B3LYP <=

    B3LYP Hyb-GGA Exchange-Correlation Functional

    P. J. Stephens, F. J. Devlin, C. F. Chabalowski, and M. J. Frisch.,  J. Phys. Chem. 98, 11623 (1994) (10.1021/j100096a001)

    Deriv               =              1
    GGA                 =           TRUE
    Meta                =          FALSE

    Exchange Hybrid     =           TRUE
    MP2 Hybrid          =          FALSE

   => Exchange Functionals <=

    0.0800   Slater exchange
    0.7200         Becke 88

   => Exact (HF) Exchange <=

    0.2000               HF

   => Correlation Functionals <=

    0.1900   Vosko, Wilk & Nusair (VWN5_RPA)
    0.8100   Lee, Yang & Parr

   => LibXC Density Thresholds  <==

    XC_HYB_GGA_XC_B3LYP:  1.00E-15

   => Molecular Quadrature <=

    Radial Scheme          =       TREUTLER
    Pruning Scheme         =           NONE
    Nuclear Scheme         =       TREUTLER

    Blocking Scheme        =         OCTREE
    BS radius alpha        =              1
    Pruning alpha          =              1
    Radial Points          =             75
    Spherical Points       =            302
    Total Points           =          44214
    Total Blocks           =            398
    Max Points             =            252
    Max Functions          =             10
    Weights Tolerance      =       1.00E-15

  -Total Gradient:
     Atom            X                  Y                   Z
    ------   -----------------  -----------------  -----------------
       1        0.000000000000    -0.000009554205    -0.000000000000
       2       -0.000000000000     0.000009554205     0.000000000000

*** tstop() called on Joses-MacBook-Pro-2.local at Wed Jul 16 18:18:30 2025
Module time:
	user time   =       0.10 seconds =       0.00 minutes
	system time =       0.38 seconds =       0.01 minutes
	total time  =          0 seconds =       0.00 minutes
Total time:
	user time   =      14.09 seconds =       0.23 minutes
	system time =      55.24 seconds =       0.92 minutes
	total time  =          8 seconds =       0.13 minutes

    			-----------------------------------------

    			 OPTKING 3.0: for geometry optimizations

    			     By R.A. King, Bethel University

    			        with contributions from

    			    A.V. Copan, J. Cayton, A. Heide

    			-----------------------------------------

	                            ===> Fragment 1 <==

	 Z (Atomic Numbers)          Masses                          Geom
	       2.000000             4.002603         -0.00000000  3.55583661  0.00000000
	       2.000000             4.002603          0.00000000 -3.55583661  0.00000000

	 - Coordinate -           - BOHR/RAD -       - ANG/DEG -
	 R(1,2)           =         7.111673           3.763335

	        --- Internal Coordinate Step in ANG or DEG, aJ/ANG or AJ/DEG ---
	-------------------------------------------------------------------------------
	           Coordinate      Previous         Force          Change          New
	           ----------      --------        ------          ------        ------
	               R(1,2)       3.76334        0.00008        0.00017       3.76351
	-------------------------------------------------------------------------------

	                                 ==> Convergence Check <==

	Measures of convergence in internal coordinates in au.

	Criteria marked as inactive (o), active & met (*), and active & unmet ( ).

	----------------------------------------------------------------------------------------------
	   Step    Total Energy     Delta E     Max Force     RMS Force      Max Disp      RMS Disp
	----------------------------------------------------------------------------------------------
	  Convergence Criteria     1.00e-06 *    3.00e-04 *             o    1.20e-03 *             o
	----------------------------------------------------------------------------------------------
	    21      -5.81420467   -1.86e-05      9.55e-06 *    9.55e-06 o    3.28e-04 *    3.28e-04 o  ~
	----------------------------------------------------------------------------------------------

Next Geometry in Ang
	Fragment 1 (Ang)

	   He  -0.0000000000   1.8817545517   0.0000000000
	   He   0.0000000000  -1.8817545517   0.0000000000

    Final optimized geometry and variables:
    Molecular point group: d2h
    Full point group: D_inf_h

    Geometry (in Angstrom), charge = 0, multiplicity = 1:

    HE          -0.000000000000     1.881667700407     0.000000000000
    HE           0.000000000000    -1.881667700407     0.000000000000

    Psi4 stopped on: Wednesday, 16 July 2025 06:18PM
    Psi4 wall time for execution: 0:00:08.49

*** Psi4 exiting successfully. Buy a developer a beer!
