                               Psi4 1.9.1 release

  ==> Input File <==

--------------------------------------------------------------------------
molecule {
0 1
F   0.00000        0.60000        0.00000
Na   0.00000       -0.60000        0.00000
}

set {
basis              cc-pvdz
reference          uks
maxiter            500
geom_maxiter       500
DAMPING_PERCENTAGE 1
guess              SAP
}

optimize('b3lyp')
--------------------------------------------------------------------------

    Molecular point group: c2v
  Charge       = 0
  Multiplicity = 1
  Basis Set: CC-PVDZ
    Blend: CC-PVDZ
  Basis Set: (CC-PVDZ AUX)
    Blend: CC-PVDZ-JKFIT + DEF2-UNIVERSAL-JKFIT
  @DF-UKS Final Energy:  -261.69549920929165
    Total Energy =                       -261.6954992092916541
 Dipole X            :          0.0000000            0.0000000            0.0000000
 Dipole Y            :          0.0000000            0.0000000            0.0000000
 Dipole Z            :         -1.5918535           -0.1120389           -1.7038924
 Magnitude           :                                                    1.7038924
    Molecular point group: c2v
  Basis Set: CC-PVDZ
    Blend: CC-PVDZ
  Basis Set: (CC-PVDZ AUX)
    Blend: CC-PVDZ-JKFIT + DEF2-UNIVERSAL-JKFIT
  Basis Set: CC-PVDZ
    Blend: CC-PVDZ
  Basis Set: (CC-PVDZ AUX)
    Blend: CC-PVDZ-JKFIT + DEF2-UNIVERSAL-JKFIT
  @DF-UKS Final Energy:  -261.97583940987249
    Total Energy =                       -261.9758394098724921
  Basis Set: CC-PVDZ
    Blend: CC-PVDZ
  Basis Set: (CC-PVDZ AUX)
    Blend: CC-PVDZ-JKFIT + DEF2-UNIVERSAL-JKFIT
  Basis Set: CC-PVDZ
    Blend: CC-PVDZ
  @DF-UKS Final Energy:  -262.09935886406811
    Total Energy =                       -262.0993588640681082
  @DF-UKS Final Energy:  -262.15335531077045
    Total Energy =                       -262.1533553107704506
  @DF-UKS Final Energy:  -262.17107290683947
    Total Energy =                       -262.1710729068394699
  @DF-UKS Final Energy:  -262.18047681330205
    Total Energy =                       -262.1804768133020502
  @DF-UKS Final Energy:  -262.18421356655261
    Total Energy =                       -262.1842135665526143
  @DF-UKS Final Energy:  -262.18502636322387
    Total Energy =                       -262.1850263632238693
  @DF-UKS Final Energy:  -262.18523036714078
    Total Energy =                       -262.1852303671407753
  @DF-UKS Final Energy:  -262.18529371304788
    Total Energy =                       -262.1852937130478836
  Basis Set: (CC-PVDZ AUX)
    Blend: CC-PVDZ-JKFIT + DEF2-UNIVERSAL-JKFIT
  Basis Set: CC-PVDZ
    Blend: CC-PVDZ
  Basis Set: (CC-PVDZ AUX)
    Blend: CC-PVDZ-JKFIT + DEF2-UNIVERSAL-JKFIT
  @DF-UKS Final Energy:  -262.18530592508642
    Total Energy =                       -262.1853059250864248
  Basis Set: CC-PVDZ
    Blend: CC-PVDZ
  Basis Set: (CC-PVDZ AUX)
    Blend: CC-PVDZ-JKFIT + DEF2-UNIVERSAL-JKFIT
  Charge       = 0
  Multiplicity = 1
  Basis Set: CC-PVDZ
    Blend: CC-PVDZ
  Basis Set: (CC-PVDZ AUX)
    Blend: CC-PVDZ-JKFIT + DEF2-UNIVERSAL-JKFIT

    Orbital Energies [Eh]
    ---------------------

    Alpha Occupied:

       1A1   -38.469043     2A1   -24.494669     3A1    -2.219799
       1B2    -1.151881     1B1    -1.151881     4A1    -1.151220
       5A1    -0.942312     6A1    -0.231606     2B1    -0.225240
       2B2    -0.225240

    Alpha Virtual:

       7A1    -0.066009     3B1     0.003377     3B2     0.003377
       8A1     0.026222     9A1     0.061735     4B1     0.094181
       4B2     0.094181    10A1     0.136160     1A2     0.183986
      11A1     0.183986     5B1     0.228761     5B2     0.228761
      12A1     0.304906    13A1     1.333089     6B1     1.407082
       6B2     1.407082    14A1     2.110163    15A1     3.745226
       7B1     3.753279     7B2     3.753279     2A2     3.758304
      16A1     3.758521

    Beta Occupied:

       1A1   -38.469043     2A1   -24.494669     3A1    -2.219799
       1B2    -1.151881     1B1    -1.151881     4A1    -1.151220
       5A1    -0.942312     6A1    -0.231606     2B1    -0.225240
       2B2    -0.225240

    Beta Virtual:

       7A1    -0.066009     3B1     0.003377     3B2     0.003377
       8A1     0.026222     9A1     0.061735     4B1     0.094181
       4B2     0.094181    10A1     0.136160     1A2     0.183986
      11A1     0.183986     5B1     0.228761     5B2     0.228761
      12A1     0.304906    13A1     1.333089     6B1     1.407082
       6B2     1.407082    14A1     2.110163    15A1     3.745226
       7B1     3.753279     7B2     3.753279     2A2     3.758304
      16A1     3.758521

    Final Occupation by Irrep:
             A1    A2    B1    B2
    DOCC [     6,    0,    2,    2 ]
    SOCC [     0,    0,    0,    0 ]
    NA   [     6,    0,    2,    2 ]
    NB   [     6,    0,    2,    2 ]

  @DF-UKS Final Energy:  -262.18530707644936

   => Energetics <=

    Nuclear Repulsion Energy =             27.5609091582916896
    One-Electron Energy =                -424.5029711586236090
    Two-Electron Energy =                 154.9637743653764232
    DFT Exchange-Correlation Energy =     -20.2070194414938520
    Empirical Dispersion Energy =           0.0000000000000000
    VV10 Nonlocal Energy =                  0.0000000000000000
    Total Energy =                       -262.1853070764493623

  UHF NO Occupations:
  HONO-2 :    6 A1 2.0000000
  HONO-1 :    2 B1 2.0000000
  HONO-0 :    2 B2 2.0000000
  LUNO+0 :    7 A1 0.0000000
  LUNO+1 :    8 A1 0.0000000
  LUNO+2 :    9 A1 0.0000000
  LUNO+3 :    3 B1 0.0000000

Computation Completed

Properties will be evaluated at   0.000000,   0.000000,   0.000000 [a0]

Properties computed using the SCF density matrix

 Multipole Moments:

 ------------------------------------------------------------------------------------
     Multipole            Electronic (a.u.)      Nuclear  (a.u.)        Total (a.u.)
 ------------------------------------------------------------------------------------

 L = 1.  Multiply by 2.5417464519 to convert [e a0] to [Debye]
 Dipole X            :          0.0000000            0.0000000            0.0000000
 Dipole Y            :          0.0000000            0.0000000            0.0000000
 Dipole Z            :         -2.7635511           -0.1774723           -2.9410234
 Magnitude           :                                                    2.9410234

 ------------------------------------------------------------------------------------

*** tstop() called on Joses-MacBook-Pro-2.local at Wed Jul 16 19:26:01 2025
Module time:
	user time   =       3.21 seconds =       0.05 minutes
	system time =       3.42 seconds =       0.06 minutes
	total time  =          1 seconds =       0.02 minutes
Total time:
	user time   =      67.02 seconds =       1.12 minutes
	system time =      57.09 seconds =       0.95 minutes
	total time  =         13 seconds =       0.22 minutes

*** tstart() called on Joses-MacBook-Pro-2.local
*** at Wed Jul 16 19:26:01 2025

         ------------------------------------------------------------
                                   SCF GRAD
                          Rob Parrish, Justin Turney,
                       Andy Simmonett, and Alex Sokolov
         ------------------------------------------------------------

  ==> Geometry <==

    Molecular point group: c2v
    Full point group: C_inf_v

    Geometry (in Angstrom), charge = 0, multiplicity = 1:

       Center              X                  Y                   Z               Mass
    ------------   -----------------  -----------------  -----------------  -----------------
         F            0.000000000000     0.000000000000     1.040759606880    18.998403162730
         NA           0.000000000000     0.000000000000    -0.860068248814    22.989769282000

  Nuclear repulsion =   27.560909158291690

  ==> Basis Set <==

  Basis Set: CC-PVDZ
    Blend: CC-PVDZ
    Number of shells: 14
    Number of basis functions: 32
    Number of Cartesian functions: 34
    Spherical Harmonics?: true
    Max angular momentum: 2

  ==> DFJKGrad: Density-Fitted SCF Gradients <==

    Gradient:                    1
    J tasked:                  Yes
    K tasked:                  Yes
    wK tasked:                  No
    OpenMP threads:              1
    Integrals threads:           1
    Memory [MiB]:              375
    Schwarz Cutoff:          1E-12
    Fitting Condition:       1E-10

   => Auxiliary Basis Set <=

  Basis Set: (CC-PVDZ AUX)
    Blend: CC-PVDZ-JKFIT + DEF2-UNIVERSAL-JKFIT
    Number of shells: 58
    Number of basis functions: 182
    Number of Cartesian functions: 218
    Spherical Harmonics?: true
    Max angular momentum: 4

  ==> DFT Potential <==

   => LibXC <=

    Version 6.2.2
    S. Lehtola, C. Steigemann, M. J.T. Oliveira, and M. A.L. Marques.,  SoftwareX 7, 1â€“5 (2018) (10.1016/j.softx.2017.11.002)

   => Composite Functional: B3LYP <=

    B3LYP Hyb-GGA Exchange-Correlation Functional

    P. J. Stephens, F. J. Devlin, C. F. Chabalowski, and M. J. Frisch.,  J. Phys. Chem. 98, 11623 (1994) (10.1021/j100096a001)

    Deriv               =              1
    GGA                 =           TRUE
    Meta                =          FALSE

    Exchange Hybrid     =           TRUE
    MP2 Hybrid          =          FALSE

   => Exchange Functionals <=

    0.0800   Slater exchange
    0.7200         Becke 88

   => Exact (HF) Exchange <=

    0.2000               HF

   => Correlation Functionals <=

    0.1900   Vosko, Wilk & Nusair (VWN5_RPA)
    0.8100   Lee, Yang & Parr

   => LibXC Density Thresholds  <==

    XC_HYB_GGA_XC_B3LYP:  1.00E-15

   => Molecular Quadrature <=

    Radial Scheme          =       TREUTLER
    Pruning Scheme         =           NONE
    Nuclear Scheme         =       TREUTLER

    Blocking Scheme        =         OCTREE
    BS radius alpha        =              1
    Pruning alpha          =              1
    Radial Points          =             75
    Spherical Points       =            302
    Total Points           =          43780
    Total Blocks           =            420
    Max Points             =            256
    Max Functions          =             32
    Weights Tolerance      =       1.00E-15

  -Total Gradient:
     Atom            X                  Y                   Z
    ------   -----------------  -----------------  -----------------
       1        0.000000000000    -0.000000000000    -0.000146864160
       2        0.000000000000     0.000000000000     0.000008450379

*** tstop() called on Joses-MacBook-Pro-2.local at Wed Jul 16 19:26:01 2025
Module time:
	user time   =       1.18 seconds =       0.02 minutes
	system time =       1.50 seconds =       0.03 minutes
	total time  =          0 seconds =       0.00 minutes
Total time:
	user time   =      68.20 seconds =       1.14 minutes
	system time =      58.59 seconds =       0.98 minutes
	total time  =         13 seconds =       0.22 minutes

    			-----------------------------------------

    			 OPTKING 3.0: for geometry optimizations

    			     By R.A. King, Bethel University

    			        with contributions from

    			    A.V. Copan, J. Cayton, A. Heide

    			-----------------------------------------

	                            ===> Fragment 1 <==

	 Z (Atomic Numbers)          Masses                          Geom
	       9.000000            18.998403          0.00000000  0.00000000  1.96675062
	      11.000000            22.989769          0.00000000  0.00000000 -1.62529344

	 - Coordinate -           - BOHR/RAD -       - ANG/DEG -
	 R(1,2)           =         3.592044           1.900828

	        --- Internal Coordinate Step in ANG or DEG, aJ/ANG or AJ/DEG ---
	-------------------------------------------------------------------------------
	           Coordinate      Previous         Force          Change          New
	           ----------      --------        ------          ------        ------
	               R(1,2)       1.90083        0.00064        0.00028       1.90111
	-------------------------------------------------------------------------------

	                                 ==> Convergence Check <==

	Measures of convergence in internal coordinates in au.

	Criteria marked as inactive (o), active & met (*), and active & unmet ( ).

	----------------------------------------------------------------------------------------------
	   Step    Total Energy     Delta E     Max Force     RMS Force      Max Disp      RMS Disp
	----------------------------------------------------------------------------------------------
	  Convergence Criteria     1.00e-06 *    3.00e-04 *             o    1.20e-03 *             o
	----------------------------------------------------------------------------------------------
	    12    -262.18530708   -1.15e-06      7.77e-05 *    7.77e-05 o    5.35e-04 *    5.35e-04 o  ~
	----------------------------------------------------------------------------------------------

Next Geometry in Ang
	Fragment 1 (Ang)

	    F   0.0000000000   0.0000000000   1.0409012823
	   Na   0.0000000000   0.0000000000  -0.8602099243

    Final optimized geometry and variables:
    Molecular point group: c2v
    Full point group: C_inf_v

    Geometry (in Angstrom), charge = 0, multiplicity = 1:

    F            0.000000000000     0.000000000000     1.040759606880
    NA           0.000000000000     0.000000000000    -0.860068248814

    Psi4 stopped on: Wednesday, 16 July 2025 07:26PM
    Psi4 wall time for execution: 0:00:13.22

*** Psi4 exiting successfully. Buy a developer a beer!
