                               Psi4 1.9.1 release

  ==> Input File <==

--------------------------------------------------------------------------
molecule {
0 1
Li   0.00000        0.60000        0.00000
Li   0.00000       -0.60000        0.00000
}

set {
basis              cc-pvdz
reference          uks
maxiter            500
geom_maxiter       500
DAMPING_PERCENTAGE 1
guess              SAP
}

optimize('b3lyp')
--------------------------------------------------------------------------

    Molecular point group: d2h
  Charge       = 0
  Multiplicity = 1
  Basis Set: CC-PVDZ
    Blend: CC-PVDZ
  Basis Set: (CC-PVDZ AUX)
    Blend: DEF2-UNIVERSAL-JKFIT
  @DF-UKS Final Energy:   -14.83704287045958
    Total Energy =                        -14.8370428704595803
 Dipole X            :          0.0000000            0.0000000            0.0000000
 Dipole Y            :          0.0000000            0.0000000            0.0000000
 Dipole Z            :          0.0000000            0.0000000            0.0000000
 Magnitude           :                                                    0.0000000
    Molecular point group: d2h
  Basis Set: CC-PVDZ
    Blend: CC-PVDZ
  Basis Set: (CC-PVDZ AUX)
    Blend: DEF2-UNIVERSAL-JKFIT
  Basis Set: CC-PVDZ
    Blend: CC-PVDZ
  Basis Set: (CC-PVDZ AUX)
    Blend: DEF2-UNIVERSAL-JKFIT
  @DF-UKS Final Energy:   -14.86900897717749
    Total Energy =                        -14.8690089771774936
  Basis Set: CC-PVDZ
    Blend: CC-PVDZ
  Basis Set: (CC-PVDZ AUX)
    Blend: DEF2-UNIVERSAL-JKFIT
  Basis Set: CC-PVDZ
    Blend: CC-PVDZ
  @DF-UKS Final Energy:   -14.93673300435906
    Total Energy =                        -14.9367330043590645
  @DF-UKS Final Energy:   -14.97851825383898
    Total Energy =                        -14.9785182538389776
  @DF-UKS Final Energy:   -14.99929790200198
    Total Energy =                        -14.9992979020019792
  @DF-UKS Final Energy:   -15.01107905542191
    Total Energy =                        -15.0110790554219111
  @DF-UKS Final Energy:   -15.01488505034280
    Total Energy =                        -15.0148850503427980
  @DF-UKS Final Energy:   -15.01580840844866
    Total Energy =                        -15.0158084084486578
  @DF-UKS Final Energy:   -15.01591277816970
    Total Energy =                        -15.0159127781696959
  Basis Set: (CC-PVDZ AUX)
    Blend: DEF2-UNIVERSAL-JKFIT
  Basis Set: CC-PVDZ
    Blend: CC-PVDZ
  Basis Set: (CC-PVDZ AUX)
    Blend: DEF2-UNIVERSAL-JKFIT
  @DF-UKS Final Energy:   -15.01591597147624
    Total Energy =                        -15.0159159714762396
  Basis Set: CC-PVDZ
    Blend: CC-PVDZ
  Basis Set: (CC-PVDZ AUX)
    Blend: DEF2-UNIVERSAL-JKFIT
  Charge       = 0
  Multiplicity = 1
  Basis Set: CC-PVDZ
    Blend: CC-PVDZ
  Basis Set: (CC-PVDZ AUX)
    Blend: DEF2-UNIVERSAL-JKFIT

    Orbital Energies [Eh]
    ---------------------

    Alpha Occupied:

       1Ag    -1.998574     1B2u   -1.998245     2Ag    -0.133684

    Alpha Virtual:

       2B2u   -0.053302     1B3u   -0.030829     1B1u   -0.030829
       3Ag    -0.017160     1B1g    0.015483     1B3g    0.015483
       3B2u    0.036028     4Ag     0.065911     2B3u    0.074071
       2B1u    0.074071     5Ag     0.097191     2B3g    0.111479
       2B1g    0.111479     4B2u    0.159268     6Ag     0.212913
       1B2g    0.212913     5B2u    0.230655     3B3u    0.242447
       3B1u    0.242447     6B2u    0.290675     1Au     0.290675
       7Ag     0.346164     3B3g    0.399949     3B1g    0.399949
       7B2u    0.690699

    Beta Occupied:

       1Ag    -1.998574     1B2u   -1.998245     2Ag    -0.133684

    Beta Virtual:

       2B2u   -0.053302     1B3u   -0.030829     1B1u   -0.030829
       3Ag    -0.017160     1B1g    0.015483     1B3g    0.015483
       3B2u    0.036028     4Ag     0.065911     2B3u    0.074071
       2B1u    0.074071     5Ag     0.097191     2B3g    0.111479
       2B1g    0.111479     4B2u    0.159268     6Ag     0.212913
       1B2g    0.212913     5B2u    0.230655     3B3u    0.242447
       3B1u    0.242447     6B2u    0.290675     1Au     0.290675
       7Ag     0.346164     3B3g    0.399949     3B1g    0.399949
       7B2u    0.690699

    Final Occupation by Irrep:
             Ag   B1g   B2g   B3g    Au   B1u   B2u   B3u
    DOCC [     2,    0,    0,    0,    0,    0,    1,    0 ]
    SOCC [     0,    0,    0,    0,    0,    0,    0,    0 ]
    NA   [     2,    0,    0,    0,    0,    0,    1,    0 ]
    NB   [     2,    0,    0,    0,    0,    0,    1,    0 ]

  @DF-UKS Final Energy:   -15.01591606689401

   => Energetics <=

    Nuclear Repulsion Energy =              1.7562250746319990
    One-Electron Energy =                 -23.1125938860006173
    Two-Electron Energy =                   9.3389069745872320
    DFT Exchange-Correlation Energy =      -2.9984542301126216
    Empirical Dispersion Energy =           0.0000000000000000
    VV10 Nonlocal Energy =                  0.0000000000000000
    Total Energy =                        -15.0159160668940075

  UHF NO Occupations:
  HONO-2 :    1B2u 2.0000000
  HONO-1 :    1 Ag 2.0000000
  HONO-0 :    2 Ag 2.0000000
  LUNO+0 :    3 Ag 0.0000000
  LUNO+1 :    4 Ag 0.0000000
  LUNO+2 :    5 Ag 0.0000000
  LUNO+3 :    6 Ag 0.0000000

Computation Completed

Properties will be evaluated at   0.000000,   0.000000,   0.000000 [a0]

Properties computed using the SCF density matrix

 Multipole Moments:

 ------------------------------------------------------------------------------------
     Multipole            Electronic (a.u.)      Nuclear  (a.u.)        Total (a.u.)
 ------------------------------------------------------------------------------------

 L = 1.  Multiply by 2.5417464519 to convert [e a0] to [Debye]
 Dipole X            :          0.0000000            0.0000000            0.0000000
 Dipole Y            :          0.0000000            0.0000000            0.0000000
 Dipole Z            :          0.0000000            0.0000000            0.0000000
 Magnitude           :                                                    0.0000000

 ------------------------------------------------------------------------------------

*** tstop() called on Joses-MacBook-Pro-2.local at Wed Jul 16 18:27:54 2025
Module time:
	user time   =       2.10 seconds =       0.03 minutes
	system time =       2.01 seconds =       0.03 minutes
	total time  =          1 seconds =       0.02 minutes
Total time:
	user time   =      23.43 seconds =       0.39 minutes
	system time =      42.13 seconds =       0.70 minutes
	total time  =          8 seconds =       0.13 minutes

*** tstart() called on Joses-MacBook-Pro-2.local
*** at Wed Jul 16 18:27:54 2025

         ------------------------------------------------------------
                                   SCF GRAD
                          Rob Parrish, Justin Turney,
                       Andy Simmonett, and Alex Sokolov
         ------------------------------------------------------------

  ==> Geometry <==

    Molecular point group: d2h
    Full point group: D_inf_h

    Geometry (in Angstrom), charge = 0, multiplicity = 1:

       Center              X                  Y                   Z               Mass
    ------------   -----------------  -----------------  -----------------  -----------------
         LI          -0.000000000000     1.355918146490     0.000000000000     7.016003436600
         LI           0.000000000000    -1.355918146490     0.000000000000     7.016003436600

  Nuclear repulsion =    1.756225074631999

  ==> Basis Set <==

  Basis Set: CC-PVDZ
    Blend: CC-PVDZ
    Number of shells: 12
    Number of basis functions: 28
    Number of Cartesian functions: 30
    Spherical Harmonics?: true
    Max angular momentum: 2

  ==> DFJKGrad: Density-Fitted SCF Gradients <==

    Gradient:                    1
    J tasked:                  Yes
    K tasked:                  Yes
    wK tasked:                  No
    OpenMP threads:              1
    Integrals threads:           1
    Memory [MiB]:              375
    Schwarz Cutoff:          1E-12
    Fitting Condition:       1E-10

   => Auxiliary Basis Set <=

  Basis Set: (CC-PVDZ AUX)
    Blend: DEF2-UNIVERSAL-JKFIT
    Number of shells: 34
    Number of basis functions: 102
    Number of Cartesian functions: 120
    Spherical Harmonics?: true
    Max angular momentum: 3

  ==> DFT Potential <==

   => LibXC <=

    Version 6.2.2
    S. Lehtola, C. Steigemann, M. J.T. Oliveira, and M. A.L. Marques.,  SoftwareX 7, 1â€“5 (2018) (10.1016/j.softx.2017.11.002)

   => Composite Functional: B3LYP <=

    B3LYP Hyb-GGA Exchange-Correlation Functional

    P. J. Stephens, F. J. Devlin, C. F. Chabalowski, and M. J. Frisch.,  J. Phys. Chem. 98, 11623 (1994) (10.1021/j100096a001)

    Deriv               =              1
    GGA                 =           TRUE
    Meta                =          FALSE

    Exchange Hybrid     =           TRUE
    MP2 Hybrid          =          FALSE

   => Exchange Functionals <=

    0.0800   Slater exchange
    0.7200         Becke 88

   => Exact (HF) Exchange <=

    0.2000               HF

   => Correlation Functionals <=

    0.1900   Vosko, Wilk & Nusair (VWN5_RPA)
    0.8100   Lee, Yang & Parr

   => LibXC Density Thresholds  <==

    XC_HYB_GGA_XC_B3LYP:  1.00E-15

   => Molecular Quadrature <=

    Radial Scheme          =       TREUTLER
    Pruning Scheme         =           NONE
    Nuclear Scheme         =       TREUTLER

    Blocking Scheme        =         OCTREE
    BS radius alpha        =              1
    Pruning alpha          =              1
    Radial Points          =             75
    Spherical Points       =            302
    Total Points           =          44058
    Total Blocks           =            446
    Max Points             =            255
    Max Functions          =             28
    Weights Tolerance      =       1.00E-15

  -Total Gradient:
     Atom            X                  Y                   Z
    ------   -----------------  -----------------  -----------------
       1        0.000000000000    -0.000009825416     0.000000000000
       2       -0.000000000000     0.000009825416     0.000000000000

*** tstop() called on Joses-MacBook-Pro-2.local at Wed Jul 16 18:27:54 2025
Module time:
	user time   =       1.16 seconds =       0.02 minutes
	system time =       1.05 seconds =       0.02 minutes
	total time  =          0 seconds =       0.00 minutes
Total time:
	user time   =      24.59 seconds =       0.41 minutes
	system time =      43.18 seconds =       0.72 minutes
	total time  =          8 seconds =       0.13 minutes

    			-----------------------------------------

    			 OPTKING 3.0: for geometry optimizations

    			     By R.A. King, Bethel University

    			        with contributions from

    			    A.V. Copan, J. Cayton, A. Heide

    			-----------------------------------------

	                            ===> Fragment 1 <==

	 Z (Atomic Numbers)          Masses                          Geom
	       3.000000             7.016003         -0.00000000  2.56231395  0.00000000
	       3.000000             7.016003          0.00000000 -2.56231395  0.00000000

	 - Coordinate -           - BOHR/RAD -       - ANG/DEG -
	 R(1,2)           =         5.124628           2.711836

	        --- Internal Coordinate Step in ANG or DEG, aJ/ANG or AJ/DEG ---
	-------------------------------------------------------------------------------
	           Coordinate      Previous         Force          Change          New
	           ----------      --------        ------          ------        ------
	               R(1,2)       2.71184        0.00008        0.00027       2.71211
	-------------------------------------------------------------------------------

	                                 ==> Convergence Check <==

	Measures of convergence in internal coordinates in au.

	Criteria marked as inactive (o), active & met (*), and active & unmet ( ).

	----------------------------------------------------------------------------------------------
	   Step    Total Energy     Delta E     Max Force     RMS Force      Max Disp      RMS Disp
	----------------------------------------------------------------------------------------------
	  Convergence Criteria     1.00e-06 *    3.00e-04 *             o    1.20e-03 *             o
	----------------------------------------------------------------------------------------------
	    11     -15.01591607   -9.54e-08 *    9.83e-06 *    9.83e-06 o    5.19e-04 *    5.19e-04 o  ~
	----------------------------------------------------------------------------------------------

Next Geometry in Ang
	Fragment 1 (Ang)

	   Li  -0.0000000000   1.3560554318   0.0000000000
	   Li   0.0000000000  -1.3560554318   0.0000000000

    Final optimized geometry and variables:
    Molecular point group: d2h
    Full point group: D_inf_h

    Geometry (in Angstrom), charge = 0, multiplicity = 1:

    LI          -0.000000000000     1.355918146490     0.000000000000
    LI           0.000000000000    -1.355918146490     0.000000000000

    Psi4 stopped on: Wednesday, 16 July 2025 06:27PM
    Psi4 wall time for execution: 0:00:08.77

*** Psi4 exiting successfully. Buy a developer a beer!
