                               Psi4 1.9.1 release

  ==> Input File <==

--------------------------------------------------------------------------
molecule {
0 1
Na   0.00000        0.60000        0.00000
P   0.00000       -0.60000        0.00000
}

set {
basis              cc-pvdz
reference          uks
maxiter            500
geom_maxiter       500
DAMPING_PERCENTAGE 1
guess              SAP
}

optimize('b3lyp')
--------------------------------------------------------------------------

    Molecular point group: c2v
  Charge       = 0
  Multiplicity = 1
  Basis Set: CC-PVDZ
    Blend: CC-PVDZ
  Basis Set: (CC-PVDZ AUX)
    Blend: CC-PVDZ-JKFIT + DEF2-UNIVERSAL-JKFIT
  @DF-UKS Final Energy:  -502.77854509117412
    Total Energy =                       -502.7785450911741236
 Dipole X            :          0.0000000            0.0000000            0.0000000
 Dipole Y            :          0.0000000            0.0000000            0.0000000
 Dipole Z            :          2.0714097           -0.1737688            1.8976409
 Magnitude           :                                                    1.8976409
    Molecular point group: c2v
  Basis Set: CC-PVDZ
    Blend: CC-PVDZ
  Basis Set: (CC-PVDZ AUX)
    Blend: CC-PVDZ-JKFIT + DEF2-UNIVERSAL-JKFIT
  Basis Set: CC-PVDZ
    Blend: CC-PVDZ
  Basis Set: (CC-PVDZ AUX)
    Blend: CC-PVDZ-JKFIT + DEF2-UNIVERSAL-JKFIT
  @DF-UKS Final Energy:  -502.78823083666475
    Total Energy =                       -502.7882308366647521
  Basis Set: CC-PVDZ
    Blend: CC-PVDZ
  Basis Set: (CC-PVDZ AUX)
    Blend: CC-PVDZ-JKFIT + DEF2-UNIVERSAL-JKFIT
  Basis Set: CC-PVDZ
    Blend: CC-PVDZ
  @DF-UKS Final Energy:  -502.80692238858501
    Total Energy =                       -502.8069223885850079
  @DF-UKS Final Energy:  -502.87468123216411
    Total Energy =                       -502.8746812321641073
  @DF-UKS Final Energy:  -503.17655448226998
    Total Energy =                       -503.1765544822699781
  @DF-UKS Final Energy:  -503.32886213747753
    Total Energy =                       -503.3288621374775289
  @DF-UKS Final Energy:  -503.42715361035641
    Total Energy =                       -503.4271536103564131
  @DF-UKS Final Energy:  -503.48170768228704
    Total Energy =                       -503.4817076822870376
  @DF-UKS Final Energy:  -503.50623116796703
    Total Energy =                       -503.5062311679670302
  @DF-UKS Final Energy:  -503.51607439381081
    Total Energy =                       -503.5160743938108112
  @DF-UKS Final Energy:  -503.51927306400682
    Total Energy =                       -503.5192730640068248
  @DF-UKS Final Energy:  -503.51986749464351
    Total Energy =                       -503.5198674946435062
  @DF-UKS Final Energy:  -503.52000292811670
    Total Energy =                       -503.5200029281166962
  Basis Set: (CC-PVDZ AUX)
    Blend: CC-PVDZ-JKFIT + DEF2-UNIVERSAL-JKFIT
  Basis Set: CC-PVDZ
    Blend: CC-PVDZ
  Basis Set: (CC-PVDZ AUX)
    Blend: CC-PVDZ-JKFIT + DEF2-UNIVERSAL-JKFIT
  @DF-UKS Final Energy:  -503.52001411944218
    Total Energy =                       -503.5200141194421803
  Basis Set: CC-PVDZ
    Blend: CC-PVDZ
  Basis Set: (CC-PVDZ AUX)
    Blend: CC-PVDZ-JKFIT + DEF2-UNIVERSAL-JKFIT
  Charge       = 0
  Multiplicity = 1
  Basis Set: CC-PVDZ
    Blend: CC-PVDZ
  Basis Set: (CC-PVDZ AUX)
    Blend: CC-PVDZ-JKFIT + DEF2-UNIVERSAL-JKFIT

    Orbital Energies [Eh]
    ---------------------

    Alpha Occupied:

       1A1   -77.037580     2A1   -38.560916     3A1    -6.503464
       4A1    -4.676390     1B2    -4.657807     1B1    -4.657807
       5A1    -2.303384     6A1    -1.237162     2B2    -1.233629
       2B1    -1.233629     7A1    -0.478991     3B2    -0.149217
       3B1    -0.149217

    Alpha Virtual:

       8A1    -0.142738     9A1    -0.068169     4B1    -0.005496
       4B2    -0.005496    10A1     0.016962    11A1     0.047109
       5B2     0.071400     5B1     0.071400    12A1     0.130728
      13A1     0.154057     1A2     0.154057     6B2     0.186552
       6B1     0.186552    14A1     0.275068    15A1     0.507852
       7B2     0.510203     7B1     0.510203    16A1     0.533013
       2A2     0.573900    17A1     0.573901     8B2     0.633897
       8B1     0.633897    18A1     0.849179

    Beta Occupied:

       1A1   -77.037580     2A1   -38.560916     3A1    -6.503464
       4A1    -4.676390     1B2    -4.657807     1B1    -4.657807
       5A1    -2.303384     6A1    -1.237162     2B2    -1.233629
       2B1    -1.233629     7A1    -0.478991     3B2    -0.149217
       3B1    -0.149217

    Beta Virtual:

       8A1    -0.142738     9A1    -0.068169     4B1    -0.005496
       4B2    -0.005496    10A1     0.016962    11A1     0.047109
       5B2     0.071400     5B1     0.071400    12A1     0.130728
      13A1     0.154057     1A2     0.154057     6B2     0.186552
       6B1     0.186552    14A1     0.275068    15A1     0.507852
       7B2     0.510203     7B1     0.510203    16A1     0.533013
       2A2     0.573900    17A1     0.573901     8B2     0.633897
       8B1     0.633897    18A1     0.849179

    Final Occupation by Irrep:
             A1    A2    B1    B2
    DOCC [     7,    0,    3,    3 ]
    SOCC [     0,    0,    0,    0 ]
    NA   [     7,    0,    3,    3 ]
    NB   [     7,    0,    3,    3 ]

  @DF-UKS Final Energy:  -503.52001487131292

   => Energetics <=

    Nuclear Repulsion Energy =             35.4251787894215653
    One-Electron Energy =                -770.4861542563235162
    Two-Electron Energy =                 261.8955694424881244
    DFT Exchange-Correlation Energy =     -30.3546088468991364
    Empirical Dispersion Energy =           0.0000000000000000
    VV10 Nonlocal Energy =                  0.0000000000000000
    Total Energy =                       -503.5200148713129238

  UHF NO Occupations:
  HONO-2 :    7 A1 2.0000000
  HONO-1 :    2 B1 2.0000000
  HONO-0 :    3 B1 2.0000000
  LUNO+0 :    8 A1 0.0000000
  LUNO+1 :    9 A1 0.0000000
  LUNO+2 :   10 A1 0.0000000
  LUNO+3 :   11 A1 0.0000000

Computation Completed

Properties will be evaluated at   0.000000,   0.000000,   0.000000 [a0]

Properties computed using the SCF density matrix

 Multipole Moments:

 ------------------------------------------------------------------------------------
     Multipole            Electronic (a.u.)      Nuclear  (a.u.)        Total (a.u.)
 ------------------------------------------------------------------------------------

 L = 1.  Multiply by 2.5417464519 to convert [e a0] to [Debye]
 Dipole X            :          0.0000000            0.0000000            0.0000000
 Dipole Y            :          0.0000000            0.0000000            0.0000000
 Dipole Z            :          3.1823313           -0.3569140            2.8254173
 Magnitude           :                                                    2.8254173

 ------------------------------------------------------------------------------------

*** tstop() called on Joses-MacBook-Pro-2.local at Wed Jul 16 19:44:37 2025
Module time:
	user time   =       6.99 seconds =       0.12 minutes
	system time =       2.68 seconds =       0.04 minutes
	total time  =          1 seconds =       0.02 minutes
Total time:
	user time   =     173.44 seconds =       2.89 minutes
	system time =      52.97 seconds =       0.88 minutes
	total time  =         23 seconds =       0.38 minutes

*** tstart() called on Joses-MacBook-Pro-2.local
*** at Wed Jul 16 19:44:37 2025

         ------------------------------------------------------------
                                   SCF GRAD
                          Rob Parrish, Justin Turney,
                       Andy Simmonett, and Alex Sokolov
         ------------------------------------------------------------

  ==> Geometry <==

    Molecular point group: c2v
    Full point group: C_inf_v

    Geometry (in Angstrom), charge = 0, multiplicity = 1:

       Center              X                  Y                   Z               Mass
    ------------   -----------------  -----------------  -----------------  -----------------
         NA           0.000000000000     0.000000000000     1.414707388512    22.989769282000
         P            0.000000000000     0.000000000000    -1.050043467922    30.973761998420

  Nuclear repulsion =   35.425178789421565

  ==> Basis Set <==

  Basis Set: CC-PVDZ
    Blend: CC-PVDZ
    Number of shells: 16
    Number of basis functions: 36
    Number of Cartesian functions: 38
    Spherical Harmonics?: true
    Max angular momentum: 2

  ==> DFJKGrad: Density-Fitted SCF Gradients <==

    Gradient:                    1
    J tasked:                  Yes
    K tasked:                  Yes
    wK tasked:                  No
    OpenMP threads:              1
    Integrals threads:           1
    Memory [MiB]:              375
    Schwarz Cutoff:          1E-12
    Fitting Condition:       1E-10

   => Auxiliary Basis Set <=

  Basis Set: (CC-PVDZ AUX)
    Blend: CC-PVDZ-JKFIT + DEF2-UNIVERSAL-JKFIT
    Number of shells: 70
    Number of basis functions: 224
    Number of Cartesian functions: 267
    Spherical Harmonics?: true
    Max angular momentum: 4

  ==> DFT Potential <==

   => LibXC <=

    Version 6.2.2
    S. Lehtola, C. Steigemann, M. J.T. Oliveira, and M. A.L. Marques.,  SoftwareX 7, 1â€“5 (2018) (10.1016/j.softx.2017.11.002)

   => Composite Functional: B3LYP <=

    B3LYP Hyb-GGA Exchange-Correlation Functional

    P. J. Stephens, F. J. Devlin, C. F. Chabalowski, and M. J. Frisch.,  J. Phys. Chem. 98, 11623 (1994) (10.1021/j100096a001)

    Deriv               =              1
    GGA                 =           TRUE
    Meta                =          FALSE

    Exchange Hybrid     =           TRUE
    MP2 Hybrid          =          FALSE

   => Exchange Functionals <=

    0.0800   Slater exchange
    0.7200         Becke 88

   => Exact (HF) Exchange <=

    0.2000               HF

   => Correlation Functionals <=

    0.1900   Vosko, Wilk & Nusair (VWN5_RPA)
    0.8100   Lee, Yang & Parr

   => LibXC Density Thresholds  <==

    XC_HYB_GGA_XC_B3LYP:  1.00E-15

   => Molecular Quadrature <=

    Radial Scheme          =       TREUTLER
    Pruning Scheme         =           NONE
    Nuclear Scheme         =       TREUTLER

    Blocking Scheme        =         OCTREE
    BS radius alpha        =              1
    Pruning alpha          =              1
    Radial Points          =             75
    Spherical Points       =            302
    Total Points           =          43840
    Total Blocks           =            442
    Max Points             =            255
    Max Functions          =             36
    Weights Tolerance      =       1.00E-15

  -Total Gradient:
     Atom            X                  Y                   Z
    ------   -----------------  -----------------  -----------------
       1        0.000000000000     0.000000000000    -0.000085039770
       2        0.000000000000     0.000000000000     0.000113530247

*** tstop() called on Joses-MacBook-Pro-2.local at Wed Jul 16 19:44:38 2025
Module time:
	user time   =       2.57 seconds =       0.04 minutes
	system time =       1.88 seconds =       0.03 minutes
	total time  =          1 seconds =       0.02 minutes
Total time:
	user time   =     176.01 seconds =       2.93 minutes
	system time =      54.85 seconds =       0.91 minutes
	total time  =         24 seconds =       0.40 minutes

    			-----------------------------------------

    			 OPTKING 3.0: for geometry optimizations

    			     By R.A. King, Bethel University

    			        with contributions from

    			    A.V. Copan, J. Cayton, A. Heide

    			-----------------------------------------

	                            ===> Fragment 1 <==

	 Z (Atomic Numbers)          Masses                          Geom
	      11.000000            22.989769          0.00000000  0.00000000  2.67340951
	      15.000000            30.973762          0.00000000  0.00000000 -1.98429457

	 - Coordinate -           - BOHR/RAD -       - ANG/DEG -
	 R(1,2)           =         4.657704           2.464751

	        --- Internal Coordinate Step in ANG or DEG, aJ/ANG or AJ/DEG ---
	-------------------------------------------------------------------------------
	           Coordinate      Previous         Force          Change          New
	           ----------      --------        ------          ------        ------
	               R(1,2)       2.46475        0.00082        0.00113       2.46588
	-------------------------------------------------------------------------------

	                                 ==> Convergence Check <==

	Measures of convergence in internal coordinates in au.

	Criteria marked as inactive (o), active & met (*), and active & unmet ( ).

	----------------------------------------------------------------------------------------------
	   Step    Total Energy     Delta E     Max Force     RMS Force      Max Disp      RMS Disp
	----------------------------------------------------------------------------------------------
	  Convergence Criteria     1.00e-06 *    3.00e-04 *             o    1.20e-03 *             o
	----------------------------------------------------------------------------------------------
	    15    -503.52001487   -7.52e-07 *    9.93e-05 *    9.93e-05 o    2.13e-03      2.13e-03 o  ~
	----------------------------------------------------------------------------------------------

Next Geometry in Ang
	Fragment 1 (Ang)

	   Na   0.0000000000   0.0000000000   1.4152700942
	    P   0.0000000000   0.0000000000  -1.0506061736

    Final optimized geometry and variables:
    Molecular point group: c2v
    Full point group: C_inf_v

    Geometry (in Angstrom), charge = 0, multiplicity = 1:

    NA           0.000000000000     0.000000000000     1.414707388512
    P            0.000000000000     0.000000000000    -1.050043467922

    Psi4 stopped on: Wednesday, 16 July 2025 07:44PM
    Psi4 wall time for execution: 0:00:24.35

*** Psi4 exiting successfully. Buy a developer a beer!
