                               Psi4 1.9.1 release

  ==> Input File <==

--------------------------------------------------------------------------
molecule {
0 1
B   0.00000        0.60000        0.00000
P   0.00000       -0.60000        0.00000
}

set {
basis              cc-pvdz
reference          uks
maxiter            500
geom_maxiter       500
DAMPING_PERCENTAGE 1
guess              SAP
}

optimize('b3lyp')
--------------------------------------------------------------------------

    Molecular point group: c2v
  Charge       = 0
  Multiplicity = 1
  Basis Set: CC-PVDZ
    Blend: CC-PVDZ
  Basis Set: (CC-PVDZ AUX)
    Blend: CC-PVDZ-JKFIT
  @DF-UKS Final Energy:  -365.69900123269827
    Total Energy =                       -365.6990012326982082
 Dipole X            :          0.0000000            0.0000000            0.0000000
 Dipole Y            :          0.0000000            0.0000000            0.0000000
 Dipole Z            :          0.9257223           -0.5547649            0.3709574
 Magnitude           :                                                    0.3709574
    Molecular point group: c2v
  Basis Set: CC-PVDZ
    Blend: CC-PVDZ
  Basis Set: (CC-PVDZ AUX)
    Blend: CC-PVDZ-JKFIT
  Basis Set: CC-PVDZ
    Blend: CC-PVDZ
  Basis Set: (CC-PVDZ AUX)
    Blend: CC-PVDZ-JKFIT
  @DF-UKS Final Energy:  -365.89183426195257
    Total Energy =                       -365.8918342619525674
  Basis Set: CC-PVDZ
    Blend: CC-PVDZ
  Basis Set: (CC-PVDZ AUX)
    Blend: CC-PVDZ-JKFIT
  Basis Set: CC-PVDZ
    Blend: CC-PVDZ
  @DF-UKS Final Energy:  -365.99243378440161
    Total Energy =                       -365.9924337844016122
  @DF-UKS Final Energy:  -366.01949182588828
    Total Energy =                       -366.0194918258882808
  @DF-UKS Final Energy:  -366.03030389289785
    Total Energy =                       -366.0303038928978481
  @DF-UKS Final Energy:  -366.03370090913239
    Total Energy =                       -366.0337009091323921
  @DF-UKS Final Energy:  -366.03419871737327
    Total Energy =                       -366.0341987173732718
  @DF-UKS Final Energy:  -366.03428038542717
    Total Energy =                       -366.0342803854271096
  Basis Set: (CC-PVDZ AUX)
    Blend: CC-PVDZ-JKFIT
  Basis Set: CC-PVDZ
    Blend: CC-PVDZ
  Basis Set: (CC-PVDZ AUX)
    Blend: CC-PVDZ-JKFIT
  @DF-UKS Final Energy:  -366.03429601354651
    Total Energy =                       -366.0342960135465091
  Basis Set: CC-PVDZ
    Blend: CC-PVDZ
  Basis Set: (CC-PVDZ AUX)
    Blend: CC-PVDZ-JKFIT
  Charge       = 0
  Multiplicity = 1
  Basis Set: CC-PVDZ
    Blend: CC-PVDZ
  Basis Set: (CC-PVDZ AUX)
    Blend: CC-PVDZ-JKFIT

    Orbital Energies [Eh]
    ---------------------

    Alpha Occupied:

       1A1   -77.100409     2A1    -6.862411     3A1    -6.569861
       4A1    -4.734251     1B1    -4.728134     1B2    -4.728134
       5A1    -0.622466     6A1    -0.368861     2B1    -0.253224
       2B2    -0.253224

    Alpha Virtual:

       7A1    -0.199563     3B1    -0.041412     3B2    -0.041412
       8A1     0.139137     9A1     0.219733     4B1     0.277689
       4B2     0.277689    10A1     0.322443    11A1     0.437898
       5B1     0.439736     5B2     0.439736    12A1     0.464954
       1A2     0.464954     6B1     0.526144     6B2     0.526144
      13A1     0.671968     2A2     0.745522    14A1     0.745522
      15A1     0.935510     7B1     1.005173     7B2     1.005173
      16A1     1.240479

    Beta Occupied:

       1A1   -77.100409     2A1    -6.862411     3A1    -6.569861
       4A1    -4.734251     1B1    -4.728134     1B2    -4.728134
       5A1    -0.622466     6A1    -0.368861     2B1    -0.253224
       2B2    -0.253224

    Beta Virtual:

       7A1    -0.199563     3B1    -0.041412     3B2    -0.041412
       8A1     0.139137     9A1     0.219733     4B1     0.277689
       4B2     0.277689    10A1     0.322443    11A1     0.437898
       5B1     0.439736     5B2     0.439736    12A1     0.464954
       1A2     0.464954     6B1     0.526144     6B2     0.526144
      13A1     0.671968     2A2     0.745522    14A1     0.745522
      15A1     0.935510     7B1     1.005173     7B2     1.005173
      16A1     1.240479

    Final Occupation by Irrep:
             A1    A2    B1    B2
    DOCC [     6,    0,    2,    2 ]
    SOCC [     0,    0,    0,    0 ]
    NA   [     6,    0,    2,    2 ]
    NB   [     6,    0,    2,    2 ]

  @DF-UKS Final Energy:  -366.03429744567433

   => Energetics <=

    Nuclear Repulsion Energy =             23.6911654595915913
    One-Electron Energy =                -551.3917857643129992
    Two-Electron Energy =                 183.5578118199624100
    DFT Exchange-Correlation Energy =     -21.8914889609153072
    Empirical Dispersion Energy =           0.0000000000000000
    VV10 Nonlocal Energy =                  0.0000000000000000
    Total Energy =                       -366.0342974456742695

  UHF NO Occupations:
  HONO-2 :    2 B1 2.0000000
  HONO-1 :    6 A1 2.0000000
  HONO-0 :    2 B2 2.0000000
  LUNO+0 :    7 A1 0.0000000
  LUNO+1 :    8 A1 0.0000000
  LUNO+2 :    3 B1 0.0000000
  LUNO+3 :    3 B2 0.0000000

Computation Completed

Properties will be evaluated at   0.000000,   0.000000,   0.000000 [a0]

Properties computed using the SCF density matrix

 Multipole Moments:

 ------------------------------------------------------------------------------------
     Multipole            Electronic (a.u.)      Nuclear  (a.u.)        Total (a.u.)
 ------------------------------------------------------------------------------------

 L = 1.  Multiply by 2.5417464519 to convert [e a0] to [Debye]
 Dipole X            :          0.0000000            0.0000000            0.0000000
 Dipole Y            :          0.0000000            0.0000000            0.0000000
 Dipole Z            :          1.1648826           -0.7744684            0.3904142
 Magnitude           :                                                    0.3904142

 ------------------------------------------------------------------------------------

*** tstop() called on Joses-MacBook-Pro-2.local at Wed Jul 16 18:55:58 2025
Module time:
	user time   =       3.13 seconds =       0.05 minutes
	system time =       4.23 seconds =       0.07 minutes
	total time  =          1 seconds =       0.02 minutes
Total time:
	user time   =      80.10 seconds =       1.33 minutes
	system time =      59.04 seconds =       0.98 minutes
	total time  =         17 seconds =       0.28 minutes

*** tstart() called on Joses-MacBook-Pro-2.local
*** at Wed Jul 16 18:55:58 2025

         ------------------------------------------------------------
                                   SCF GRAD
                          Rob Parrish, Justin Turney,
                       Andy Simmonett, and Alex Sokolov
         ------------------------------------------------------------

  ==> Geometry <==

    Molecular point group: c2v
    Full point group: C_inf_v

    Geometry (in Angstrom), charge = 0, multiplicity = 1:

       Center              X                  Y                   Z               Mass
    ------------   -----------------  -----------------  -----------------  -----------------
         B            0.000000000000     0.000000000000     1.235935371194    11.009305360000
         P            0.000000000000     0.000000000000    -0.439300524986    30.973761998420

  Nuclear repulsion =   23.691165459591591

  ==> Basis Set <==

  Basis Set: CC-PVDZ
    Blend: CC-PVDZ
    Number of shells: 14
    Number of basis functions: 32
    Number of Cartesian functions: 34
    Spherical Harmonics?: true
    Max angular momentum: 2

  ==> DFJKGrad: Density-Fitted SCF Gradients <==

    Gradient:                    1
    J tasked:                  Yes
    K tasked:                  Yes
    wK tasked:                  No
    OpenMP threads:              1
    Integrals threads:           1
    Memory [MiB]:              375
    Schwarz Cutoff:          1E-12
    Fitting Condition:       1E-10

   => Auxiliary Basis Set <=

  Basis Set: (CC-PVDZ AUX)
    Blend: CC-PVDZ-JKFIT
    Number of shells: 60
    Number of basis functions: 182
    Number of Cartesian functions: 211
    Spherical Harmonics?: true
    Max angular momentum: 3

  ==> DFT Potential <==

   => LibXC <=

    Version 6.2.2
    S. Lehtola, C. Steigemann, M. J.T. Oliveira, and M. A.L. Marques.,  SoftwareX 7, 1â€“5 (2018) (10.1016/j.softx.2017.11.002)

   => Composite Functional: B3LYP <=

    B3LYP Hyb-GGA Exchange-Correlation Functional

    P. J. Stephens, F. J. Devlin, C. F. Chabalowski, and M. J. Frisch.,  J. Phys. Chem. 98, 11623 (1994) (10.1021/j100096a001)

    Deriv               =              1
    GGA                 =           TRUE
    Meta                =          FALSE

    Exchange Hybrid     =           TRUE
    MP2 Hybrid          =          FALSE

   => Exchange Functionals <=

    0.0800   Slater exchange
    0.7200         Becke 88

   => Exact (HF) Exchange <=

    0.2000               HF

   => Correlation Functionals <=

    0.1900   Vosko, Wilk & Nusair (VWN5_RPA)
    0.8100   Lee, Yang & Parr

   => LibXC Density Thresholds  <==

    XC_HYB_GGA_XC_B3LYP:  1.00E-15

   => Molecular Quadrature <=

    Radial Scheme          =       TREUTLER
    Pruning Scheme         =           NONE
    Nuclear Scheme         =       TREUTLER

    Blocking Scheme        =         OCTREE
    BS radius alpha        =              1
    Pruning alpha          =              1
    Radial Points          =             75
    Spherical Points       =            302
    Total Points           =          41978
    Total Blocks           =            383
    Max Points             =            255
    Max Functions          =             32
    Weights Tolerance      =       1.00E-15

  -Total Gradient:
     Atom            X                  Y                   Z
    ------   -----------------  -----------------  -----------------
       1        0.000000000000    -0.000000000000    -0.000189252152
       2        0.000000000000    -0.000000000000     0.000166076198

*** tstop() called on Joses-MacBook-Pro-2.local at Wed Jul 16 18:55:58 2025
Module time:
	user time   =       0.89 seconds =       0.01 minutes
	system time =       1.50 seconds =       0.03 minutes
	total time  =          0 seconds =       0.00 minutes
Total time:
	user time   =      80.99 seconds =       1.35 minutes
	system time =      60.55 seconds =       1.01 minutes
	total time  =         17 seconds =       0.28 minutes

    			-----------------------------------------

    			 OPTKING 3.0: for geometry optimizations

    			     By R.A. King, Bethel University

    			        with contributions from

    			    A.V. Copan, J. Cayton, A. Heide

    			-----------------------------------------

	                            ===> Fragment 1 <==

	 Z (Atomic Numbers)          Masses                          Geom
	       5.000000            11.009305          0.00000000  0.00000000  2.33557936
	      15.000000            30.973762          0.00000000  0.00000000 -0.83015768

	 - Coordinate -           - BOHR/RAD -       - ANG/DEG -
	 R(1,2)           =         3.165737           1.675236

	        --- Internal Coordinate Step in ANG or DEG, aJ/ANG or AJ/DEG ---
	-------------------------------------------------------------------------------
	           Coordinate      Previous         Force          Change          New
	           ----------      --------        ------          ------        ------
	               R(1,2)       1.67524        0.00146        0.00025       1.67548
	-------------------------------------------------------------------------------

	                                 ==> Convergence Check <==

	Measures of convergence in internal coordinates in au.

	Criteria marked as inactive (o), active & met (*), and active & unmet ( ).

	----------------------------------------------------------------------------------------------
	   Step    Total Energy     Delta E     Max Force     RMS Force      Max Disp      RMS Disp
	----------------------------------------------------------------------------------------------
	  Convergence Criteria     1.00e-06 *    3.00e-04 *             o    1.20e-03 *             o
	----------------------------------------------------------------------------------------------
	    10    -366.03429745   -1.43e-06      1.78e-04 *    1.78e-04 o    4.63e-04 *    4.63e-04 o  ~
	----------------------------------------------------------------------------------------------

Next Geometry in Ang
	Fragment 1 (Ang)

	    B   0.0000000000   0.0000000000   1.2360579327
	    P   0.0000000000   0.0000000000  -0.4394230864

    Final optimized geometry and variables:
    Molecular point group: c2v
    Full point group: C_inf_v

    Geometry (in Angstrom), charge = 0, multiplicity = 1:

    B            0.000000000000     0.000000000000     1.235935371194
    P            0.000000000000     0.000000000000    -0.439300524986

    Psi4 stopped on: Wednesday, 16 July 2025 06:55PM
    Psi4 wall time for execution: 0:00:17.39

*** Psi4 exiting successfully. Buy a developer a beer!
