                               Psi4 1.9.1 release

  ==> Input File <==

--------------------------------------------------------------------------
molecule {
0 1
He   0.00000        0.60000        0.00000
Ar   0.00000       -0.60000        0.00000
}

set {
basis              cc-pvdz
reference          uks
maxiter            500
geom_maxiter       500
DAMPING_PERCENTAGE 1
guess              SAP
}

optimize('b3lyp')
--------------------------------------------------------------------------

    Molecular point group: c2v
  Charge       = 0
  Multiplicity = 1
  Basis Set: CC-PVDZ
    Blend: CC-PVDZ
  Basis Set: (CC-PVDZ AUX)
    Blend: CC-PVDZ-JKFIT + DEF2-UNIVERSAL-JKFIT
  @DF-UKS Final Energy:  -530.02696500805052
    Total Energy =                       -530.0269650080506381
 Dipole X            :          0.0000000            0.0000000            0.0000000
 Dipole Y            :          0.0000000            0.0000000            0.0000000
 Dipole Z            :          0.0775028            0.4063348            0.4838376
 Magnitude           :                                                    0.4838376
    Molecular point group: c2v
  Basis Set: CC-PVDZ
    Blend: CC-PVDZ
  Basis Set: (CC-PVDZ AUX)
    Blend: CC-PVDZ-JKFIT + DEF2-UNIVERSAL-JKFIT
  Basis Set: CC-PVDZ
    Blend: CC-PVDZ
  Basis Set: (CC-PVDZ AUX)
    Blend: CC-PVDZ-JKFIT + DEF2-UNIVERSAL-JKFIT
  @DF-UKS Final Energy:  -530.27936572401677
    Total Energy =                       -530.2793657240167704
  Basis Set: CC-PVDZ
    Blend: CC-PVDZ
  Basis Set: (CC-PVDZ AUX)
    Blend: CC-PVDZ-JKFIT + DEF2-UNIVERSAL-JKFIT
  Basis Set: CC-PVDZ
    Blend: CC-PVDZ
  @DF-UKS Final Energy:  -530.35935009368393
    Total Energy =                       -530.3593500936838154
  @DF-UKS Final Energy:  -530.40470117318614
    Total Energy =                       -530.4047011731862540
  @DF-UKS Final Energy:  -530.42695745908497
    Total Energy =                       -530.4269574590849743
  @DF-UKS Final Energy:  -530.43828702146584
    Total Energy =                       -530.4382870214658396
  @DF-UKS Final Energy:  -530.44392893853092
    Total Energy =                       -530.4439289385308030
  @DF-UKS Final Energy:  -530.44672792903509
    Total Energy =                       -530.4467279290350916
  @DF-UKS Final Energy:  -530.44810647504380
    Total Energy =                       -530.4481064750439145
  @DF-UKS Final Energy:  -530.44877681552634
    Total Energy =                       -530.4487768155263439
  @DF-UKS Final Energy:  -530.44909494978083
    Total Energy =                       -530.4490949497808288
  @DF-UKS Final Energy:  -530.44924200911021
    Total Energy =                       -530.4492420091102076
  @DF-UKS Final Energy:  -530.44930905822525
    Total Energy =                       -530.4493090582252535
  @DF-UKS Final Energy:  -530.44933238265958
    Total Energy =                       -530.4493323826595770
  @DF-UKS Final Energy:  -530.44934608731535
    Total Energy =                       -530.4493460873152344
  @DF-UKS Final Energy:  -530.44935547075136
    Total Energy =                       -530.4493554707513567
  @DF-UKS Final Energy:  -530.44935948967805
    Total Energy =                       -530.4493594896780451
  @DF-UKS Final Energy:  -530.44936149352930
    Total Energy =                       -530.4493614935291816
  @DF-UKS Final Energy:  -530.44936319459521
    Total Energy =                       -530.4493631945950938
  @DF-UKS Final Energy:  -530.44936587971495
    Total Energy =                       -530.4493658797149465
  Basis Set: (CC-PVDZ AUX)
    Blend: CC-PVDZ-JKFIT + DEF2-UNIVERSAL-JKFIT
  Basis Set: CC-PVDZ
    Blend: CC-PVDZ
  Basis Set: (CC-PVDZ AUX)
    Blend: CC-PVDZ-JKFIT + DEF2-UNIVERSAL-JKFIT
  @DF-UKS Final Energy:  -530.44936900909852
    Total Energy =                       -530.4493690090985183
  Basis Set: CC-PVDZ
    Blend: CC-PVDZ
  Basis Set: (CC-PVDZ AUX)
    Blend: CC-PVDZ-JKFIT + DEF2-UNIVERSAL-JKFIT
  Charge       = 0
  Multiplicity = 1
  Basis Set: CC-PVDZ
    Blend: CC-PVDZ
  Basis Set: (CC-PVDZ AUX)
    Blend: CC-PVDZ-JKFIT + DEF2-UNIVERSAL-JKFIT

    Orbital Energies [Eh]
    ---------------------

    Alpha Occupied:

       1A1  -115.097817     2A1   -11.133897     1B2    -8.683766
       1B1    -8.683766     3A1    -8.683766     4A1    -0.962162
       5A1    -0.649874     2B2    -0.419906     2B1    -0.419906
       6A1    -0.419900

    Alpha Virtual:

       7A1     0.583692     3B2     0.583775     3B1     0.583775
       8A1     0.728753     9A1     0.838004    10A1     0.838005
       1A2     0.838005     4B2     0.838005     4B1     0.838005
      11A1     1.118623     5B1     2.189244     5B2     2.189244
      12A1     2.189275

    Beta Occupied:

       1A1  -115.097817     2A1   -11.133897     1B2    -8.683766
       1B1    -8.683766     3A1    -8.683766     4A1    -0.962162
       5A1    -0.649874     2B2    -0.419906     2B1    -0.419906
       6A1    -0.419900

    Beta Virtual:

       7A1     0.583692     3B2     0.583775     3B1     0.583775
       8A1     0.728753     9A1     0.838004    10A1     0.838005
       1A2     0.838005     4B2     0.838005     4B1     0.838005
      11A1     1.118623     5B1     2.189244     5B2     2.189244
      12A1     2.189275

    Final Occupation by Irrep:
             A1    A2    B1    B2
    DOCC [     6,    0,    2,    2 ]
    SOCC [     0,    0,    0,    0 ]
    NA   [     6,    0,    2,    2 ]
    NB   [     6,    0,    2,    2 ]

  @DF-UKS Final Energy:  -530.44937982550925

   => Energetics <=

    Nuclear Repulsion Energy =              4.6088947235852133
    One-Electron Energy =                -741.5019582734123560
    Two-Electron Energy =                 232.2083993797512562
    DFT Exchange-Correlation Energy =     -25.7647156554333812
    Empirical Dispersion Energy =           0.0000000000000000
    VV10 Nonlocal Energy =                  0.0000000000000000
    Total Energy =                       -530.4493798255092543

  UHF NO Occupations:
  HONO-2 :    2 B1 2.0000000
  HONO-1 :    5 A1 2.0000000
  HONO-0 :    6 A1 2.0000000
  LUNO+0 :    7 A1 0.0000000
  LUNO+1 :    8 A1 0.0000000
  LUNO+2 :    9 A1 0.0000000
  LUNO+3 :    3 B1 0.0000000

Computation Completed

Properties will be evaluated at   0.000000,   0.000000,   0.000000 [a0]

Properties computed using the SCF density matrix

 Multipole Moments:

 ------------------------------------------------------------------------------------
     Multipole            Electronic (a.u.)      Nuclear  (a.u.)        Total (a.u.)
 ------------------------------------------------------------------------------------

 L = 1.  Multiply by 2.5417464519 to convert [e a0] to [Debye]
 Dipole X            :          0.0000000            0.0000000            0.0000000
 Dipole Y            :          0.0000000            0.0000000            0.0000000
 Dipole Z            :         -1.3995909            1.3996184            0.0000275
 Magnitude           :                                                    0.0000275

 ------------------------------------------------------------------------------------

*** tstop() called on Joses-MacBook-Pro-2.local at Wed Jul 16 18:27:23 2025
Module time:
	user time   =       2.53 seconds =       0.04 minutes
	system time =       2.35 seconds =       0.04 minutes
	total time  =          0 seconds =       0.00 minutes
Total time:
	user time   =      74.56 seconds =       1.24 minutes
	system time =      84.64 seconds =       1.41 minutes
	total time  =         15 seconds =       0.25 minutes

*** tstart() called on Joses-MacBook-Pro-2.local
*** at Wed Jul 16 18:27:23 2025

         ------------------------------------------------------------
                                   SCF GRAD
                          Rob Parrish, Justin Turney,
                       Andy Simmonett, and Alex Sokolov
         ------------------------------------------------------------

  ==> Geometry <==

    Molecular point group: c2v
    Full point group: C_inf_v

    Geometry (in Angstrom), charge = 0, multiplicity = 1:

       Center              X                  Y                   Z               Mass
    ------------   -----------------  -----------------  -----------------  -----------------
         HE           0.000000000000     0.000000000000     3.757087258129     4.002603254130
         AR           0.000000000000     0.000000000000    -0.376307129605    39.962383123700

  Nuclear repulsion =    4.608894723585213

  ==> Basis Set <==

  Basis Set: CC-PVDZ
    Blend: CC-PVDZ
    Number of shells: 11
    Number of basis functions: 23
    Number of Cartesian functions: 24
    Spherical Harmonics?: true
    Max angular momentum: 2

  ==> DFJKGrad: Density-Fitted SCF Gradients <==

    Gradient:                    1
    J tasked:                  Yes
    K tasked:                  Yes
    wK tasked:                  No
    OpenMP threads:              1
    Integrals threads:           1
    Memory [MiB]:              375
    Schwarz Cutoff:          1E-12
    Fitting Condition:       1E-10

   => Auxiliary Basis Set <=

  Basis Set: (CC-PVDZ AUX)
    Blend: CC-PVDZ-JKFIT + DEF2-UNIVERSAL-JKFIT
    Number of shells: 45
    Number of basis functions: 135
    Number of Cartesian functions: 155
    Spherical Harmonics?: true
    Max angular momentum: 3

  ==> DFT Potential <==

   => LibXC <=

    Version 6.2.2
    S. Lehtola, C. Steigemann, M. J.T. Oliveira, and M. A.L. Marques.,  SoftwareX 7, 1â€“5 (2018) (10.1016/j.softx.2017.11.002)

   => Composite Functional: B3LYP <=

    B3LYP Hyb-GGA Exchange-Correlation Functional

    P. J. Stephens, F. J. Devlin, C. F. Chabalowski, and M. J. Frisch.,  J. Phys. Chem. 98, 11623 (1994) (10.1021/j100096a001)

    Deriv               =              1
    GGA                 =           TRUE
    Meta                =          FALSE

    Exchange Hybrid     =           TRUE
    MP2 Hybrid          =          FALSE

   => Exchange Functionals <=

    0.0800   Slater exchange
    0.7200         Becke 88

   => Exact (HF) Exchange <=

    0.2000               HF

   => Correlation Functionals <=

    0.1900   Vosko, Wilk & Nusair (VWN5_RPA)
    0.8100   Lee, Yang & Parr

   => LibXC Density Thresholds  <==

    XC_HYB_GGA_XC_B3LYP:  1.00E-15

   => Molecular Quadrature <=

    Radial Scheme          =       TREUTLER
    Pruning Scheme         =           NONE
    Nuclear Scheme         =       TREUTLER

    Blocking Scheme        =         OCTREE
    BS radius alpha        =              1
    Pruning alpha          =              1
    Radial Points          =             75
    Spherical Points       =            302
    Total Points           =          42022
    Total Blocks           =            402
    Max Points             =            256
    Max Functions          =             23
    Weights Tolerance      =       1.00E-15

  -Total Gradient:
     Atom            X                  Y                   Z
    ------   -----------------  -----------------  -----------------
       1        0.000000000000     0.000000000000    -0.000018804938
       2        0.000000000000     0.000000000000     0.000023123200

*** tstop() called on Joses-MacBook-Pro-2.local at Wed Jul 16 18:27:23 2025
Module time:
	user time   =       0.57 seconds =       0.01 minutes
	system time =       0.74 seconds =       0.01 minutes
	total time  =          0 seconds =       0.00 minutes
Total time:
	user time   =      75.13 seconds =       1.25 minutes
	system time =      85.38 seconds =       1.42 minutes
	total time  =         15 seconds =       0.25 minutes

    			-----------------------------------------

    			 OPTKING 3.0: for geometry optimizations

    			     By R.A. King, Bethel University

    			        with contributions from

    			    A.V. Copan, J. Cayton, A. Heide

    			-----------------------------------------

	                            ===> Fragment 1 <==

	 Z (Atomic Numbers)          Masses                          Geom
	       2.000000             4.002603          0.00000000  0.00000000  7.09986595
	      18.000000            39.962383          0.00000000  0.00000000 -0.71111741

	 - Coordinate -           - BOHR/RAD -       - ANG/DEG -
	 R(1,2)           =         7.810983           4.133394

	        --- Internal Coordinate Step in ANG or DEG, aJ/ANG or AJ/DEG ---
	-------------------------------------------------------------------------------
	           Coordinate      Previous         Force          Change          New
	           ----------      --------        ------          ------        ------
	               R(1,2)       4.13339        0.00017        0.00008       4.13348
	-------------------------------------------------------------------------------

	                                 ==> Convergence Check <==

	Measures of convergence in internal coordinates in au.

	Criteria marked as inactive (o), active & met (*), and active & unmet ( ).

	----------------------------------------------------------------------------------------------
	   Step    Total Energy     Delta E     Max Force     RMS Force      Max Disp      RMS Disp
	----------------------------------------------------------------------------------------------
	  Convergence Criteria     1.00e-06 *    3.00e-04 *             o    1.20e-03 *             o
	----------------------------------------------------------------------------------------------
	    22    -530.44937983   -1.08e-05      2.10e-05 *    2.10e-05 o    1.56e-04 *    1.56e-04 o  ~
	----------------------------------------------------------------------------------------------

Next Geometry in Ang
	Fragment 1 (Ang)

	   He   0.0000000000   0.0000000000   3.7571285687
	   Ar   0.0000000000   0.0000000000  -0.3763484402

    Final optimized geometry and variables:
    Molecular point group: c2v
    Full point group: C_inf_v

    Geometry (in Angstrom), charge = 0, multiplicity = 1:

    HE           0.000000000000     0.000000000000     3.757087258129
    AR           0.000000000000     0.000000000000    -0.376307129605

    Psi4 stopped on: Wednesday, 16 July 2025 06:27PM
    Psi4 wall time for execution: 0:00:15.77

*** Psi4 exiting successfully. Buy a developer a beer!
