                               Psi4 1.9.1 release

  ==> Input File <==

--------------------------------------------------------------------------
molecule {
0 1
Ar   0.00000        0.60000        0.00000
Ar   0.00000       -0.60000        0.00000
}

set {
basis              cc-pvdz
reference          uks
maxiter            500
geom_maxiter       500
DAMPING_PERCENTAGE 1
guess              SAP
}

optimize('b3lyp')
--------------------------------------------------------------------------

    Molecular point group: d2h
  Charge       = 0
  Multiplicity = 1
  Basis Set: CC-PVDZ
    Blend: CC-PVDZ
  Basis Set: (CC-PVDZ AUX)
    Blend: CC-PVDZ-JKFIT
  @DF-UKS Final Energy: -1052.88394913341426
    Total Energy =                      -1052.8839491334142622
 Dipole X            :          0.0000000            0.0000000            0.0000000
 Dipole Y            :          0.0000000            0.0000000            0.0000000
 Dipole Z            :          0.0000000            0.0000000            0.0000000
 Magnitude           :                                                    0.0000000
    Molecular point group: d2h
  Basis Set: CC-PVDZ
    Blend: CC-PVDZ
  Basis Set: (CC-PVDZ AUX)
    Blend: CC-PVDZ-JKFIT
  Basis Set: CC-PVDZ
    Blend: CC-PVDZ
  Basis Set: (CC-PVDZ AUX)
    Blend: CC-PVDZ-JKFIT
  @DF-UKS Final Energy: -1052.94918014146106
    Total Energy =                      -1052.9491801414610563
  Basis Set: CC-PVDZ
    Blend: CC-PVDZ
  Basis Set: (CC-PVDZ AUX)
    Blend: CC-PVDZ-JKFIT
  Basis Set: CC-PVDZ
    Blend: CC-PVDZ
  @DF-UKS Final Energy: -1053.06868488064856
    Total Energy =                      -1053.0686848806485614
  @DF-UKS Final Energy: -1053.44701892771309
    Total Energy =                      -1053.4470189277130885
  @DF-UKS Final Energy: -1054.18535367440927
    Total Energy =                      -1054.1853536744092708
  @DF-UKS Final Energy: -1054.54897283539026
    Total Energy =                      -1054.5489728353902592
  @DF-UKS Final Energy: -1054.79776891575534
    Total Energy =                      -1054.7977689157553414
  @DF-UKS Final Energy: -1054.94052672709245
    Total Energy =                      -1054.9405267270924469
  @DF-UKS Final Energy: -1055.01116067456451
    Total Energy =                      -1055.0111606745645076
  @DF-UKS Final Energy: -1055.04752655040647
    Total Energy =                      -1055.0475265504064737
  @DF-UKS Final Energy: -1055.06601937656342
    Total Energy =                      -1055.0660193765634176
  @DF-UKS Final Energy: -1055.07532291257849
    Total Energy =                      -1055.0753229125784856
  @DF-UKS Final Energy: -1055.07997672288548
    Total Energy =                      -1055.0799767228854762
  @DF-UKS Final Energy: -1055.08230371164427
    Total Energy =                      -1055.0823037116440446
  @DF-UKS Final Energy: -1055.08346241638469
    Total Energy =                      -1055.0834624163846911
  @DF-UKS Final Energy: -1055.08403247785100
    Total Energy =                      -1055.0840324778509967
  @DF-UKS Final Energy: -1055.08430719997955
    Total Energy =                      -1055.0843071999793210
  @DF-UKS Final Energy: -1055.08443614425369
    Total Energy =                      -1055.0844361442536865
  @DF-UKS Final Energy: -1055.08449436149567
    Total Energy =                      -1055.0844943614956719
  @DF-UKS Final Energy: -1055.08451942985516
    Total Energy =                      -1055.0845194298549359
  @DF-UKS Final Energy: -1055.08452826530038
    Total Energy =                      -1055.0845282653001505
  @DF-UKS Final Energy: -1055.08453306264596
    Total Energy =                      -1055.0845330626461873
  @DF-UKS Final Energy: -1055.08453658850658
    Total Energy =                      -1055.0845365885065803
  @DF-UKS Final Energy: -1055.08453965614126
    Total Energy =                      -1055.0845396561412599
  Basis Set: (CC-PVDZ AUX)
    Blend: CC-PVDZ-JKFIT
  Basis Set: CC-PVDZ
    Blend: CC-PVDZ
  Basis Set: (CC-PVDZ AUX)
    Blend: CC-PVDZ-JKFIT
  @DF-UKS Final Energy: -1055.08454285781932
    Total Energy =                      -1055.0845428578193150
  Basis Set: CC-PVDZ
    Blend: CC-PVDZ
  Basis Set: (CC-PVDZ AUX)
    Blend: CC-PVDZ-JKFIT
  Charge       = 0
  Multiplicity = 1
  Basis Set: CC-PVDZ
    Blend: CC-PVDZ
  Basis Set: (CC-PVDZ AUX)
    Blend: CC-PVDZ-JKFIT

    Orbital Energies [Eh]
    ---------------------

    Alpha Occupied:

       1B2u -115.097824     1Ag  -115.097824     2B2u  -11.133904
       2Ag   -11.133903     1B1g   -8.683773     1B3g   -8.683773
       1B3u   -8.683773     1B1u   -8.683773     3B2u   -8.683773
       3Ag    -8.683773     4Ag    -0.962186     4B2u   -0.962148
       5Ag    -0.420587     2B1u   -0.419965     2B3u   -0.419965
       2B3g   -0.419854     2B1g   -0.419854     5B2u   -0.419226

    Alpha Virtual:

       6Ag     0.572713     3B1u    0.582906     3B3u    0.582906
       3B3g    0.584634     3B1g    0.584634     6B2u    0.595014
       7Ag     0.728353     7B2u    0.729265     4B3g    0.837996
       4B1g    0.837996     4B1u    0.837996     4B3u    0.837996
       1Au     0.837996     1B2g    0.837996     8Ag     0.838011
       8B2u    0.838012     9B2u    0.838015     9Ag     0.838015

    Beta Occupied:

       1B2u -115.097824     1Ag  -115.097824     2B2u  -11.133904
       2Ag   -11.133903     1B1g   -8.683773     1B3g   -8.683773
       1B3u   -8.683773     1B1u   -8.683773     3B2u   -8.683773
       3Ag    -8.683773     4Ag    -0.962186     4B2u   -0.962148
       5Ag    -0.420587     2B1u   -0.419965     2B3u   -0.419965
       2B3g   -0.419854     2B1g   -0.419854     5B2u   -0.419226

    Beta Virtual:

       6Ag     0.572713     3B1u    0.582906     3B3u    0.582906
       3B3g    0.584634     3B1g    0.584634     6B2u    0.595014
       7Ag     0.728353     7B2u    0.729265     4B3g    0.837996
       4B1g    0.837996     4B1u    0.837996     4B3u    0.837996
       1Au     0.837996     1B2g    0.837996     8Ag     0.838011
       8B2u    0.838012     9B2u    0.838015     9Ag     0.838015

    Final Occupation by Irrep:
             Ag   B1g   B2g   B3g    Au   B1u   B2u   B3u
    DOCC [     5,    2,    0,    2,    0,    2,    5,    2 ]
    SOCC [     0,    0,    0,    0,    0,    0,    0,    0 ]
    NA   [     5,    2,    0,    2,    0,    2,    5,    2 ]
    NB   [     5,    2,    0,    2,    0,    2,    5,    2 ]

  @DF-UKS Final Energy: -1055.08456552777238

   => Energetics <=

    Nuclear Repulsion Energy =             35.0409863581828560
    One-Electron Energy =               -1526.8859711851318934
    Two-Electron Energy =                 486.5430018317815666
    DFT Exchange-Correlation Energy =     -49.7825825326050477
    Empirical Dispersion Energy =           0.0000000000000000
    VV10 Nonlocal Energy =                  0.0000000000000000
    Total Energy =                      -1055.0845655277726109

  UHF NO Occupations:
  HONO-2 :    4B2u 2.0000000
  HONO-1 :    5 Ag 2.0000000
  HONO-0 :    5B2u 2.0000000
  LUNO+0 :    6 Ag 0.0000000
  LUNO+1 :    6B2u 0.0000000
  LUNO+2 :    3B3g 0.0000000
  LUNO+3 :    3B1g 0.0000000

Computation Completed

Properties will be evaluated at   0.000000,   0.000000,   0.000000 [a0]

Properties computed using the SCF density matrix

 Multipole Moments:

 ------------------------------------------------------------------------------------
     Multipole            Electronic (a.u.)      Nuclear  (a.u.)        Total (a.u.)
 ------------------------------------------------------------------------------------

 L = 1.  Multiply by 2.5417464519 to convert [e a0] to [Debye]
 Dipole X            :          0.0000000            0.0000000            0.0000000
 Dipole Y            :          0.0000000            0.0000000            0.0000000
 Dipole Z            :          0.0000000            0.0000000            0.0000000
 Magnitude           :                                                    0.0000000

 ------------------------------------------------------------------------------------

*** tstop() called on Joses-MacBook-Pro-2.local at Wed Jul 16 20:34:44 2025
Module time:
	user time   =       2.77 seconds =       0.05 minutes
	system time =       2.47 seconds =       0.04 minutes
	total time  =          1 seconds =       0.02 minutes
Total time:
	user time   =     193.21 seconds =       3.22 minutes
	system time =     104.32 seconds =       1.74 minutes
	total time  =         28 seconds =       0.47 minutes

*** tstart() called on Joses-MacBook-Pro-2.local
*** at Wed Jul 16 20:34:44 2025

         ------------------------------------------------------------
                                   SCF GRAD
                          Rob Parrish, Justin Turney,
                       Andy Simmonett, and Alex Sokolov
         ------------------------------------------------------------

  ==> Geometry <==

    Molecular point group: d2h
    Full point group: D_inf_h

    Geometry (in Angstrom), charge = 0, multiplicity = 1:

       Center              X                  Y                   Z               Mass
    ------------   -----------------  -----------------  -----------------  -----------------
         AR          -0.000000000000     2.446469607113     0.000000000000    39.962383123700
         AR           0.000000000000    -2.446469607113     0.000000000000    39.962383123700

  Nuclear repulsion =   35.040986358182856

  ==> Basis Set <==

  Basis Set: CC-PVDZ
    Blend: CC-PVDZ
    Number of shells: 16
    Number of basis functions: 36
    Number of Cartesian functions: 38
    Spherical Harmonics?: true
    Max angular momentum: 2

  ==> DFJKGrad: Density-Fitted SCF Gradients <==

    Gradient:                    1
    J tasked:                  Yes
    K tasked:                  Yes
    wK tasked:                  No
    OpenMP threads:              1
    Integrals threads:           1
    Memory [MiB]:              375
    Schwarz Cutoff:          1E-12
    Fitting Condition:       1E-10

   => Auxiliary Basis Set <=

  Basis Set: (CC-PVDZ AUX)
    Blend: CC-PVDZ-JKFIT
    Number of shells: 72
    Number of basis functions: 224
    Number of Cartesian functions: 260
    Spherical Harmonics?: true
    Max angular momentum: 3

  ==> DFT Potential <==

   => LibXC <=

    Version 6.2.2
    S. Lehtola, C. Steigemann, M. J.T. Oliveira, and M. A.L. Marques.,  SoftwareX 7, 1â€“5 (2018) (10.1016/j.softx.2017.11.002)

   => Composite Functional: B3LYP <=

    B3LYP Hyb-GGA Exchange-Correlation Functional

    P. J. Stephens, F. J. Devlin, C. F. Chabalowski, and M. J. Frisch.,  J. Phys. Chem. 98, 11623 (1994) (10.1021/j100096a001)

    Deriv               =              1
    GGA                 =           TRUE
    Meta                =          FALSE

    Exchange Hybrid     =           TRUE
    MP2 Hybrid          =          FALSE

   => Exchange Functionals <=

    0.0800   Slater exchange
    0.7200         Becke 88

   => Exact (HF) Exchange <=

    0.2000               HF

   => Correlation Functionals <=

    0.1900   Vosko, Wilk & Nusair (VWN5_RPA)
    0.8100   Lee, Yang & Parr

   => LibXC Density Thresholds  <==

    XC_HYB_GGA_XC_B3LYP:  1.00E-15

   => Molecular Quadrature <=

    Radial Scheme          =       TREUTLER
    Pruning Scheme         =           NONE
    Nuclear Scheme         =       TREUTLER

    Blocking Scheme        =         OCTREE
    BS radius alpha        =              1
    Pruning alpha          =              1
    Radial Points          =             75
    Spherical Points       =            302
    Total Points           =          39398
    Total Blocks           =            368
    Max Points             =            256
    Max Functions          =             36
    Weights Tolerance      =       1.00E-15

  -Total Gradient:
     Atom            X                  Y                   Z
    ------   -----------------  -----------------  -----------------
       1        0.000000000000    -0.000022515199     0.000000000000
       2       -0.000000000000     0.000022515199     0.000000000000

*** tstop() called on Joses-MacBook-Pro-2.local at Wed Jul 16 20:34:44 2025
Module time:
	user time   =       0.92 seconds =       0.02 minutes
	system time =       1.54 seconds =       0.03 minutes
	total time  =          0 seconds =       0.00 minutes
Total time:
	user time   =     194.13 seconds =       3.24 minutes
	system time =     105.87 seconds =       1.76 minutes
	total time  =         28 seconds =       0.47 minutes

    			-----------------------------------------

    			 OPTKING 3.0: for geometry optimizations

    			     By R.A. King, Bethel University

    			        with contributions from

    			    A.V. Copan, J. Cayton, A. Heide

    			-----------------------------------------

	                            ===> Fragment 1 <==

	 Z (Atomic Numbers)          Masses                          Geom
	      18.000000            39.962383         -0.00000000  4.62315753  0.00000000
	      18.000000            39.962383          0.00000000 -4.62315753  0.00000000

	 - Coordinate -           - BOHR/RAD -       - ANG/DEG -
	 R(1,2)           =         9.246315           4.892939

	        --- Internal Coordinate Step in ANG or DEG, aJ/ANG or AJ/DEG ---
	-------------------------------------------------------------------------------
	           Coordinate      Previous         Force          Change          New
	           ----------      --------        ------          ------        ------
	               R(1,2)       4.89294        0.00019        0.00002       4.89296
	-------------------------------------------------------------------------------

	                                 ==> Convergence Check <==

	Measures of convergence in internal coordinates in au.

	Criteria marked as inactive (o), active & met (*), and active & unmet ( ).

	----------------------------------------------------------------------------------------------
	   Step    Total Energy     Delta E     Max Force     RMS Force      Max Disp      RMS Disp
	----------------------------------------------------------------------------------------------
	  Convergence Criteria     1.00e-06 *    3.00e-04 *             o    1.20e-03 *             o
	----------------------------------------------------------------------------------------------
	    26   -1055.08456553   -2.27e-05      2.25e-05 *    2.25e-05 o    4.13e-05 *    4.13e-05 o  ~
	----------------------------------------------------------------------------------------------

Next Geometry in Ang
	Fragment 1 (Ang)

	   Ar  -0.0000000000   2.4464805374   0.0000000000
	   Ar   0.0000000000  -2.4464805374   0.0000000000

    Final optimized geometry and variables:
    Molecular point group: d2h
    Full point group: D_inf_h

    Geometry (in Angstrom), charge = 0, multiplicity = 1:

    AR          -0.000000000000     2.446469607113     0.000000000000
    AR           0.000000000000    -2.446469607113     0.000000000000

    Psi4 stopped on: Wednesday, 16 July 2025 08:34PM
    Psi4 wall time for execution: 0:00:29.17

*** Psi4 exiting successfully. Buy a developer a beer!
