                               Psi4 1.9.1 release

  ==> Input File <==

--------------------------------------------------------------------------
molecule {
0 1
O   0.00000        0.60000        0.00000
Ar   0.00000       -0.60000        0.00000
}

set {
basis              cc-pvdz
reference          uks
maxiter            500
geom_maxiter       500
DAMPING_PERCENTAGE 1
guess              SAP
}

optimize('b3lyp')
--------------------------------------------------------------------------

    Molecular point group: c2v
  Charge       = 0
  Multiplicity = 1
  Basis Set: CC-PVDZ
    Blend: CC-PVDZ
  Basis Set: (CC-PVDZ AUX)
    Blend: CC-PVDZ-JKFIT
  @DF-UKS Final Energy:  -602.22887823099586
    Total Energy =                       -602.2288782309958606
 Dipole X            :          0.0000000            0.0000000            0.0000000
 Dipole Y            :          0.0000000            0.0000000            0.0000000
 Dipole Z            :         -2.3533803            1.2883152           -1.0650651
 Magnitude           :                                                    1.0650651
    Molecular point group: c2v
  Basis Set: CC-PVDZ
    Blend: CC-PVDZ
  Basis Set: (CC-PVDZ AUX)
    Blend: CC-PVDZ-JKFIT
  Basis Set: CC-PVDZ
    Blend: CC-PVDZ
  Basis Set: (CC-PVDZ AUX)
    Blend: CC-PVDZ-JKFIT
  @DF-UKS Final Energy:  -602.37814262418613
    Total Energy =                       -602.3781426241861254
  Basis Set: CC-PVDZ
    Blend: CC-PVDZ
  Basis Set: (CC-PVDZ AUX)
    Blend: CC-PVDZ-JKFIT
  Basis Set: CC-PVDZ
    Blend: CC-PVDZ
  @DF-UKS Final Energy:  -602.45945902537005
    Total Energy =                       -602.4594590253700517
  @DF-UKS Final Energy:  -602.49161219818529
    Total Energy =                       -602.4916121981854076
  @DF-UKS Final Energy:  -602.51296823805137
    Total Energy =                       -602.5129682380512577
  @DF-UKS Final Energy:  -602.52528885638992
    Total Energy =                       -602.5252888563899205
  @DF-UKS Final Energy:  -602.53063123022412
    Total Energy =                       -602.5306312302241167
  @DF-UKS Final Energy:  -602.53267200736684
    Total Energy =                       -602.5326720073668412
  @DF-UKS Final Energy:  -602.53318559678110
    Total Energy =                       -602.5331855967810952
  @DF-UKS Final Energy:  -602.53336082789031
    Total Energy =                       -602.5333608278903057
  @DF-UKS Final Energy:  -602.53339216684617
    Total Energy =                       -602.5333921668460562
  Basis Set: (CC-PVDZ AUX)
    Blend: CC-PVDZ-JKFIT
  Basis Set: CC-PVDZ
    Blend: CC-PVDZ
  Basis Set: (CC-PVDZ AUX)
    Blend: CC-PVDZ-JKFIT
  @DF-UKS Final Energy:  -602.53339878104100
    Total Energy =                       -602.5333987810410008
  Basis Set: CC-PVDZ
    Blend: CC-PVDZ
  Basis Set: (CC-PVDZ AUX)
    Blend: CC-PVDZ-JKFIT
  Charge       = 0
  Multiplicity = 1
  Basis Set: CC-PVDZ
    Blend: CC-PVDZ
  Basis Set: (CC-PVDZ AUX)
    Blend: CC-PVDZ-JKFIT

    Orbital Energies [Eh]
    ---------------------

    Alpha Occupied:

       1A1  -115.181939     2A1   -19.177321     3A1   -11.217539
       4A1    -8.771270     1B1    -8.765403     1B2    -8.765403
       5A1    -1.055220     6A1    -0.868015     7A1    -0.501281
       2B2    -0.488488     2B1    -0.488488     3B1    -0.275766
       3B2    -0.275766

    Alpha Virtual:

       8A1    -0.148474     9A1     0.517120     4B1     0.547089
       4B2     0.547089    10A1     0.694099     5B2     0.723039
       5B1     0.723039     1A2     0.772136    11A1     0.772136
      12A1     0.856877     6B1     1.013164     6B2     1.013164
      13A1     1.016668    14A1     1.584438     7B2     2.598839
       7B1     2.598839     2A2     2.632575    15A1     2.632602
      16A1     2.751019

    Beta Occupied:

       1A1  -115.181939     2A1   -19.177321     3A1   -11.217539
       4A1    -8.771270     1B1    -8.765403     1B2    -8.765403
       5A1    -1.055220     6A1    -0.868015     7A1    -0.501281
       2B1    -0.488488     2B2    -0.488488     3B1    -0.275766
       3B2    -0.275766

    Beta Virtual:

       8A1    -0.148474     9A1     0.517120     4B1     0.547089
       4B2     0.547089    10A1     0.694099     5B2     0.723039
       5B1     0.723039     1A2     0.772136    11A1     0.772136
      12A1     0.856877     6B1     1.013164     6B2     1.013164
      13A1     1.016668    14A1     1.584438     7B2     2.598839
       7B1     2.598839     2A2     2.632575    15A1     2.632602
      16A1     2.751019

    Final Occupation by Irrep:
             A1    A2    B1    B2
    DOCC [     7,    0,    3,    3 ]
    SOCC [     0,    0,    0,    0 ]
    NA   [     7,    0,    3,    3 ]
    NB   [     7,    0,    3,    3 ]

  @DF-UKS Final Energy:  -602.53339935696988

   => Energetics <=

    Nuclear Repulsion Energy =             39.6571963359550281
    One-Electron Energy =                -910.1148905845766421
    Two-Electron Energy =                 299.6722982851495090
    DFT Exchange-Correlation Energy =     -31.7480033934978643
    Empirical Dispersion Energy =           0.0000000000000000
    VV10 Nonlocal Energy =                  0.0000000000000000
    Total Energy =                       -602.5333993569698805

  UHF NO Occupations:
  HONO-2 :    2 B2 2.0000000
  HONO-1 :    7 A1 2.0000000
  HONO-0 :    3 B2 2.0000000
  LUNO+0 :    8 A1 0.0000000
  LUNO+1 :    9 A1 0.0000000
  LUNO+2 :   10 A1 0.0000000
  LUNO+3 :   11 A1 0.0000000

Computation Completed

Properties will be evaluated at   0.000000,   0.000000,   0.000000 [a0]

Properties computed using the SCF density matrix

 Multipole Moments:

 ------------------------------------------------------------------------------------
     Multipole            Electronic (a.u.)      Nuclear  (a.u.)        Total (a.u.)
 ------------------------------------------------------------------------------------

 L = 1.  Multiply by 2.5417464519 to convert [e a0] to [Debye]
 Dipole X            :          0.0000000            0.0000000            0.0000000
 Dipole Y            :          0.0000000            0.0000000            0.0000000
 Dipole Z            :         -3.0793981            2.0629205           -1.0164776
 Magnitude           :                                                    1.0164776

 ------------------------------------------------------------------------------------

*** tstop() called on Joses-MacBook-Pro-2.local at Wed Jul 16 19:24:17 2025
Module time:
	user time   =       3.30 seconds =       0.06 minutes
	system time =       3.75 seconds =       0.06 minutes
	total time  =          0 seconds =       0.00 minutes
Total time:
	user time   =      58.62 seconds =       0.98 minutes
	system time =      68.38 seconds =       1.14 minutes
	total time  =         12 seconds =       0.20 minutes

*** tstart() called on Joses-MacBook-Pro-2.local
*** at Wed Jul 16 19:24:17 2025

         ------------------------------------------------------------
                                   SCF GRAD
                          Rob Parrish, Justin Turney,
                       Andy Simmonett, and Alex Sokolov
         ------------------------------------------------------------

  ==> Geometry <==

    Molecular point group: c2v
    Full point group: C_inf_v

    Geometry (in Angstrom), charge = 0, multiplicity = 1:

       Center              X                  Y                   Z               Mass
    ------------   -----------------  -----------------  -----------------  -----------------
         O            0.000000000000     0.000000000000     1.372259553355    15.994914619570
         AR           0.000000000000     0.000000000000    -0.549245882656    39.962383123700

  Nuclear repulsion =   39.657196335955028

  ==> Basis Set <==

  Basis Set: CC-PVDZ
    Blend: CC-PVDZ
    Number of shells: 14
    Number of basis functions: 32
    Number of Cartesian functions: 34
    Spherical Harmonics?: true
    Max angular momentum: 2

  ==> DFJKGrad: Density-Fitted SCF Gradients <==

    Gradient:                    1
    J tasked:                  Yes
    K tasked:                  Yes
    wK tasked:                  No
    OpenMP threads:              1
    Integrals threads:           1
    Memory [MiB]:              375
    Schwarz Cutoff:          1E-12
    Fitting Condition:       1E-10

   => Auxiliary Basis Set <=

  Basis Set: (CC-PVDZ AUX)
    Blend: CC-PVDZ-JKFIT
    Number of shells: 60
    Number of basis functions: 182
    Number of Cartesian functions: 211
    Spherical Harmonics?: true
    Max angular momentum: 3

  ==> DFT Potential <==

   => LibXC <=

    Version 6.2.2
    S. Lehtola, C. Steigemann, M. J.T. Oliveira, and M. A.L. Marques.,  SoftwareX 7, 1â€“5 (2018) (10.1016/j.softx.2017.11.002)

   => Composite Functional: B3LYP <=

    B3LYP Hyb-GGA Exchange-Correlation Functional

    P. J. Stephens, F. J. Devlin, C. F. Chabalowski, and M. J. Frisch.,  J. Phys. Chem. 98, 11623 (1994) (10.1021/j100096a001)

    Deriv               =              1
    GGA                 =           TRUE
    Meta                =          FALSE

    Exchange Hybrid     =           TRUE
    MP2 Hybrid          =          FALSE

   => Exchange Functionals <=

    0.0800   Slater exchange
    0.7200         Becke 88

   => Exact (HF) Exchange <=

    0.2000               HF

   => Correlation Functionals <=

    0.1900   Vosko, Wilk & Nusair (VWN5_RPA)
    0.8100   Lee, Yang & Parr

   => LibXC Density Thresholds  <==

    XC_HYB_GGA_XC_B3LYP:  1.00E-15

   => Molecular Quadrature <=

    Radial Scheme          =       TREUTLER
    Pruning Scheme         =           NONE
    Nuclear Scheme         =       TREUTLER

    Blocking Scheme        =         OCTREE
    BS radius alpha        =              1
    Pruning alpha          =              1
    Radial Points          =             75
    Spherical Points       =            302
    Total Points           =          41053
    Total Blocks           =            364
    Max Points             =            254
    Max Functions          =             32
    Weights Tolerance      =       1.00E-15

  -Total Gradient:
     Atom            X                  Y                   Z
    ------   -----------------  -----------------  -----------------
       1        0.000000000000     0.000000000000    -0.000074727604
       2        0.000000000000     0.000000000000     0.000039645088

*** tstop() called on Joses-MacBook-Pro-2.local at Wed Jul 16 19:24:18 2025
Module time:
	user time   =       1.08 seconds =       0.02 minutes
	system time =       2.16 seconds =       0.04 minutes
	total time  =          1 seconds =       0.02 minutes
Total time:
	user time   =      59.71 seconds =       1.00 minutes
	system time =      70.54 seconds =       1.18 minutes
	total time  =         13 seconds =       0.22 minutes

    			-----------------------------------------

    			 OPTKING 3.0: for geometry optimizations

    			     By R.A. King, Bethel University

    			        with contributions from

    			    A.V. Copan, J. Cayton, A. Heide

    			-----------------------------------------

	                            ===> Fragment 1 <==

	 Z (Atomic Numbers)          Masses                          Geom
	       8.000000            15.994915          0.00000000  0.00000000  2.59319473
	      18.000000            39.962383          0.00000000  0.00000000 -1.03792429

	 - Coordinate -           - BOHR/RAD -       - ANG/DEG -
	 R(1,2)           =         3.631119           1.921505

	        --- Internal Coordinate Step in ANG or DEG, aJ/ANG or AJ/DEG ---
	-------------------------------------------------------------------------------
	           Coordinate      Previous         Force          Change          New
	           ----------      --------        ------          ------        ------
	               R(1,2)       1.92151        0.00047        0.00042       1.92193
	-------------------------------------------------------------------------------

	                                 ==> Convergence Check <==

	Measures of convergence in internal coordinates in au.

	Criteria marked as inactive (o), active & met (*), and active & unmet ( ).

	----------------------------------------------------------------------------------------------
	   Step    Total Energy     Delta E     Max Force     RMS Force      Max Disp      RMS Disp
	----------------------------------------------------------------------------------------------
	  Convergence Criteria     1.00e-06 *    3.00e-04 *             o    1.20e-03 *             o
	----------------------------------------------------------------------------------------------
	    13    -602.53339936   -5.76e-07 *    5.72e-05 *    5.72e-05 o    7.94e-04 *    7.94e-04 o  ~
	----------------------------------------------------------------------------------------------

Next Geometry in Ang
	Fragment 1 (Ang)

	    O   0.0000000000   0.0000000000   1.3724696345
	   Ar   0.0000000000   0.0000000000  -0.5494559638

    Final optimized geometry and variables:
    Molecular point group: c2v
    Full point group: C_inf_v

    Geometry (in Angstrom), charge = 0, multiplicity = 1:

    O            0.000000000000     0.000000000000     1.372259553355
    AR           0.000000000000     0.000000000000    -0.549245882656

    Psi4 stopped on: Wednesday, 16 July 2025 07:24PM
    Psi4 wall time for execution: 0:00:13.09

*** Psi4 exiting successfully. Buy a developer a beer!
