                               Psi4 1.9.1 release

  ==> Input File <==

--------------------------------------------------------------------------
molecule {
0 1
Si   0.00000        0.60000        0.00000
Si   0.00000       -0.60000        0.00000
}

set {
basis              cc-pvdz
reference          uks
maxiter            500
geom_maxiter       500
DAMPING_PERCENTAGE 1
guess              SAP
}

optimize('b3lyp')
--------------------------------------------------------------------------

    Molecular point group: d2h
  Charge       = 0
  Multiplicity = 1
  Basis Set: CC-PVDZ
    Blend: CC-PVDZ
  Basis Set: (CC-PVDZ AUX)
    Blend: CC-PVDZ-JKFIT
  @DF-UKS Final Energy:  -577.82440398257563
    Total Energy =                       -577.8244039825756317
 Dipole X            :          0.0000000            0.0000000            0.0000000
 Dipole Y            :          0.0000000            0.0000000            0.0000000
 Dipole Z            :          0.0000000            0.0000000            0.0000000
 Magnitude           :                                                    0.0000000
    Molecular point group: d2h
  Basis Set: CC-PVDZ
    Blend: CC-PVDZ
  Basis Set: (CC-PVDZ AUX)
    Blend: CC-PVDZ-JKFIT
  Basis Set: CC-PVDZ
    Blend: CC-PVDZ
  Basis Set: (CC-PVDZ AUX)
    Blend: CC-PVDZ-JKFIT
  @DF-UKS Final Energy:  -577.84392270820354
    Total Energy =                       -577.8439227082036496
  Basis Set: CC-PVDZ
    Blend: CC-PVDZ
  Basis Set: (CC-PVDZ AUX)
    Blend: CC-PVDZ-JKFIT
  Basis Set: CC-PVDZ
    Blend: CC-PVDZ
  @DF-UKS Final Energy:  -577.88140635110210
    Total Energy =                       -577.8814063511021004
  @DF-UKS Final Energy:  -578.01522540529800
    Total Energy =                       -578.0152254052979970
  @DF-UKS Final Energy:  -578.53408392504616
    Total Energy =                       -578.5340839250460476
  @DF-UKS Final Energy:  -578.72036432248069
    Total Energy =                       -578.7203643224806910
  @DF-UKS Final Energy:  -578.80716590635996
    Total Energy =                       -578.8071659063599554
  @DF-UKS Final Energy:  -578.83753884972407
    Total Energy =                       -578.8375388497240692
  @DF-UKS Final Energy:  -578.84647611112246
    Total Energy =                       -578.8464761111223424
  @DF-UKS Final Energy:  -578.84792306728832
    Total Energy =                       -578.8479230672883205
  @DF-UKS Final Energy:  -578.84819466747877
    Total Energy =                       -578.8481946674787650
  @DF-UKS Final Energy:  -578.84825889368119
    Total Energy =                       -578.8482588936811908
  Basis Set: (CC-PVDZ AUX)
    Blend: CC-PVDZ-JKFIT
  Basis Set: CC-PVDZ
    Blend: CC-PVDZ
  Basis Set: (CC-PVDZ AUX)
    Blend: CC-PVDZ-JKFIT
  @DF-UKS Final Energy:  -578.84826442504539
    Total Energy =                       -578.8482644250454996
  Basis Set: CC-PVDZ
    Blend: CC-PVDZ
  Basis Set: (CC-PVDZ AUX)
    Blend: CC-PVDZ-JKFIT
  Charge       = 0
  Multiplicity = 1
  Basis Set: CC-PVDZ
    Blend: CC-PVDZ
  Basis Set: (CC-PVDZ AUX)
    Blend: CC-PVDZ-JKFIT

    Orbital Energies [Eh]
    ---------------------

    Alpha Occupied:

       1B2u  -66.175519     1Ag   -66.175519     2Ag    -5.318591
       2B2u   -5.318349     3Ag    -3.682583     3B2u   -3.680404
       1B3u   -3.673627     1B1u   -3.673627     1B1g   -3.673425
       1B3g   -3.673425     4Ag    -0.534152     4B2u   -0.362541
       2B3u   -0.212226     2B1u   -0.212226

    Alpha Virtual:

       5Ag    -0.187084     2B1g   -0.060696     2B3g   -0.060696
       5B2u    0.063879     6Ag     0.181465     3B1u    0.245793
       3B3u    0.245793     7Ag     0.251003     6B2u    0.289490
       8Ag     0.316059     1B2g    0.316060     4B3u    0.340092
       4B1u    0.340092     3B1g    0.349172     3B3g    0.349172
       7B2u    0.436767     1Au     0.436768     8B2u    0.468856
       9Ag     0.585302     4B1g    0.627041     4B3g    0.627041
       9B2u    0.925014

    Beta Occupied:

       1B2u  -66.175519     1Ag   -66.175519     2Ag    -5.318591
       2B2u   -5.318349     3Ag    -3.682583     3B2u   -3.680404
       1B3u   -3.673627     1B1u   -3.673627     1B1g   -3.673425
       1B3g   -3.673425     4Ag    -0.534152     4B2u   -0.362541
       2B3u   -0.212226     2B1u   -0.212226

    Beta Virtual:

       5Ag    -0.187084     2B1g   -0.060696     2B3g   -0.060696
       5B2u    0.063879     6Ag     0.181465     3B1u    0.245793
       3B3u    0.245793     7Ag     0.251003     6B2u    0.289490
       8Ag     0.316059     1B2g    0.316060     4B3u    0.340092
       4B1u    0.340092     3B1g    0.349172     3B3g    0.349172
       7B2u    0.436767     1Au     0.436768     8B2u    0.468856
       9Ag     0.585302     4B1g    0.627041     4B3g    0.627041
       9B2u    0.925014

    Final Occupation by Irrep:
             Ag   B1g   B2g   B3g    Au   B1u   B2u   B3u
    DOCC [     4,    1,    0,    1,    0,    2,    4,    2 ]
    SOCC [     0,    0,    0,    0,    0,    0,    0,    0 ]
    NA   [     4,    1,    0,    1,    0,    2,    4,    2 ]
    NB   [     4,    1,    0,    1,    0,    2,    4,    2 ]

  @DF-UKS Final Energy:  -578.84826495564459

   => Energetics <=

    Nuclear Repulsion Energy =             49.8585306182563670
    One-Electron Energy =                -900.7512522466778364
    Two-Electron Energy =                 305.6255978266008810
    DFT Exchange-Correlation Energy =     -33.5811411538240279
    Empirical Dispersion Energy =           0.0000000000000000
    VV10 Nonlocal Energy =                  0.0000000000000000
    Total Energy =                       -578.8482649556445949

  UHF NO Occupations:
  HONO-2 :    4B2u 2.0000000
  HONO-1 :    2B1u 2.0000000
  HONO-0 :    4 Ag 2.0000000
  LUNO+0 :    5B2u 0.0000000
  LUNO+1 :    2B1g 0.0000000
  LUNO+2 :    5 Ag 0.0000000
  LUNO+3 :    6 Ag 0.0000000

Computation Completed

Properties will be evaluated at   0.000000,   0.000000,   0.000000 [a0]

Properties computed using the SCF density matrix

 Multipole Moments:

 ------------------------------------------------------------------------------------
     Multipole            Electronic (a.u.)      Nuclear  (a.u.)        Total (a.u.)
 ------------------------------------------------------------------------------------

 L = 1.  Multiply by 2.5417464519 to convert [e a0] to [Debye]
 Dipole X            :          0.0000000            0.0000000            0.0000000
 Dipole Y            :          0.0000000            0.0000000            0.0000000
 Dipole Z            :          0.0000000            0.0000000            0.0000000
 Magnitude           :                                                    0.0000000

 ------------------------------------------------------------------------------------

*** tstop() called on Joses-MacBook-Pro-2.local at Wed Jul 16 20:13:05 2025
Module time:
	user time   =       7.30 seconds =       0.12 minutes
	system time =       1.66 seconds =       0.03 minutes
	total time  =          1 seconds =       0.02 minutes
Total time:
	user time   =     206.57 seconds =       3.44 minutes
	system time =      44.64 seconds =       0.74 minutes
	total time  =         25 seconds =       0.42 minutes

*** tstart() called on Joses-MacBook-Pro-2.local
*** at Wed Jul 16 20:13:05 2025

         ------------------------------------------------------------
                                   SCF GRAD
                          Rob Parrish, Justin Turney,
                       Andy Simmonett, and Alex Sokolov
         ------------------------------------------------------------

  ==> Geometry <==

    Molecular point group: d2h
    Full point group: D_inf_h

    Geometry (in Angstrom), charge = 0, multiplicity = 1:

       Center              X                  Y                   Z               Mass
    ------------   -----------------  -----------------  -----------------  -----------------
         SI          -0.000000000000     1.040130264623     0.000000000000    27.976926534650
         SI           0.000000000000    -1.040130264623     0.000000000000    27.976926534650

  Nuclear repulsion =   49.858530618256367

  ==> Basis Set <==

  Basis Set: CC-PVDZ
    Blend: CC-PVDZ
    Number of shells: 16
    Number of basis functions: 36
    Number of Cartesian functions: 38
    Spherical Harmonics?: true
    Max angular momentum: 2

  ==> DFJKGrad: Density-Fitted SCF Gradients <==

    Gradient:                    1
    J tasked:                  Yes
    K tasked:                  Yes
    wK tasked:                  No
    OpenMP threads:              1
    Integrals threads:           1
    Memory [MiB]:              375
    Schwarz Cutoff:          1E-12
    Fitting Condition:       1E-10

   => Auxiliary Basis Set <=

  Basis Set: (CC-PVDZ AUX)
    Blend: CC-PVDZ-JKFIT
    Number of shells: 72
    Number of basis functions: 224
    Number of Cartesian functions: 260
    Spherical Harmonics?: true
    Max angular momentum: 3

  ==> DFT Potential <==

   => LibXC <=

    Version 6.2.2
    S. Lehtola, C. Steigemann, M. J.T. Oliveira, and M. A.L. Marques.,  SoftwareX 7, 1â€“5 (2018) (10.1016/j.softx.2017.11.002)

   => Composite Functional: B3LYP <=

    B3LYP Hyb-GGA Exchange-Correlation Functional

    P. J. Stephens, F. J. Devlin, C. F. Chabalowski, and M. J. Frisch.,  J. Phys. Chem. 98, 11623 (1994) (10.1021/j100096a001)

    Deriv               =              1
    GGA                 =           TRUE
    Meta                =          FALSE

    Exchange Hybrid     =           TRUE
    MP2 Hybrid          =          FALSE

   => Exchange Functionals <=

    0.0800   Slater exchange
    0.7200         Becke 88

   => Exact (HF) Exchange <=

    0.2000               HF

   => Correlation Functionals <=

    0.1900   Vosko, Wilk & Nusair (VWN5_RPA)
    0.8100   Lee, Yang & Parr

   => LibXC Density Thresholds  <==

    XC_HYB_GGA_XC_B3LYP:  1.00E-15

   => Molecular Quadrature <=

    Radial Scheme          =       TREUTLER
    Pruning Scheme         =           NONE
    Nuclear Scheme         =       TREUTLER

    Blocking Scheme        =         OCTREE
    BS radius alpha        =              1
    Pruning alpha          =              1
    Radial Points          =             75
    Spherical Points       =            302
    Total Points           =          41290
    Total Blocks           =            386
    Max Points             =            252
    Max Functions          =             36
    Weights Tolerance      =       1.00E-15

  -Total Gradient:
     Atom            X                  Y                   Z
    ------   -----------------  -----------------  -----------------
       1        0.000000000000    -0.000064244289    -0.000000000000
       2       -0.000000000000     0.000064244289    -0.000000000000

*** tstop() called on Joses-MacBook-Pro-2.local at Wed Jul 16 20:13:05 2025
Module time:
	user time   =       2.37 seconds =       0.04 minutes
	system time =       0.99 seconds =       0.02 minutes
	total time  =          0 seconds =       0.00 minutes
Total time:
	user time   =     208.94 seconds =       3.48 minutes
	system time =      45.64 seconds =       0.76 minutes
	total time  =         25 seconds =       0.42 minutes

    			-----------------------------------------

    			 OPTKING 3.0: for geometry optimizations

    			     By R.A. King, Bethel University

    			        with contributions from

    			    A.V. Copan, J. Cayton, A. Heide

    			-----------------------------------------

	                            ===> Fragment 1 <==

	 Z (Atomic Numbers)          Masses                          Geom
	      14.000000            27.976927         -0.00000000  1.96556133  0.00000000
	      14.000000            27.976927          0.00000000 -1.96556133  0.00000000

	 - Coordinate -           - BOHR/RAD -       - ANG/DEG -
	 R(1,2)           =         3.931123           2.080261

	        --- Internal Coordinate Step in ANG or DEG, aJ/ANG or AJ/DEG ---
	-------------------------------------------------------------------------------
	           Coordinate      Previous         Force          Change          New
	           ----------      --------        ------          ------        ------
	               R(1,2)       2.08026        0.00053        0.00017       2.08043
	-------------------------------------------------------------------------------

	                                 ==> Convergence Check <==

	Measures of convergence in internal coordinates in au.

	Criteria marked as inactive (o), active & met (*), and active & unmet ( ).

	----------------------------------------------------------------------------------------------
	   Step    Total Energy     Delta E     Max Force     RMS Force      Max Disp      RMS Disp
	----------------------------------------------------------------------------------------------
	  Convergence Criteria     1.00e-06 *    3.00e-04 *             o    1.20e-03 *             o
	----------------------------------------------------------------------------------------------
	    14    -578.84826496   -5.31e-07 *    6.42e-05 *    6.42e-05 o    3.19e-04 *    3.19e-04 o  ~
	----------------------------------------------------------------------------------------------

Next Geometry in Ang
	Fragment 1 (Ang)

	   Si  -0.0000000000   1.0402145548   0.0000000000
	   Si   0.0000000000  -1.0402145548   0.0000000000

    Final optimized geometry and variables:
    Molecular point group: d2h
    Full point group: D_inf_h

    Geometry (in Angstrom), charge = 0, multiplicity = 1:

    SI          -0.000000000000     1.040130264623     0.000000000000
    SI           0.000000000000    -1.040130264623     0.000000000000

    Psi4 stopped on: Wednesday, 16 July 2025 08:13PM
    Psi4 wall time for execution: 0:00:25.94

*** Psi4 exiting successfully. Buy a developer a beer!
