                               Psi4 1.9.1 release

  ==> Input File <==

--------------------------------------------------------------------------
molecule {
0 1
He   0.00000        0.60000        0.00000
Ne   0.00000       -0.60000        0.00000
}

set {
basis              cc-pvdz
reference          uks
maxiter            500
geom_maxiter       500
DAMPING_PERCENTAGE 1
guess              SAP
}

optimize('b3lyp')
--------------------------------------------------------------------------

    Molecular point group: c2v
  Charge       = 0
  Multiplicity = 1
  Basis Set: CC-PVDZ
    Blend: CC-PVDZ
  Basis Set: (CC-PVDZ AUX)
    Blend: CC-PVDZ-JKFIT + DEF2-UNIVERSAL-JKFIT
  @DF-UKS Final Energy:  -131.65062759605291
    Total Energy =                       -131.6506275960529138
 Dipole X            :          0.0000000            0.0000000            0.0000000
 Dipole Y            :          0.0000000            0.0000000            0.0000000
 Dipole Z            :         -0.0982125           -0.0038891           -0.1021016
 Magnitude           :                                                    0.1021016
    Molecular point group: c2v
  Basis Set: CC-PVDZ
    Blend: CC-PVDZ
  Basis Set: (CC-PVDZ AUX)
    Blend: CC-PVDZ-JKFIT + DEF2-UNIVERSAL-JKFIT
  Basis Set: CC-PVDZ
    Blend: CC-PVDZ
  Basis Set: (CC-PVDZ AUX)
    Blend: CC-PVDZ-JKFIT + DEF2-UNIVERSAL-JKFIT
  @DF-UKS Final Energy:  -131.76534825124182
    Total Energy =                       -131.7653482512418179
  Basis Set: CC-PVDZ
    Blend: CC-PVDZ
  Basis Set: (CC-PVDZ AUX)
    Blend: CC-PVDZ-JKFIT + DEF2-UNIVERSAL-JKFIT
  Basis Set: CC-PVDZ
    Blend: CC-PVDZ
  @DF-UKS Final Energy:  -131.78766770374816
    Total Energy =                       -131.7876677037481556
  @DF-UKS Final Energy:  -131.80339284152774
    Total Energy =                       -131.8033928415277387
  @DF-UKS Final Energy:  -131.81048893324078
    Total Energy =                       -131.8104889332407765
  @DF-UKS Final Energy:  -131.81400866701875
    Total Energy =                       -131.8140086670187543
  @DF-UKS Final Energy:  -131.81559256272695
    Total Energy =                       -131.8155925627269482
  @DF-UKS Final Energy:  -131.81628371984291
    Total Energy =                       -131.8162837198429145
  @DF-UKS Final Energy:  -131.81650852694878
    Total Energy =                       -131.8165085269487804
  @DF-UKS Final Energy:  -131.81663431194923
    Total Energy =                       -131.8166343119492296
  @DF-UKS Final Energy:  -131.81667977326882
    Total Energy =                       -131.8166797732688167
  @DF-UKS Final Energy:  -131.81670610692015
    Total Energy =                       -131.8167061069201509
  @DF-UKS Final Energy:  -131.81671491490047
    Total Energy =                       -131.8167149149004729
  @DF-UKS Final Energy:  -131.81671902040281
    Total Energy =                       -131.8167190204028145
  Basis Set: (CC-PVDZ AUX)
    Blend: CC-PVDZ-JKFIT + DEF2-UNIVERSAL-JKFIT
  Basis Set: CC-PVDZ
    Blend: CC-PVDZ
  Basis Set: (CC-PVDZ AUX)
    Blend: CC-PVDZ-JKFIT + DEF2-UNIVERSAL-JKFIT
  @DF-UKS Final Energy:  -131.81672054687596
    Total Energy =                       -131.8167205468759562
  Basis Set: CC-PVDZ
    Blend: CC-PVDZ
  Basis Set: (CC-PVDZ AUX)
    Blend: CC-PVDZ-JKFIT + DEF2-UNIVERSAL-JKFIT
  Charge       = 0
  Multiplicity = 1
  Basis Set: CC-PVDZ
    Blend: CC-PVDZ
  Basis Set: (CC-PVDZ AUX)
    Blend: CC-PVDZ-JKFIT + DEF2-UNIVERSAL-JKFIT

    Orbital Energies [Eh]
    ---------------------

    Alpha Occupied:

       1A1   -30.958418     2A1    -1.423951     3A1    -0.650193
       1B1    -0.532402     1B2    -0.532402     4A1    -0.532021

    Alpha Virtual:

       5A1     1.097504     2B2     1.366320     2B1     1.366320
       6A1     1.393517     7A1     1.828352     3B2     2.189353
       3B1     2.189353     8A1     2.190277     4B2     4.733181
       4B1     4.733181     1A2     4.733193     9A1     4.733198
      10A1     4.733253

    Beta Occupied:

       1A1   -30.958418     2A1    -1.423951     3A1    -0.650193
       1B1    -0.532402     1B2    -0.532402     4A1    -0.532021

    Beta Virtual:

       5A1     1.097504     2B2     1.366320     2B1     1.366320
       6A1     1.393517     7A1     1.828352     3B2     2.189353
       3B1     2.189353     8A1     2.190277     4B2     4.733181
       4B1     4.733181     1A2     4.733193     9A1     4.733198
      10A1     4.733253

    Final Occupation by Irrep:
             A1    A2    B1    B2
    DOCC [     4,    0,    1,    1 ]
    SOCC [     0,    0,    0,    0 ]
    NA   [     4,    0,    1,    1 ]
    NB   [     4,    0,    1,    1 ]

  @DF-UKS Final Energy:  -131.81672091868771

   => Energetics <=

    Nuclear Repulsion Energy =              4.1005050959563407
    One-Electron Energy =                -194.7009197543807772
    Two-Electron Energy =                  69.7753486827401588
    DFT Exchange-Correlation Energy =     -10.9916549430034447
    Empirical Dispersion Energy =           0.0000000000000000
    VV10 Nonlocal Energy =                  0.0000000000000000
    Total Energy =                       -131.8167209186877074

  UHF NO Occupations:
  HONO-2 :    2 A1 2.0000000
  HONO-1 :    3 A1 2.0000000
  HONO-0 :    4 A1 2.0000000
  LUNO+0 :    5 A1 0.0000000
  LUNO+1 :    6 A1 0.0000000
  LUNO+2 :    2 B2 0.0000000
  LUNO+3 :    7 A1 0.0000000

Computation Completed

Properties will be evaluated at   0.000000,   0.000000,   0.000000 [a0]

Properties computed using the SCF density matrix

 Multipole Moments:

 ------------------------------------------------------------------------------------
     Multipole            Electronic (a.u.)      Nuclear  (a.u.)        Total (a.u.)
 ------------------------------------------------------------------------------------

 L = 1.  Multiply by 2.5417464519 to convert [e a0] to [Debye]
 Dipole X            :          0.0000000            0.0000000            0.0000000
 Dipole Y            :          0.0000000            0.0000000            0.0000000
 Dipole Z            :          0.0072847           -0.0083650           -0.0010803
 Magnitude           :                                                    0.0010803

 ------------------------------------------------------------------------------------

*** tstop() called on Joses-MacBook-Pro-2.local at Wed Jul 16 18:21:45 2025
Module time:
	user time   =       0.93 seconds =       0.02 minutes
	system time =       2.37 seconds =       0.04 minutes
	total time  =          0 seconds =       0.00 minutes
Total time:
	user time   =      17.88 seconds =       0.30 minutes
	system time =      62.07 seconds =       1.03 minutes
	total time  =          8 seconds =       0.13 minutes

*** tstart() called on Joses-MacBook-Pro-2.local
*** at Wed Jul 16 18:21:45 2025

         ------------------------------------------------------------
                                   SCF GRAD
                          Rob Parrish, Justin Turney,
                       Andy Simmonett, and Alex Sokolov
         ------------------------------------------------------------

  ==> Geometry <==

    Molecular point group: c2v
    Full point group: C_inf_v

    Geometry (in Angstrom), charge = 0, multiplicity = 1:

       Center              X                  Y                   Z               Mass
    ------------   -----------------  -----------------  -----------------  -----------------
         HE           0.000000000000     0.000000000000     2.150493020074     4.002603254130
         NE           0.000000000000     0.000000000000    -0.430541258809    19.992440176200

  Nuclear repulsion =    4.100505095956341

  ==> Basis Set <==

  Basis Set: CC-PVDZ
    Blend: CC-PVDZ
    Number of shells: 9
    Number of basis functions: 19
    Number of Cartesian functions: 20
    Spherical Harmonics?: true
    Max angular momentum: 2

  ==> DFJKGrad: Density-Fitted SCF Gradients <==

    Gradient:                    1
    J tasked:                  Yes
    K tasked:                  Yes
    wK tasked:                  No
    OpenMP threads:              1
    Integrals threads:           1
    Memory [MiB]:              375
    Schwarz Cutoff:          1E-12
    Fitting Condition:       1E-10

   => Auxiliary Basis Set <=

  Basis Set: (CC-PVDZ AUX)
    Blend: CC-PVDZ-JKFIT + DEF2-UNIVERSAL-JKFIT
    Number of shells: 33
    Number of basis functions: 93
    Number of Cartesian functions: 106
    Spherical Harmonics?: true
    Max angular momentum: 3

  ==> DFT Potential <==

   => LibXC <=

    Version 6.2.2
    S. Lehtola, C. Steigemann, M. J.T. Oliveira, and M. A.L. Marques.,  SoftwareX 7, 1â€“5 (2018) (10.1016/j.softx.2017.11.002)

   => Composite Functional: B3LYP <=

    B3LYP Hyb-GGA Exchange-Correlation Functional

    P. J. Stephens, F. J. Devlin, C. F. Chabalowski, and M. J. Frisch.,  J. Phys. Chem. 98, 11623 (1994) (10.1021/j100096a001)

    Deriv               =              1
    GGA                 =           TRUE
    Meta                =          FALSE

    Exchange Hybrid     =           TRUE
    MP2 Hybrid          =          FALSE

   => Exchange Functionals <=

    0.0800   Slater exchange
    0.7200         Becke 88

   => Exact (HF) Exchange <=

    0.2000               HF

   => Correlation Functionals <=

    0.1900   Vosko, Wilk & Nusair (VWN5_RPA)
    0.8100   Lee, Yang & Parr

   => LibXC Density Thresholds  <==

    XC_HYB_GGA_XC_B3LYP:  1.00E-15

   => Molecular Quadrature <=

    Radial Scheme          =       TREUTLER
    Pruning Scheme         =           NONE
    Nuclear Scheme         =       TREUTLER

    Blocking Scheme        =         OCTREE
    BS radius alpha        =              1
    Pruning alpha          =              1
    Radial Points          =             75
    Spherical Points       =            302
    Total Points           =          43442
    Total Blocks           =            385
    Max Points             =            252
    Max Functions          =             19
    Weights Tolerance      =       1.00E-15

  -Total Gradient:
     Atom            X                  Y                   Z
    ------   -----------------  -----------------  -----------------
       1        0.000000000000     0.000000000000    -0.000011004693
       2        0.000000000000    -0.000000000000     0.000012522337

*** tstop() called on Joses-MacBook-Pro-2.local at Wed Jul 16 18:21:46 2025
Module time:
	user time   =       0.22 seconds =       0.00 minutes
	system time =       0.74 seconds =       0.01 minutes
	total time  =          1 seconds =       0.02 minutes
Total time:
	user time   =      18.10 seconds =       0.30 minutes
	system time =      62.81 seconds =       1.05 minutes
	total time  =          9 seconds =       0.15 minutes

    			-----------------------------------------

    			 OPTKING 3.0: for geometry optimizations

    			     By R.A. King, Bethel University

    			        with contributions from

    			    A.V. Copan, J. Cayton, A. Heide

    			-----------------------------------------

	                            ===> Fragment 1 <==

	 Z (Atomic Numbers)          Masses                          Geom
	       2.000000             4.002603          0.00000000  0.00000000  4.06384284
	      10.000000            19.992440          0.00000000  0.00000000 -0.81360506

	 - Coordinate -           - BOHR/RAD -       - ANG/DEG -
	 R(1,2)           =         4.877448           2.581034

	        --- Internal Coordinate Step in ANG or DEG, aJ/ANG or AJ/DEG ---
	-------------------------------------------------------------------------------
	           Coordinate      Previous         Force          Change          New
	           ----------      --------        ------          ------        ------
	               R(1,2)       2.58103        0.00010        0.00425       2.58528
	-------------------------------------------------------------------------------

	                                 ==> Convergence Check <==

	Measures of convergence in internal coordinates in au.

	Criteria marked as inactive (o), active & met (*), and active & unmet ( ).

	----------------------------------------------------------------------------------------------
	   Step    Total Energy     Delta E     Max Force     RMS Force      Max Disp      RMS Disp
	----------------------------------------------------------------------------------------------
	  Convergence Criteria     1.00e-06 *    3.00e-04 *             o    1.20e-03 *             o
	----------------------------------------------------------------------------------------------
	    16    -131.81672092   -3.72e-07 *    1.18e-05 *    1.18e-05 o    8.03e-03      8.03e-03 o  ~
	----------------------------------------------------------------------------------------------

Next Geometry in Ang
	Fragment 1 (Ang)

	   He   0.0000000000   0.0000000000   2.1526174442
	   Ne   0.0000000000   0.0000000000  -0.4326656830

    Final optimized geometry and variables:
    Molecular point group: c2v
    Full point group: C_inf_v

    Geometry (in Angstrom), charge = 0, multiplicity = 1:

    HE           0.000000000000     0.000000000000     2.150493020074
    NE           0.000000000000     0.000000000000    -0.430541258809

    Psi4 stopped on: Wednesday, 16 July 2025 06:21PM
    Psi4 wall time for execution: 0:00:09.42

*** Psi4 exiting successfully. Buy a developer a beer!
