                               Psi4 1.9.1 release

  ==> Input File <==

--------------------------------------------------------------------------
molecule {
0 1
O   0.00000        0.60000        0.00000
S   0.00000       -0.60000        0.00000
}

set {
basis              cc-pvdz
reference          uks
maxiter            500
geom_maxiter       500
DAMPING_PERCENTAGE 1
guess              SAP
}

optimize('b3lyp')
--------------------------------------------------------------------------

    Molecular point group: c2v
  Charge       = 0
  Multiplicity = 1
  Basis Set: CC-PVDZ
    Blend: CC-PVDZ
  Basis Set: (CC-PVDZ AUX)
    Blend: CC-PVDZ-JKFIT
  @DF-UKS Final Energy:  -473.13449211205352
    Total Energy =                       -473.1344921120535219
 Dipole X            :          0.0000000            0.0000000            0.0000000
 Dipole Y            :          0.0000000            0.0000000            0.0000000
 Dipole Z            :         -0.2772481           -0.0067162           -0.2839643
 Magnitude           :                                                    0.2839643
    Molecular point group: c2v
  Basis Set: CC-PVDZ
    Blend: CC-PVDZ
  Basis Set: (CC-PVDZ AUX)
    Blend: CC-PVDZ-JKFIT
  Basis Set: CC-PVDZ
    Blend: CC-PVDZ
  Basis Set: (CC-PVDZ AUX)
    Blend: CC-PVDZ-JKFIT
  @DF-UKS Final Energy:  -473.25802470754468
    Total Energy =                       -473.2580247075446778
  Basis Set: CC-PVDZ
    Blend: CC-PVDZ
  Basis Set: (CC-PVDZ AUX)
    Blend: CC-PVDZ-JKFIT
  Basis Set: CC-PVDZ
    Blend: CC-PVDZ
  @DF-UKS Final Energy:  -473.30917667003115
    Total Energy =                       -473.3091766700311496
  @DF-UKS Final Energy:  -473.32220235685423
    Total Energy =                       -473.3222023568542340
  @DF-UKS Final Energy:  -473.32626574606769
    Total Energy =                       -473.3262657460676905
  @DF-UKS Final Energy:  -473.32806227924243
    Total Energy =                       -473.3280622792424310
  @DF-UKS Final Energy:  -473.32845296141772
    Total Energy =                       -473.3284529614177245
  @DF-UKS Final Energy:  -473.32856069463082
    Total Energy =                       -473.3285606946308235
  Basis Set: (CC-PVDZ AUX)
    Blend: CC-PVDZ-JKFIT
  Basis Set: CC-PVDZ
    Blend: CC-PVDZ
  Basis Set: (CC-PVDZ AUX)
    Blend: CC-PVDZ-JKFIT
  @DF-UKS Final Energy:  -473.32857234425848
    Total Energy =                       -473.3285723442584754
  Basis Set: CC-PVDZ
    Blend: CC-PVDZ
  Basis Set: (CC-PVDZ AUX)
    Blend: CC-PVDZ-JKFIT
  Charge       = 0
  Multiplicity = 1
  Basis Set: CC-PVDZ
    Blend: CC-PVDZ
  Basis Set: (CC-PVDZ AUX)
    Blend: CC-PVDZ-JKFIT

    Orbital Energies [Eh]
    ---------------------

    Alpha Occupied:

       1A1   -88.970852     2A1   -19.208951     3A1    -8.027761
       1B1    -5.994356     4A1    -5.991278     1B2    -5.977531
       5A1    -1.055701     6A1    -0.658697     7A1    -0.433141
       2B1    -0.415564     2B2    -0.406374     3B2    -0.218965

    Alpha Virtual:

       3B1    -0.173446     8A1     0.025504     9A1     0.442879
       4B1     0.443771     4B2     0.464817    10A1     0.472384
       1A2     0.552401    11A1     0.554435     5B1     0.586128
       5B2     0.608951    12A1     0.784316     6B1     0.970782
       6B2     0.985217    13A1     1.070546    14A1     1.635895
       2A2     2.555609    15A1     2.557078     7B1     2.666125
       7B2     2.691981    16A1     3.138230

    Beta Occupied:

       1A1   -88.970852     2A1   -19.208951     3A1    -8.027761
       1B1    -5.994356     4A1    -5.991278     1B2    -5.977531
       5A1    -1.055701     6A1    -0.658697     7A1    -0.433141
       2B1    -0.415564     2B2    -0.406374     3B2    -0.218965

    Beta Virtual:

       3B1    -0.173446     8A1     0.025504     9A1     0.442879
       4B1     0.443771     4B2     0.464817    10A1     0.472384
       1A2     0.552401    11A1     0.554435     5B1     0.586128
       5B2     0.608951    12A1     0.784316     6B1     0.970782
       6B2     0.985217    13A1     1.070546    14A1     1.635895
       2A2     2.555609    15A1     2.557078     7B1     2.666125
       7B2     2.691981    16A1     3.138230

    Final Occupation by Irrep:
             A1    A2    B1    B2
    DOCC [     7,    0,    2,    3 ]
    SOCC [     0,    0,    0,    0 ]
    NA   [     7,    0,    2,    3 ]
    NB   [     7,    0,    2,    3 ]

  @DF-UKS Final Energy:  -473.32857285189931

   => Energetics <=

    Nuclear Repulsion Energy =             44.2845537065698451
    One-Electron Energy =                -740.8398049692593759
    Two-Electron Energy =                 250.8119638643054543
    DFT Exchange-Correlation Energy =     -27.5852854535152261
    Empirical Dispersion Energy =           0.0000000000000000
    VV10 Nonlocal Energy =                  0.0000000000000000
    Total Energy =                       -473.3285728518993665

  UHF NO Occupations:
  HONO-2 :    5 A1 2.0000000
  HONO-1 :    6 A1 2.0000000
  HONO-0 :    7 A1 2.0000000
  LUNO+0 :    8 A1 0.0000000
  LUNO+1 :    9 A1 0.0000000
  LUNO+2 :   10 A1 0.0000000
  LUNO+3 :    4 B2 0.0000000

Computation Completed

Properties will be evaluated at   0.000000,   0.000000,   0.000000 [a0]

Properties computed using the SCF density matrix

 Multipole Moments:

 ------------------------------------------------------------------------------------
     Multipole            Electronic (a.u.)      Nuclear  (a.u.)        Total (a.u.)
 ------------------------------------------------------------------------------------

 L = 1.  Multiply by 2.5417464519 to convert [e a0] to [Debye]
 Dipole X            :          0.0000000            0.0000000            0.0000000
 Dipole Y            :          0.0000000            0.0000000            0.0000000
 Dipole Z            :         -0.6249409           -0.0085605           -0.6335014
 Magnitude           :                                                    0.6335014

 ------------------------------------------------------------------------------------

*** tstop() called on Joses-MacBook-Pro-2.local at Wed Jul 16 19:22:44 2025
Module time:
	user time   =       3.10 seconds =       0.05 minutes
	system time =       3.25 seconds =       0.05 minutes
	total time  =          1 seconds =       0.02 minutes
Total time:
	user time   =      50.51 seconds =       0.84 minutes
	system time =      50.96 seconds =       0.85 minutes
	total time  =         10 seconds =       0.17 minutes

*** tstart() called on Joses-MacBook-Pro-2.local
*** at Wed Jul 16 19:22:44 2025

         ------------------------------------------------------------
                                   SCF GRAD
                          Rob Parrish, Justin Turney,
                       Andy Simmonett, and Alex Sokolov
         ------------------------------------------------------------

  ==> Geometry <==

    Molecular point group: c2v
    Full point group: C_inf_v

    Geometry (in Angstrom), charge = 0, multiplicity = 1:

       Center              X                  Y                   Z               Mass
    ------------   -----------------  -----------------  -----------------  -----------------
         O            0.000000000000     0.000000000000     1.019499865045    15.994914619570
         S            0.000000000000     0.000000000000    -0.510033060014    31.972071174400

  Nuclear repulsion =   44.284553706569845

  ==> Basis Set <==

  Basis Set: CC-PVDZ
    Blend: CC-PVDZ
    Number of shells: 14
    Number of basis functions: 32
    Number of Cartesian functions: 34
    Spherical Harmonics?: true
    Max angular momentum: 2

  ==> DFJKGrad: Density-Fitted SCF Gradients <==

    Gradient:                    1
    J tasked:                  Yes
    K tasked:                  Yes
    wK tasked:                  No
    OpenMP threads:              1
    Integrals threads:           1
    Memory [MiB]:              375
    Schwarz Cutoff:          1E-12
    Fitting Condition:       1E-10

   => Auxiliary Basis Set <=

  Basis Set: (CC-PVDZ AUX)
    Blend: CC-PVDZ-JKFIT
    Number of shells: 60
    Number of basis functions: 182
    Number of Cartesian functions: 211
    Spherical Harmonics?: true
    Max angular momentum: 3

  ==> DFT Potential <==

   => LibXC <=

    Version 6.2.2
    S. Lehtola, C. Steigemann, M. J.T. Oliveira, and M. A.L. Marques.,  SoftwareX 7, 1â€“5 (2018) (10.1016/j.softx.2017.11.002)

   => Composite Functional: B3LYP <=

    B3LYP Hyb-GGA Exchange-Correlation Functional

    P. J. Stephens, F. J. Devlin, C. F. Chabalowski, and M. J. Frisch.,  J. Phys. Chem. 98, 11623 (1994) (10.1021/j100096a001)

    Deriv               =              1
    GGA                 =           TRUE
    Meta                =          FALSE

    Exchange Hybrid     =           TRUE
    MP2 Hybrid          =          FALSE

   => Exchange Functionals <=

    0.0800   Slater exchange
    0.7200         Becke 88

   => Exact (HF) Exchange <=

    0.2000               HF

   => Correlation Functionals <=

    0.1900   Vosko, Wilk & Nusair (VWN5_RPA)
    0.8100   Lee, Yang & Parr

   => LibXC Density Thresholds  <==

    XC_HYB_GGA_XC_B3LYP:  1.00E-15

   => Molecular Quadrature <=

    Radial Scheme          =       TREUTLER
    Pruning Scheme         =           NONE
    Nuclear Scheme         =       TREUTLER

    Blocking Scheme        =         OCTREE
    BS radius alpha        =              1
    Pruning alpha          =              1
    Radial Points          =             75
    Spherical Points       =            302
    Total Points           =          41841
    Total Blocks           =            375
    Max Points             =            256
    Max Functions          =             32
    Weights Tolerance      =       1.00E-15

  -Total Gradient:
     Atom            X                  Y                   Z
    ------   -----------------  -----------------  -----------------
       1        0.000000000000    -0.000000000000    -0.000109023828
       2        0.000000000000     0.000000000000     0.000084293877

*** tstop() called on Joses-MacBook-Pro-2.local at Wed Jul 16 19:22:44 2025
Module time:
	user time   =       0.61 seconds =       0.01 minutes
	system time =       1.59 seconds =       0.03 minutes
	total time  =          0 seconds =       0.00 minutes
Total time:
	user time   =      51.13 seconds =       0.85 minutes
	system time =      52.55 seconds =       0.88 minutes
	total time  =         10 seconds =       0.17 minutes

    			-----------------------------------------

    			 OPTKING 3.0: for geometry optimizations

    			     By R.A. King, Bethel University

    			        with contributions from

    			    A.V. Copan, J. Cayton, A. Heide

    			-----------------------------------------

	                            ===> Fragment 1 <==

	 Z (Atomic Numbers)          Masses                          Geom
	       8.000000            15.994915          0.00000000  0.00000000  1.92657553
	      16.000000            31.972071          0.00000000  0.00000000 -0.96382280

	 - Coordinate -           - BOHR/RAD -       - ANG/DEG -
	 R(1,2)           =         2.890398           1.529533

	        --- Internal Coordinate Step in ANG or DEG, aJ/ANG or AJ/DEG ---
	-------------------------------------------------------------------------------
	           Coordinate      Previous         Force          Change          New
	           ----------      --------        ------          ------        ------
	               R(1,2)       1.52953        0.00080        0.00010       1.52963
	-------------------------------------------------------------------------------

	                                 ==> Convergence Check <==

	Measures of convergence in internal coordinates in au.

	Criteria marked as inactive (o), active & met (*), and active & unmet ( ).

	----------------------------------------------------------------------------------------------
	   Step    Total Energy     Delta E     Max Force     RMS Force      Max Disp      RMS Disp
	----------------------------------------------------------------------------------------------
	  Convergence Criteria     1.00e-06 *    3.00e-04 *             o    1.20e-03 *             o
	----------------------------------------------------------------------------------------------
	    10    -473.32857285   -5.08e-07 *    9.67e-05 *    9.67e-05 o    1.83e-04 *    1.83e-04 o  ~
	----------------------------------------------------------------------------------------------

Next Geometry in Ang
	Fragment 1 (Ang)

	    O   0.0000000000   0.0000000000   1.0195483433
	    S   0.0000000000   0.0000000000  -0.5100815383

    Final optimized geometry and variables:
    Molecular point group: c2v
    Full point group: C_inf_v

    Geometry (in Angstrom), charge = 0, multiplicity = 1:

    O            0.000000000000     0.000000000000     1.019499865045
    S            0.000000000000     0.000000000000    -0.510033060014

    Psi4 stopped on: Wednesday, 16 July 2025 07:22PM
    Psi4 wall time for execution: 0:00:10.81

*** Psi4 exiting successfully. Buy a developer a beer!
