                               Psi4 1.9.1 release

  ==> Input File <==

--------------------------------------------------------------------------
molecule {
0 1
F   0.00000        0.60000        0.00000
Cl   0.00000       -0.60000        0.00000
}

set {
basis              cc-pvdz
reference          uks
maxiter            500
geom_maxiter       500
DAMPING_PERCENTAGE 1
guess              SAP
}

optimize('b3lyp')
--------------------------------------------------------------------------

    Molecular point group: c2v
  Charge       = 0
  Multiplicity = 1
  Basis Set: CC-PVDZ
    Blend: CC-PVDZ
  Basis Set: (CC-PVDZ AUX)
    Blend: CC-PVDZ-JKFIT
  @DF-UKS Final Energy:  -559.67635060635371
    Total Energy =                       -559.6763506063537079
 Dipole X            :          0.0000000            0.0000000            0.0000000
 Dipole Y            :          0.0000000            0.0000000            0.0000000
 Dipole Z            :          0.6366490           -0.3467936            0.2898554
 Magnitude           :                                                    0.2898554
    Molecular point group: c2v
  Basis Set: CC-PVDZ
    Blend: CC-PVDZ
  Basis Set: (CC-PVDZ AUX)
    Blend: CC-PVDZ-JKFIT
  Basis Set: CC-PVDZ
    Blend: CC-PVDZ
  Basis Set: (CC-PVDZ AUX)
    Blend: CC-PVDZ-JKFIT
  @DF-UKS Final Energy:  -559.84882279908493
    Total Energy =                       -559.8488227990849282
  Basis Set: CC-PVDZ
    Blend: CC-PVDZ
  Basis Set: (CC-PVDZ AUX)
    Blend: CC-PVDZ-JKFIT
  Basis Set: CC-PVDZ
    Blend: CC-PVDZ
  @DF-UKS Final Energy:  -559.92695158046047
    Total Energy =                       -559.9269515804604680
  @DF-UKS Final Energy:  -559.95221229237416
    Total Energy =                       -559.9522122923741563
  @DF-UKS Final Energy:  -559.96525667113633
    Total Energy =                       -559.9652566711363306
  @DF-UKS Final Energy:  -559.96914843018180
    Total Energy =                       -559.9691484301818036
  @DF-UKS Final Energy:  -559.97081063089490
    Total Energy =                       -559.9708106308949027
  @DF-UKS Final Energy:  -559.97115471709651
    Total Energy =                       -559.9711547170965105
  @DF-UKS Final Energy:  -559.97124107962077
    Total Energy =                       -559.9712410796207678
  Basis Set: (CC-PVDZ AUX)
    Blend: CC-PVDZ-JKFIT
  Basis Set: CC-PVDZ
    Blend: CC-PVDZ
  Basis Set: (CC-PVDZ AUX)
    Blend: CC-PVDZ-JKFIT
  @DF-UKS Final Energy:  -559.97125322496333
    Total Energy =                       -559.9712532249633341
  Basis Set: CC-PVDZ
    Blend: CC-PVDZ
  Basis Set: (CC-PVDZ AUX)
    Blend: CC-PVDZ-JKFIT
  Charge       = 0
  Multiplicity = 1
  Basis Set: CC-PVDZ
    Blend: CC-PVDZ
  Basis Set: (CC-PVDZ AUX)
    Blend: CC-PVDZ-JKFIT

    Orbital Energies [Eh]
    ---------------------

    Alpha Occupied:

       1A1  -101.624362     2A1   -24.742452     3A1    -9.537682
       4A1    -7.306598     1B1    -7.287639     1B2    -7.287639
       5A1    -1.221186     6A1    -0.836131     7A1    -0.521898
       2B1    -0.467571     2B2    -0.467571     3B1    -0.331565
       3B2    -0.331565

    Alpha Virtual:

       8A1    -0.129003     9A1     0.471375     4B1     0.520083
       4B2     0.520083    10A1     0.570423     5B1     0.654881
       5B2     0.654881     1A2     0.689673    11A1     0.689673
      12A1     0.859856     6B1     1.204372     6B2     1.204372
      13A1     1.226121    14A1     2.032629     7B1     3.537371
       7B2     3.537371     2A2     3.540653    15A1     3.540728
      16A1     3.729562

    Beta Occupied:

       1A1  -101.624362     2A1   -24.742452     3A1    -9.537682
       4A1    -7.306598     1B1    -7.287639     1B2    -7.287639
       5A1    -1.221186     6A1    -0.836131     7A1    -0.521898
       2B1    -0.467571     2B2    -0.467571     3B1    -0.331565
       3B2    -0.331565

    Beta Virtual:

       8A1    -0.129003     9A1     0.471375     4B1     0.520083
       4B2     0.520083    10A1     0.570423     5B1     0.654881
       5B2     0.654881     1A2     0.689673    11A1     0.689673
      12A1     0.859856     6B1     1.204372     6B2     1.204372
      13A1     1.226121    14A1     2.032629     7B1     3.537371
       7B2     3.537371     2A2     3.540653    15A1     3.540728
      16A1     3.729562

    Final Occupation by Irrep:
             A1    A2    B1    B2
    DOCC [     7,    0,    3,    3 ]
    SOCC [     0,    0,    0,    0 ]
    NA   [     7,    0,    3,    3 ]
    NB   [     7,    0,    3,    3 ]

  @DF-UKS Final Energy:  -559.97125382051263

   => Energetics <=

    Nuclear Repulsion Energy =             48.2223377804008919
    One-Electron Energy =                -870.2541050209761124
    Two-Electron Energy =                 293.2330944594731363
    DFT Exchange-Correlation Energy =     -31.1725810394105451
    Empirical Dispersion Energy =           0.0000000000000000
    VV10 Nonlocal Energy =                  0.0000000000000000
    Total Energy =                       -559.9712538205126293

  UHF NO Occupations:
  HONO-2 :    6 A1 2.0000000
  HONO-1 :    3 B2 2.0000000
  HONO-0 :    7 A1 2.0000000
  LUNO+0 :    8 A1 0.0000000
  LUNO+1 :    4 B2 0.0000000
  LUNO+2 :    5 B2 0.0000000
  LUNO+3 :    6 B2 0.0000000

Computation Completed

Properties will be evaluated at   0.000000,   0.000000,   0.000000 [a0]

Properties computed using the SCF density matrix

 Multipole Moments:

 ------------------------------------------------------------------------------------
     Multipole            Electronic (a.u.)      Nuclear  (a.u.)        Total (a.u.)
 ------------------------------------------------------------------------------------

 L = 1.  Multiply by 2.5417464519 to convert [e a0] to [Debye]
 Dipole X            :          0.0000000            0.0000000            0.0000000
 Dipole Y            :          0.0000000            0.0000000            0.0000000
 Dipole Z            :          0.0385157           -0.4852149           -0.4466992
 Magnitude           :                                                    0.4466992

 ------------------------------------------------------------------------------------

*** tstop() called on Joses-MacBook-Pro-2.local at Wed Jul 16 19:30:42 2025
Module time:
	user time   =       3.92 seconds =       0.07 minutes
	system time =       2.83 seconds =       0.05 minutes
	total time  =          0 seconds =       0.00 minutes
Total time:
	user time   =      70.47 seconds =       1.17 minutes
	system time =      48.80 seconds =       0.81 minutes
	total time  =         12 seconds =       0.20 minutes

*** tstart() called on Joses-MacBook-Pro-2.local
*** at Wed Jul 16 19:30:42 2025

         ------------------------------------------------------------
                                   SCF GRAD
                          Rob Parrish, Justin Turney,
                       Andy Simmonett, and Alex Sokolov
         ------------------------------------------------------------

  ==> Geometry <==

    Molecular point group: c2v
    Full point group: C_inf_v

    Geometry (in Angstrom), charge = 0, multiplicity = 1:

       Center              X                  Y                   Z               Mass
    ------------   -----------------  -----------------  -----------------  -----------------
         F            0.000000000000     0.000000000000     1.087915967131    18.998403162730
         CL           0.000000000000     0.000000000000    -0.591059316092    34.968852682000

  Nuclear repulsion =   48.222337780400892

  ==> Basis Set <==

  Basis Set: CC-PVDZ
    Blend: CC-PVDZ
    Number of shells: 14
    Number of basis functions: 32
    Number of Cartesian functions: 34
    Spherical Harmonics?: true
    Max angular momentum: 2

  ==> DFJKGrad: Density-Fitted SCF Gradients <==

    Gradient:                    1
    J tasked:                  Yes
    K tasked:                  Yes
    wK tasked:                  No
    OpenMP threads:              1
    Integrals threads:           1
    Memory [MiB]:              375
    Schwarz Cutoff:          1E-12
    Fitting Condition:       1E-10

   => Auxiliary Basis Set <=

  Basis Set: (CC-PVDZ AUX)
    Blend: CC-PVDZ-JKFIT
    Number of shells: 60
    Number of basis functions: 182
    Number of Cartesian functions: 211
    Spherical Harmonics?: true
    Max angular momentum: 3

  ==> DFT Potential <==

   => LibXC <=

    Version 6.2.2
    S. Lehtola, C. Steigemann, M. J.T. Oliveira, and M. A.L. Marques.,  SoftwareX 7, 1â€“5 (2018) (10.1016/j.softx.2017.11.002)

   => Composite Functional: B3LYP <=

    B3LYP Hyb-GGA Exchange-Correlation Functional

    P. J. Stephens, F. J. Devlin, C. F. Chabalowski, and M. J. Frisch.,  J. Phys. Chem. 98, 11623 (1994) (10.1021/j100096a001)

    Deriv               =              1
    GGA                 =           TRUE
    Meta                =          FALSE

    Exchange Hybrid     =           TRUE
    MP2 Hybrid          =          FALSE

   => Exchange Functionals <=

    0.0800   Slater exchange
    0.7200         Becke 88

   => Exact (HF) Exchange <=

    0.2000               HF

   => Correlation Functionals <=

    0.1900   Vosko, Wilk & Nusair (VWN5_RPA)
    0.8100   Lee, Yang & Parr

   => LibXC Density Thresholds  <==

    XC_HYB_GGA_XC_B3LYP:  1.00E-15

   => Molecular Quadrature <=

    Radial Scheme          =       TREUTLER
    Pruning Scheme         =           NONE
    Nuclear Scheme         =       TREUTLER

    Blocking Scheme        =         OCTREE
    BS radius alpha        =              1
    Pruning alpha          =              1
    Radial Points          =             75
    Spherical Points       =            302
    Total Points           =          41826
    Total Blocks           =            373
    Max Points             =            255
    Max Functions          =             32
    Weights Tolerance      =       1.00E-15

  -Total Gradient:
     Atom            X                  Y                   Z
    ------   -----------------  -----------------  -----------------
       1        0.000000000000    -0.000000000000    -0.000137483435
       2        0.000000000000    -0.000000000000     0.000056775296

*** tstop() called on Joses-MacBook-Pro-2.local at Wed Jul 16 19:30:43 2025
Module time:
	user time   =       1.29 seconds =       0.02 minutes
	system time =       1.12 seconds =       0.02 minutes
	total time  =          1 seconds =       0.02 minutes
Total time:
	user time   =      71.76 seconds =       1.20 minutes
	system time =      49.93 seconds =       0.83 minutes
	total time  =         13 seconds =       0.22 minutes

    			-----------------------------------------

    			 OPTKING 3.0: for geometry optimizations

    			     By R.A. King, Bethel University

    			        with contributions from

    			    A.V. Copan, J. Cayton, A. Heide

    			-----------------------------------------

	                            ===> Fragment 1 <==

	 Z (Atomic Numbers)          Masses                          Geom
	       9.000000            18.998403          0.00000000  0.00000000  2.05586323
	      17.000000            34.968853          0.00000000  0.00000000 -1.11694023

	 - Coordinate -           - BOHR/RAD -       - ANG/DEG -
	 R(1,2)           =         3.172803           1.678975

	        --- Internal Coordinate Step in ANG or DEG, aJ/ANG or AJ/DEG ---
	-------------------------------------------------------------------------------
	           Coordinate      Previous         Force          Change          New
	           ----------      --------        ------          ------        ------
	               R(1,2)       1.67898        0.00080        0.00018       1.67915
	-------------------------------------------------------------------------------

	                                 ==> Convergence Check <==

	Measures of convergence in internal coordinates in au.

	Criteria marked as inactive (o), active & met (*), and active & unmet ( ).

	----------------------------------------------------------------------------------------------
	   Step    Total Energy     Delta E     Max Force     RMS Force      Max Disp      RMS Disp
	----------------------------------------------------------------------------------------------
	  Convergence Criteria     1.00e-06 *    3.00e-04 *             o    1.20e-03 *             o
	----------------------------------------------------------------------------------------------
	    11    -559.97125382   -5.96e-07 *    9.71e-05 *    9.71e-05 o    3.33e-04 *    3.33e-04 o  ~
	----------------------------------------------------------------------------------------------

Next Geometry in Ang
	Fragment 1 (Ang)

	    F   0.0000000000   0.0000000000   1.0880040380
	   Cl   0.0000000000   0.0000000000  -0.5911473869

    Final optimized geometry and variables:
    Molecular point group: c2v
    Full point group: C_inf_v

    Geometry (in Angstrom), charge = 0, multiplicity = 1:

    F            0.000000000000     0.000000000000     1.087915967131
    CL           0.000000000000     0.000000000000    -0.591059316092

    Psi4 stopped on: Wednesday, 16 July 2025 07:30PM
    Psi4 wall time for execution: 0:00:12.82

*** Psi4 exiting successfully. Buy a developer a beer!
