                               Psi4 1.9.1 release

  ==> Input File <==

--------------------------------------------------------------------------
molecule {
0 1
Be   0.00000        0.60000        0.00000
S   0.00000       -0.60000        0.00000
}

set {
basis              cc-pvdz
reference          uks
maxiter            500
geom_maxiter       500
DAMPING_PERCENTAGE 1
guess              SAP
}

optimize('b3lyp')
--------------------------------------------------------------------------

    Molecular point group: c2v
  Charge       = 0
  Multiplicity = 1
  Basis Set: CC-PVDZ
    Blend: CC-PVDZ
  Basis Set: (CC-PVDZ AUX)
    Blend: CC-PVDZ-JKFIT + DEF2-UNIVERSAL-JKFIT
  @DF-UKS Final Energy:  -412.54567018592832
    Total Energy =                       -412.5456701859282589
 Dipole X            :          0.0000000            0.0000000            0.0000000
 Dipole Y            :          0.0000000            0.0000000            0.0000000
 Dipole Z            :          2.1811482           -0.9022516            1.2788966
 Magnitude           :                                                    1.2788966
    Molecular point group: c2v
  Basis Set: CC-PVDZ
    Blend: CC-PVDZ
  Basis Set: (CC-PVDZ AUX)
    Blend: CC-PVDZ-JKFIT + DEF2-UNIVERSAL-JKFIT
  Basis Set: CC-PVDZ
    Blend: CC-PVDZ
  Basis Set: (CC-PVDZ AUX)
    Blend: CC-PVDZ-JKFIT + DEF2-UNIVERSAL-JKFIT
  @DF-UKS Final Energy:  -412.74123980720867
    Total Energy =                       -412.7412398072087854
  Basis Set: CC-PVDZ
    Blend: CC-PVDZ
  Basis Set: (CC-PVDZ AUX)
    Blend: CC-PVDZ-JKFIT + DEF2-UNIVERSAL-JKFIT
  Basis Set: CC-PVDZ
    Blend: CC-PVDZ
  @DF-UKS Final Energy:  -412.85622559692206
    Total Energy =                       -412.8562255969220587
  @DF-UKS Final Energy:  -412.90074361801948
    Total Energy =                       -412.9007436180194190
  @DF-UKS Final Energy:  -412.91222016843875
    Total Energy =                       -412.9122201684387505
  @DF-UKS Final Energy:  -412.91662680051371
    Total Energy =                       -412.9166268005137113
  @DF-UKS Final Energy:  -412.91750473665428
    Total Energy =                       -412.9175047366542799
  @DF-UKS Final Energy:  -412.91769900063389
    Total Energy =                       -412.9176990006339452
  @DF-UKS Final Energy:  -412.91775253081448
    Total Energy =                       -412.9177525308144254
  Basis Set: (CC-PVDZ AUX)
    Blend: CC-PVDZ-JKFIT + DEF2-UNIVERSAL-JKFIT
  Basis Set: CC-PVDZ
    Blend: CC-PVDZ
  Basis Set: (CC-PVDZ AUX)
    Blend: CC-PVDZ-JKFIT + DEF2-UNIVERSAL-JKFIT
  @DF-UKS Final Energy:  -412.91775840900942
    Total Energy =                       -412.9177584090094797
  Basis Set: CC-PVDZ
    Blend: CC-PVDZ
  Basis Set: (CC-PVDZ AUX)
    Blend: CC-PVDZ-JKFIT + DEF2-UNIVERSAL-JKFIT
  Charge       = 0
  Multiplicity = 1
  Basis Set: CC-PVDZ
    Blend: CC-PVDZ
  Basis Set: (CC-PVDZ AUX)
    Blend: CC-PVDZ-JKFIT + DEF2-UNIVERSAL-JKFIT

    Orbital Energies [Eh]
    ---------------------

    Alpha Occupied:

       1A1   -88.830104     2A1    -7.892191     3A1    -5.854063
       1B1    -5.850867     1B2    -5.850867     4A1    -4.117340
       5A1    -0.642800     6A1    -0.305484     2B2    -0.239276
       2B1    -0.239276

    Alpha Virtual:

       7A1    -0.155152     3B2    -0.019447     3B1    -0.019447
       8A1     0.079751     9A1     0.161248     4B1     0.168209
       4B2     0.168209    10A1     0.289520    11A1     0.429361
      12A1     0.432771     1A2     0.432771     5B2     0.445867
       5B1     0.445867     6B2     0.589246     6B1     0.589246
      13A1     0.703582    14A1     0.704556     2A2     0.704556
      15A1     0.906081     7B2     0.937601     7B1     0.937601
      16A1     1.273924

    Beta Occupied:

       1A1   -88.830104     2A1    -7.892191     3A1    -5.854063
       1B1    -5.850867     1B2    -5.850867     4A1    -4.117340
       5A1    -0.642800     6A1    -0.305484     2B2    -0.239276
       2B1    -0.239276

    Beta Virtual:

       7A1    -0.155152     3B2    -0.019447     3B1    -0.019447
       8A1     0.079751     9A1     0.161248     4B1     0.168209
       4B2     0.168209    10A1     0.289520    11A1     0.429361
      12A1     0.432771     1A2     0.432771     5B2     0.445867
       5B1     0.445867     6B2     0.589246     6B1     0.589246
      13A1     0.703582    14A1     0.704556     2A2     0.704556
      15A1     0.906081     7B2     0.937601     7B1     0.937601
      16A1     1.273924

    Final Occupation by Irrep:
             A1    A2    B1    B2
    DOCC [     6,    0,    2,    2 ]
    SOCC [     0,    0,    0,    0 ]
    NA   [     6,    0,    2,    2 ]
    NB   [     6,    0,    2,    2 ]

  @DF-UKS Final Energy:  -412.91775867203233

   => Energetics <=

    Nuclear Repulsion Energy =             19.3105570949427374
    One-Electron Energy =                -608.4242883547759675
    Two-Electron Energy =                 199.2013626038847178
    DFT Exchange-Correlation Energy =     -23.0053900160838367
    Empirical Dispersion Energy =           0.0000000000000000
    VV10 Nonlocal Energy =                  0.0000000000000000
    Total Energy =                       -412.9177586720323347

  UHF NO Occupations:
  HONO-2 :    4 A1 2.0000000
  HONO-1 :    5 A1 2.0000000
  HONO-0 :    6 A1 2.0000000
  LUNO+0 :    7 A1 0.0000000
  LUNO+1 :    8 A1 0.0000000
  LUNO+2 :    9 A1 0.0000000
  LUNO+3 :   10 A1 0.0000000

Computation Completed

Properties will be evaluated at   0.000000,   0.000000,   0.000000 [a0]

Properties computed using the SCF density matrix

 Multipole Moments:

 ------------------------------------------------------------------------------------
     Multipole            Electronic (a.u.)      Nuclear  (a.u.)        Total (a.u.)
 ------------------------------------------------------------------------------------

 L = 1.  Multiply by 2.5417464519 to convert [e a0] to [Debye]
 Dipole X            :          0.0000000            0.0000000            0.0000000
 Dipole Y            :          0.0000000            0.0000000            0.0000000
 Dipole Z            :          3.2460300           -1.3186597            1.9273704
 Magnitude           :                                                    1.9273704

 ------------------------------------------------------------------------------------

*** tstop() called on Joses-MacBook-Pro-2.local at Wed Jul 16 18:46:03 2025
Module time:
	user time   =       3.33 seconds =       0.06 minutes
	system time =       2.90 seconds =       0.05 minutes
	total time  =          0 seconds =       0.00 minutes
Total time:
	user time   =      49.13 seconds =       0.82 minutes
	system time =      58.79 seconds =       0.98 minutes
	total time  =         10 seconds =       0.17 minutes

*** tstart() called on Joses-MacBook-Pro-2.local
*** at Wed Jul 16 18:46:03 2025

         ------------------------------------------------------------
                                   SCF GRAD
                          Rob Parrish, Justin Turney,
                       Andy Simmonett, and Alex Sokolov
         ------------------------------------------------------------

  ==> Geometry <==

    Molecular point group: c2v
    Full point group: C_inf_v

    Geometry (in Angstrom), charge = 0, multiplicity = 1:

       Center              X                  Y                   Z               Mass
    ------------   -----------------  -----------------  -----------------  -----------------
         BE           0.000000000000     0.000000000000     1.368169919659     9.012183065000
         S            0.000000000000     0.000000000000    -0.385655271213    31.972071174400

  Nuclear repulsion =   19.310557094942737

  ==> Basis Set <==

  Basis Set: CC-PVDZ
    Blend: CC-PVDZ
    Number of shells: 14
    Number of basis functions: 32
    Number of Cartesian functions: 34
    Spherical Harmonics?: true
    Max angular momentum: 2

  ==> DFJKGrad: Density-Fitted SCF Gradients <==

    Gradient:                    1
    J tasked:                  Yes
    K tasked:                  Yes
    wK tasked:                  No
    OpenMP threads:              1
    Integrals threads:           1
    Memory [MiB]:              375
    Schwarz Cutoff:          1E-12
    Fitting Condition:       1E-10

   => Auxiliary Basis Set <=

  Basis Set: (CC-PVDZ AUX)
    Blend: CC-PVDZ-JKFIT + DEF2-UNIVERSAL-JKFIT
    Number of shells: 53
    Number of basis functions: 163
    Number of Cartesian functions: 190
    Spherical Harmonics?: true
    Max angular momentum: 3

  ==> DFT Potential <==

   => LibXC <=

    Version 6.2.2
    S. Lehtola, C. Steigemann, M. J.T. Oliveira, and M. A.L. Marques.,  SoftwareX 7, 1â€“5 (2018) (10.1016/j.softx.2017.11.002)

   => Composite Functional: B3LYP <=

    B3LYP Hyb-GGA Exchange-Correlation Functional

    P. J. Stephens, F. J. Devlin, C. F. Chabalowski, and M. J. Frisch.,  J. Phys. Chem. 98, 11623 (1994) (10.1021/j100096a001)

    Deriv               =              1
    GGA                 =           TRUE
    Meta                =          FALSE

    Exchange Hybrid     =           TRUE
    MP2 Hybrid          =          FALSE

   => Exchange Functionals <=

    0.0800   Slater exchange
    0.7200         Becke 88

   => Exact (HF) Exchange <=

    0.2000               HF

   => Correlation Functionals <=

    0.1900   Vosko, Wilk & Nusair (VWN5_RPA)
    0.8100   Lee, Yang & Parr

   => LibXC Density Thresholds  <==

    XC_HYB_GGA_XC_B3LYP:  1.00E-15

   => Molecular Quadrature <=

    Radial Scheme          =       TREUTLER
    Pruning Scheme         =           NONE
    Nuclear Scheme         =       TREUTLER

    Blocking Scheme        =         OCTREE
    BS radius alpha        =              1
    Pruning alpha          =              1
    Radial Points          =             75
    Spherical Points       =            302
    Total Points           =          42749
    Total Blocks           =            398
    Max Points             =            254
    Max Functions          =             32
    Weights Tolerance      =       1.00E-15

  -Total Gradient:
     Atom            X                  Y                   Z
    ------   -----------------  -----------------  -----------------
       1        0.000000000000    -0.000000000000    -0.000044483196
       2        0.000000000000     0.000000000000     0.000033645509

*** tstop() called on Joses-MacBook-Pro-2.local at Wed Jul 16 18:46:04 2025
Module time:
	user time   =       0.91 seconds =       0.02 minutes
	system time =       1.65 seconds =       0.03 minutes
	total time  =          1 seconds =       0.02 minutes
Total time:
	user time   =      50.04 seconds =       0.83 minutes
	system time =      60.44 seconds =       1.01 minutes
	total time  =         11 seconds =       0.18 minutes

    			-----------------------------------------

    			 OPTKING 3.0: for geometry optimizations

    			     By R.A. King, Bethel University

    			        with contributions from

    			    A.V. Copan, J. Cayton, A. Heide

    			-----------------------------------------

	                            ===> Fragment 1 <==

	 Z (Atomic Numbers)          Masses                          Geom
	       4.000000             9.012183          0.00000000  0.00000000  2.58546644
	      16.000000            31.972071          0.00000000  0.00000000 -0.72878284

	 - Coordinate -           - BOHR/RAD -       - ANG/DEG -
	 R(1,2)           =         3.314249           1.753825

	        --- Internal Coordinate Step in ANG or DEG, aJ/ANG or AJ/DEG ---
	-------------------------------------------------------------------------------
	           Coordinate      Previous         Force          Change          New
	           ----------      --------        ------          ------        ------
	               R(1,2)       1.75383        0.00032        0.00007       1.75390
	-------------------------------------------------------------------------------

	                                 ==> Convergence Check <==

	Measures of convergence in internal coordinates in au.

	Criteria marked as inactive (o), active & met (*), and active & unmet ( ).

	----------------------------------------------------------------------------------------------
	   Step    Total Energy     Delta E     Max Force     RMS Force      Max Disp      RMS Disp
	----------------------------------------------------------------------------------------------
	  Convergence Criteria     1.00e-06 *    3.00e-04 *             o    1.20e-03 *             o
	----------------------------------------------------------------------------------------------
	    11    -412.91775867   -2.63e-07 *    3.91e-05 *    3.91e-05 o    1.40e-04 *    1.40e-04 o  ~
	----------------------------------------------------------------------------------------------

Next Geometry in Ang
	Fragment 1 (Ang)

	   Be   0.0000000000   0.0000000000   1.3682068447
	    S   0.0000000000   0.0000000000  -0.3856921962

    Final optimized geometry and variables:
    Molecular point group: c2v
    Full point group: C_inf_v

    Geometry (in Angstrom), charge = 0, multiplicity = 1:

    BE           0.000000000000     0.000000000000     1.368169919659
    S            0.000000000000     0.000000000000    -0.385655271213

    Psi4 stopped on: Wednesday, 16 July 2025 06:46PM
    Psi4 wall time for execution: 0:00:11.31

*** Psi4 exiting successfully. Buy a developer a beer!
