                               Psi4 1.9.1 release

  ==> Input File <==

--------------------------------------------------------------------------
molecule {
0 1
Mg   0.00000        0.60000        0.00000
Mg   0.00000       -0.60000        0.00000
}

set {
basis              cc-pvdz
reference          uks
maxiter            500
geom_maxiter       500
DAMPING_PERCENTAGE 1
guess              SAP
}

optimize('b3lyp')
--------------------------------------------------------------------------

    Molecular point group: d2h
  Charge       = 0
  Multiplicity = 1
  Basis Set: CC-PVDZ
    Blend: CC-PVDZ
  Basis Set: (CC-PVDZ AUX)
    Blend: DEF2-UNIVERSAL-JKFIT
  @DF-UKS Final Energy:  -399.33611880268609
    Total Energy =                       -399.3361188026860873
 Dipole X            :          0.0000000            0.0000000            0.0000000
 Dipole Y            :          0.0000000            0.0000000            0.0000000
 Dipole Z            :          0.0000000            0.0000000            0.0000000
 Magnitude           :                                                    0.0000000
    Molecular point group: d2h
  Basis Set: CC-PVDZ
    Blend: CC-PVDZ
  Basis Set: (CC-PVDZ AUX)
    Blend: DEF2-UNIVERSAL-JKFIT
  Basis Set: CC-PVDZ
    Blend: CC-PVDZ
  Basis Set: (CC-PVDZ AUX)
    Blend: DEF2-UNIVERSAL-JKFIT
  @DF-UKS Final Energy:  -399.34338429953732
    Total Energy =                       -399.3433842995373197
  Basis Set: CC-PVDZ
    Blend: CC-PVDZ
  Basis Set: (CC-PVDZ AUX)
    Blend: DEF2-UNIVERSAL-JKFIT
  Basis Set: CC-PVDZ
    Blend: CC-PVDZ
  @DF-UKS Final Energy:  -399.35744563835118
    Total Energy =                       -399.3574456383511802
  @DF-UKS Final Energy:  -399.40885031500346
    Total Energy =                       -399.4088503150034057
  @DF-UKS Final Energy:  -399.65231536162742
    Total Energy =                       -399.6523153616274726
  @DF-UKS Final Energy:  -399.80063502333019
    Total Energy =                       -399.8006350233301873
  @DF-UKS Final Energy:  -399.95646739874377
    Total Energy =                       -399.9564673987437686
  @DF-UKS Final Energy:  -400.08433227297240
    Total Energy =                       -400.0843322729724605
  @DF-UKS Final Energy:  -400.10769784758747
    Total Energy =                       -400.1076978475875308
  @DF-UKS Final Energy:  -400.14829515812403
    Total Energy =                       -400.1482951581239718
  @DF-UKS Final Energy:  -400.15355396303733
    Total Energy =                       -400.1535539630372114
  @DF-UKS Final Energy:  -400.17019138201761
    Total Energy =                       -400.1701913820176060
  @DF-UKS Final Energy:  -400.17135477691738
    Total Energy =                       -400.1713547769173829
  @DF-UKS Final Energy:  -400.17831840955637
    Total Energy =                       -400.1783184095564252
  @DF-UKS Final Energy:  -400.18083478100425
    Total Energy =                       -400.1808347810042505
  @DF-UKS Final Energy:  -400.18208393091709
    Total Energy =                       -400.1820839309171447
  @DF-UKS Final Energy:  -400.18260248623983
    Total Energy =                       -400.1826024862398299
  @DF-UKS Final Energy:  -400.18279466812970
    Total Energy =                       -400.1827946681297021
  @DF-UKS Final Energy:  -400.18285041240898
    Total Energy =                       -400.1828504124090387
  @DF-UKS Final Energy:  -400.18285927668160
    Total Energy =                       -400.1828592766815405
  Basis Set: (CC-PVDZ AUX)
    Blend: DEF2-UNIVERSAL-JKFIT
  Basis Set: CC-PVDZ
    Blend: CC-PVDZ
  Basis Set: (CC-PVDZ AUX)
    Blend: DEF2-UNIVERSAL-JKFIT
  @DF-UKS Final Energy:  -400.18286107816459
    Total Energy =                       -400.1828610781645921
  Basis Set: CC-PVDZ
    Blend: CC-PVDZ
  Basis Set: (CC-PVDZ AUX)
    Blend: DEF2-UNIVERSAL-JKFIT
  Charge       = 0
  Multiplicity = 1
  Basis Set: CC-PVDZ
    Blend: CC-PVDZ
  Basis Set: (CC-PVDZ AUX)
    Blend: DEF2-UNIVERSAL-JKFIT

    Orbital Energies [Eh]
    ---------------------

    Alpha Occupied:

       1B2u  -46.819082     1Ag   -46.819082     2B2u   -3.099536
       2Ag    -3.099494     1B1g   -1.842946     1B3g   -1.842946
       1B3u   -1.842945     1B1u   -1.842945     3Ag    -1.842682
       3B2u   -1.842668     4Ag    -0.215492     4B2u   -0.178462

    Alpha Virtual:

       5Ag    -0.049692     2B1u   -0.045088     2B3u   -0.045088
       2B3g   -0.015922     2B1g   -0.015922     5B2u    0.018100
       6Ag     0.103229     6B2u    0.140847     7Ag     0.157536
       3B1u    0.165067     3B3u    0.165067     3B3g    0.174434
       3B1g    0.174434     7B2u    0.188420     4B1u    0.293336
       4B3u    0.293336     8Ag     0.304359     9Ag     0.317680
       1B2g    0.317681     8B2u    0.326131     1Au     0.326132
       4B3g    0.363626     4B1g    0.363626     9B2u    0.464575

    Beta Occupied:

       1B2u  -46.819082     1Ag   -46.819082     2B2u   -3.099536
       2Ag    -3.099494     1B1g   -1.842946     1B3g   -1.842946
       1B3u   -1.842945     1B1u   -1.842945     3Ag    -1.842682
       3B2u   -1.842668     4Ag    -0.215492     4B2u   -0.178462

    Beta Virtual:

       5Ag    -0.049692     2B1u   -0.045088     2B3u   -0.045088
       2B3g   -0.015922     2B1g   -0.015922     5B2u    0.018100
       6Ag     0.103229     6B2u    0.140847     7Ag     0.157536
       3B1u    0.165067     3B3u    0.165067     3B3g    0.174434
       3B1g    0.174434     7B2u    0.188420     4B1u    0.293336
       4B3u    0.293336     8Ag     0.304359     9Ag     0.317680
       1B2g    0.317681     8B2u    0.326131     1Au     0.326132
       4B3g    0.363626     4B1g    0.363626     9B2u    0.464575

    Final Occupation by Irrep:
             Ag   B1g   B2g   B3g    Au   B1u   B2u   B3u
    DOCC [     4,    1,    0,    1,    0,    1,    4,    1 ]
    SOCC [     0,    0,    0,    0,    0,    0,    0,    0 ]
    NA   [     4,    1,    0,    1,    0,    1,    4,    1 ]
    NB   [     4,    1,    0,    1,    0,    1,    4,    1 ]

  @DF-UKS Final Energy:  -400.18286116700187

   => Energetics <=

    Nuclear Repulsion Energy =             19.4204474165966339
    One-Electron Energy =                -597.6738891323489042
    Two-Electron Energy =                 204.6081303205948814
    DFT Exchange-Correlation Energy =     -26.5375497718444535
    Empirical Dispersion Energy =           0.0000000000000000
    VV10 Nonlocal Energy =                  0.0000000000000000
    Total Energy =                       -400.1828611670018176

  UHF NO Occupations:
  HONO-2 :    1B1u 2.0000000
  HONO-1 :    3B2u 2.0000000
  HONO-0 :    4B2u 2.0000000
  LUNO+0 :    5B2u 0.0000000
  LUNO+1 :    2B3g 0.0000000
  LUNO+2 :    6B2u 0.0000000
  LUNO+3 :    2B1u 0.0000000

Computation Completed

Properties will be evaluated at   0.000000,   0.000000,   0.000000 [a0]

Properties computed using the SCF density matrix

 Multipole Moments:

 ------------------------------------------------------------------------------------
     Multipole            Electronic (a.u.)      Nuclear  (a.u.)        Total (a.u.)
 ------------------------------------------------------------------------------------

 L = 1.  Multiply by 2.5417464519 to convert [e a0] to [Debye]
 Dipole X            :          0.0000000            0.0000000            0.0000000
 Dipole Y            :          0.0000000            0.0000000            0.0000000
 Dipole Z            :          0.0000000            0.0000000            0.0000000
 Magnitude           :                                                    0.0000000

 ------------------------------------------------------------------------------------

*** tstop() called on Joses-MacBook-Pro-2.local at Wed Jul 16 19:53:48 2025
Module time:
	user time   =       5.64 seconds =       0.09 minutes
	system time =       2.79 seconds =       0.05 minutes
	total time  =          1 seconds =       0.02 minutes
Total time:
	user time   =     231.18 seconds =       3.85 minutes
	system time =     104.91 seconds =       1.75 minutes
	total time  =         33 seconds =       0.55 minutes

*** tstart() called on Joses-MacBook-Pro-2.local
*** at Wed Jul 16 19:53:48 2025

         ------------------------------------------------------------
                                   SCF GRAD
                          Rob Parrish, Justin Turney,
                       Andy Simmonett, and Alex Sokolov
         ------------------------------------------------------------

  ==> Geometry <==

    Molecular point group: d2h
    Full point group: D_inf_h

    Geometry (in Angstrom), charge = 0, multiplicity = 1:

       Center              X                  Y                   Z               Mass
    ------------   -----------------  -----------------  -----------------  -----------------
         MG          -0.000000000000     1.961888845860     0.000000000000    23.985041697000
         MG           0.000000000000    -1.961888845860     0.000000000000    23.985041697000

  Nuclear repulsion =   19.420447416596634

  ==> Basis Set <==

  Basis Set: CC-PVDZ
    Blend: CC-PVDZ
    Number of shells: 16
    Number of basis functions: 36
    Number of Cartesian functions: 38
    Spherical Harmonics?: true
    Max angular momentum: 2

  ==> DFJKGrad: Density-Fitted SCF Gradients <==

    Gradient:                    1
    J tasked:                  Yes
    K tasked:                  Yes
    wK tasked:                  No
    OpenMP threads:              1
    Integrals threads:           1
    Memory [MiB]:              375
    Schwarz Cutoff:          1E-12
    Fitting Condition:       1E-10

   => Auxiliary Basis Set <=

  Basis Set: (CC-PVDZ AUX)
    Blend: DEF2-UNIVERSAL-JKFIT
    Number of shells: 68
    Number of basis functions: 224
    Number of Cartesian functions: 274
    Spherical Harmonics?: true
    Max angular momentum: 4

  ==> DFT Potential <==

   => LibXC <=

    Version 6.2.2
    S. Lehtola, C. Steigemann, M. J.T. Oliveira, and M. A.L. Marques.,  SoftwareX 7, 1â€“5 (2018) (10.1016/j.softx.2017.11.002)

   => Composite Functional: B3LYP <=

    B3LYP Hyb-GGA Exchange-Correlation Functional

    P. J. Stephens, F. J. Devlin, C. F. Chabalowski, and M. J. Frisch.,  J. Phys. Chem. 98, 11623 (1994) (10.1021/j100096a001)

    Deriv               =              1
    GGA                 =           TRUE
    Meta                =          FALSE

    Exchange Hybrid     =           TRUE
    MP2 Hybrid          =          FALSE

   => Exchange Functionals <=

    0.0800   Slater exchange
    0.7200         Becke 88

   => Exact (HF) Exchange <=

    0.2000               HF

   => Correlation Functionals <=

    0.1900   Vosko, Wilk & Nusair (VWN5_RPA)
    0.8100   Lee, Yang & Parr

   => LibXC Density Thresholds  <==

    XC_HYB_GGA_XC_B3LYP:  1.00E-15

   => Molecular Quadrature <=

    Radial Scheme          =       TREUTLER
    Pruning Scheme         =           NONE
    Nuclear Scheme         =       TREUTLER

    Blocking Scheme        =         OCTREE
    BS radius alpha        =              1
    Pruning alpha          =              1
    Radial Points          =             75
    Spherical Points       =            302
    Total Points           =          42460
    Total Blocks           =            420
    Max Points             =            252
    Max Functions          =             36
    Weights Tolerance      =       1.00E-15

  -Total Gradient:
     Atom            X                  Y                   Z
    ------   -----------------  -----------------  -----------------
       1        0.000000000000    -0.000006619244     0.000000000000
       2       -0.000000000000     0.000006619244     0.000000000000

*** tstop() called on Joses-MacBook-Pro-2.local at Wed Jul 16 19:53:48 2025
Module time:
	user time   =       3.26 seconds =       0.05 minutes
	system time =       1.59 seconds =       0.03 minutes
	total time  =          0 seconds =       0.00 minutes
Total time:
	user time   =     234.46 seconds =       3.91 minutes
	system time =     106.50 seconds =       1.77 minutes
	total time  =         33 seconds =       0.55 minutes

    			-----------------------------------------

    			 OPTKING 3.0: for geometry optimizations

    			     By R.A. King, Bethel University

    			        with contributions from

    			    A.V. Copan, J. Cayton, A. Heide

    			-----------------------------------------

	                            ===> Fragment 1 <==

	 Z (Atomic Numbers)          Masses                          Geom
	      12.000000            23.985042         -0.00000000  3.70743261  0.00000000
	      12.000000            23.985042          0.00000000 -3.70743261  0.00000000

	 - Coordinate -           - BOHR/RAD -       - ANG/DEG -
	 R(1,2)           =         7.414865           3.923778

	        --- Internal Coordinate Step in ANG or DEG, aJ/ANG or AJ/DEG ---
	-------------------------------------------------------------------------------
	           Coordinate      Previous         Force          Change          New
	           ----------      --------        ------          ------        ------
	               R(1,2)       3.92378        0.00005        0.00233       3.92611
	-------------------------------------------------------------------------------

	                                 ==> Convergence Check <==

	Measures of convergence in internal coordinates in au.

	Criteria marked as inactive (o), active & met (*), and active & unmet ( ).

	----------------------------------------------------------------------------------------------
	   Step    Total Energy     Delta E     Max Force     RMS Force      Max Disp      RMS Disp
	----------------------------------------------------------------------------------------------
	  Convergence Criteria     1.00e-06 *    3.00e-04 *             o    1.20e-03 *             o
	----------------------------------------------------------------------------------------------
	    22    -400.18286117   -8.88e-08 *    6.62e-06 *    6.62e-06 o    4.40e-03      4.40e-03 o  ~
	----------------------------------------------------------------------------------------------

Next Geometry in Ang
	Fragment 1 (Ang)

	   Mg  -0.0000000000   1.9630541236   0.0000000000
	   Mg   0.0000000000  -1.9630541236   0.0000000000

    Final optimized geometry and variables:
    Molecular point group: d2h
    Full point group: D_inf_h

    Geometry (in Angstrom), charge = 0, multiplicity = 1:

    MG          -0.000000000000     1.961888845860     0.000000000000
    MG           0.000000000000    -1.961888845860     0.000000000000

    Psi4 stopped on: Wednesday, 16 July 2025 07:53PM
    Psi4 wall time for execution: 0:00:33.63

*** Psi4 exiting successfully. Buy a developer a beer!
