                               Psi4 1.9.1 release

  ==> Input File <==

--------------------------------------------------------------------------
molecule {
0 1
Be   0.00000        0.60000        0.00000
Si   0.00000       -0.60000        0.00000
}

set {
basis              cc-pvdz
reference          uks
maxiter            500
geom_maxiter       500
DAMPING_PERCENTAGE 1
guess              SAP
}

optimize('b3lyp')
--------------------------------------------------------------------------

    Molecular point group: c2v
  Charge       = 0
  Multiplicity = 1
  Basis Set: CC-PVDZ
    Blend: CC-PVDZ
  Basis Set: (CC-PVDZ AUX)
    Blend: CC-PVDZ-JKFIT + DEF2-UNIVERSAL-JKFIT
  @DF-UKS Final Energy:  -303.60313171068731
    Total Energy =                       -303.6031317106873644
 Dipole X            :          0.0000000            0.0000000            0.0000000
 Dipole Y            :          0.0000000            0.0000000            0.0000000
 Dipole Z            :          0.7525965           -0.8744053           -0.1218087
 Magnitude           :                                                    0.1218087
    Molecular point group: c2v
  Basis Set: CC-PVDZ
    Blend: CC-PVDZ
  Basis Set: (CC-PVDZ AUX)
    Blend: CC-PVDZ-JKFIT + DEF2-UNIVERSAL-JKFIT
  Basis Set: CC-PVDZ
    Blend: CC-PVDZ
  Basis Set: (CC-PVDZ AUX)
    Blend: CC-PVDZ-JKFIT + DEF2-UNIVERSAL-JKFIT
  @DF-UKS Final Energy:  -303.73068569317792
    Total Energy =                       -303.7306856931779180
  Basis Set: CC-PVDZ
    Blend: CC-PVDZ
  Basis Set: (CC-PVDZ AUX)
    Blend: CC-PVDZ-JKFIT + DEF2-UNIVERSAL-JKFIT
  Basis Set: CC-PVDZ
    Blend: CC-PVDZ
  @DF-UKS Final Energy:  -303.84364945799331
    Total Energy =                       -303.8436494579933083
  @DF-UKS Final Energy:  -303.97438794455576
    Total Energy =                       -303.9743879445557582
  @DF-UKS Final Energy:  -304.07873245243223
    Total Energy =                       -304.0787324524322344
  @DF-UKS Final Energy:  -304.07980561536868
    Total Energy =                       -304.0798056153686844
  @DF-UKS Final Energy:  -304.08118122985462
    Total Energy =                       -304.0811812298546783
  @DF-UKS Final Energy:  -304.08123677689559
    Total Energy =                       -304.0812367768955937
  Basis Set: (CC-PVDZ AUX)
    Blend: CC-PVDZ-JKFIT + DEF2-UNIVERSAL-JKFIT
  Basis Set: CC-PVDZ
    Blend: CC-PVDZ
  Basis Set: (CC-PVDZ AUX)
    Blend: CC-PVDZ-JKFIT + DEF2-UNIVERSAL-JKFIT
  @DF-UKS Final Energy:  -304.08123918029690
    Total Energy =                       -304.0812391802969046
  Basis Set: CC-PVDZ
    Blend: CC-PVDZ
  Basis Set: (CC-PVDZ AUX)
    Blend: CC-PVDZ-JKFIT + DEF2-UNIVERSAL-JKFIT
  Charge       = 0
  Multiplicity = 1
  Basis Set: CC-PVDZ
    Blend: CC-PVDZ
  Basis Set: (CC-PVDZ AUX)
    Blend: CC-PVDZ-JKFIT + DEF2-UNIVERSAL-JKFIT

    Orbital Energies [Eh]
    ---------------------

    Alpha Occupied:

       1A1   -66.154672     2A1    -5.295498     3A1    -4.091904
       1B2    -3.659455     4A1    -3.652495     1B1    -3.647676
       5A1    -0.445826     6A1    -0.245018     2B1    -0.167554

    Alpha Virtual:

       2B2    -0.133145     7A1    -0.120115     3B2    -0.022555
       3B1    -0.019571     8A1     0.076037     9A1     0.168166
       4B2     0.179457    10A1     0.180533     4B1     0.182477
      11A1     0.317431     5B2     0.323862     5B1     0.334521
       1A2     0.356226    12A1     0.359466     6B2     0.374810
       6B1     0.388431    13A1     0.451050     2A2     0.505145
      14A1     0.507559    15A1     0.658829     7B2     0.683900
       7B1     0.695342    16A1     0.869053

    Beta Occupied:

       1A1   -66.154672     2A1    -5.295498     3A1    -4.091904
       1B2    -3.659455     4A1    -3.652495     1B1    -3.647676
       5A1    -0.445826     6A1    -0.245018     2B1    -0.167554

    Beta Virtual:

       2B2    -0.133145     7A1    -0.120115     3B2    -0.022555
       3B1    -0.019571     8A1     0.076037     9A1     0.168166
       4B2     0.179457    10A1     0.180533     4B1     0.182477
      11A1     0.317431     5B2     0.323862     5B1     0.334521
       1A2     0.356226    12A1     0.359466     6B2     0.374810
       6B1     0.388431    13A1     0.451050     2A2     0.505145
      14A1     0.507559    15A1     0.658829     7B2     0.683900
       7B1     0.695342    16A1     0.869053

    Final Occupation by Irrep:
             A1    A2    B1    B2
    DOCC [     6,    0,    2,    1 ]
    SOCC [     0,    0,    0,    0 ]
    NA   [     6,    0,    2,    1 ]
    NB   [     6,    0,    2,    1 ]

  @DF-UKS Final Energy:  -304.08123928824773

   => Energetics <=

    Nuclear Repulsion Energy =             13.9585234369413307
    One-Electron Energy =                -447.7543919863683755
    Two-Electron Energy =                 148.7690857592368445
    DFT Exchange-Correlation Energy =     -19.0544564980574940
    Empirical Dispersion Energy =           0.0000000000000000
    VV10 Nonlocal Energy =                  0.0000000000000000
    Total Energy =                       -304.0812392882476729

  UHF NO Occupations:
  HONO-2 :    4 A1 2.0000000
  HONO-1 :    5 A1 2.0000000
  HONO-0 :    6 A1 2.0000000
  LUNO+0 :    7 A1 0.0000000
  LUNO+1 :    8 A1 0.0000000
  LUNO+2 :    9 A1 0.0000000
  LUNO+3 :    3 B1 0.0000000

Computation Completed

Properties will be evaluated at   0.000000,   0.000000,   0.000000 [a0]

Properties computed using the SCF density matrix

 Multipole Moments:

 ------------------------------------------------------------------------------------
     Multipole            Electronic (a.u.)      Nuclear  (a.u.)        Total (a.u.)
 ------------------------------------------------------------------------------------

 L = 1.  Multiply by 2.5417464519 to convert [e a0] to [Debye]
 Dipole X            :          0.0000000            0.0000000            0.0000000
 Dipole Y            :          0.0000000            0.0000000            0.0000000
 Dipole Z            :          2.2638099           -1.5469675            0.7168424
 Magnitude           :                                                    0.7168424

 ------------------------------------------------------------------------------------

*** tstop() called on Joses-MacBook-Pro-2.local at Wed Jul 16 18:44:30 2025
Module time:
	user time   =       3.51 seconds =       0.06 minutes
	system time =       2.52 seconds =       0.04 minutes
	total time  =          1 seconds =       0.02 minutes
Total time:
	user time   =      45.13 seconds =       0.75 minutes
	system time =      51.61 seconds =       0.86 minutes
	total time  =         10 seconds =       0.17 minutes

*** tstart() called on Joses-MacBook-Pro-2.local
*** at Wed Jul 16 18:44:30 2025

         ------------------------------------------------------------
                                   SCF GRAD
                          Rob Parrish, Justin Turney,
                       Andy Simmonett, and Alex Sokolov
         ------------------------------------------------------------

  ==> Geometry <==

    Molecular point group: c2v
    Full point group: C_inf_v

    Geometry (in Angstrom), charge = 0, multiplicity = 1:

       Center              X                  Y                   Z               Mass
    ------------   -----------------  -----------------  -----------------  -----------------
         BE           0.000000000000     0.000000000000     1.605742140475     9.012183065000
         SI           0.000000000000     0.000000000000    -0.517256322177    27.976926534650

  Nuclear repulsion =   13.958523436941331

  ==> Basis Set <==

  Basis Set: CC-PVDZ
    Blend: CC-PVDZ
    Number of shells: 14
    Number of basis functions: 32
    Number of Cartesian functions: 34
    Spherical Harmonics?: true
    Max angular momentum: 2

  ==> DFJKGrad: Density-Fitted SCF Gradients <==

    Gradient:                    1
    J tasked:                  Yes
    K tasked:                  Yes
    wK tasked:                  No
    OpenMP threads:              1
    Integrals threads:           1
    Memory [MiB]:              375
    Schwarz Cutoff:          1E-12
    Fitting Condition:       1E-10

   => Auxiliary Basis Set <=

  Basis Set: (CC-PVDZ AUX)
    Blend: CC-PVDZ-JKFIT + DEF2-UNIVERSAL-JKFIT
    Number of shells: 53
    Number of basis functions: 163
    Number of Cartesian functions: 190
    Spherical Harmonics?: true
    Max angular momentum: 3

  ==> DFT Potential <==

   => LibXC <=

    Version 6.2.2
    S. Lehtola, C. Steigemann, M. J.T. Oliveira, and M. A.L. Marques.,  SoftwareX 7, 1â€“5 (2018) (10.1016/j.softx.2017.11.002)

   => Composite Functional: B3LYP <=

    B3LYP Hyb-GGA Exchange-Correlation Functional

    P. J. Stephens, F. J. Devlin, C. F. Chabalowski, and M. J. Frisch.,  J. Phys. Chem. 98, 11623 (1994) (10.1021/j100096a001)

    Deriv               =              1
    GGA                 =           TRUE
    Meta                =          FALSE

    Exchange Hybrid     =           TRUE
    MP2 Hybrid          =          FALSE

   => Exchange Functionals <=

    0.0800   Slater exchange
    0.7200         Becke 88

   => Exact (HF) Exchange <=

    0.2000               HF

   => Correlation Functionals <=

    0.1900   Vosko, Wilk & Nusair (VWN5_RPA)
    0.8100   Lee, Yang & Parr

   => LibXC Density Thresholds  <==

    XC_HYB_GGA_XC_B3LYP:  1.00E-15

   => Molecular Quadrature <=

    Radial Scheme          =       TREUTLER
    Pruning Scheme         =           NONE
    Nuclear Scheme         =       TREUTLER

    Blocking Scheme        =         OCTREE
    BS radius alpha        =              1
    Pruning alpha          =              1
    Radial Points          =             75
    Spherical Points       =            302
    Total Points           =          42487
    Total Blocks           =            394
    Max Points             =            255
    Max Functions          =             32
    Weights Tolerance      =       1.00E-15

  -Total Gradient:
     Atom            X                  Y                   Z
    ------   -----------------  -----------------  -----------------
       1       -0.000000000000    -0.000000000000    -0.000033622198
       2       -0.000000000000    -0.000000000000     0.000028029724

*** tstop() called on Joses-MacBook-Pro-2.local at Wed Jul 16 18:44:30 2025
Module time:
	user time   =       0.91 seconds =       0.02 minutes
	system time =       1.40 seconds =       0.02 minutes
	total time  =          0 seconds =       0.00 minutes
Total time:
	user time   =      46.05 seconds =       0.77 minutes
	system time =      53.01 seconds =       0.88 minutes
	total time  =         10 seconds =       0.17 minutes

    			-----------------------------------------

    			 OPTKING 3.0: for geometry optimizations

    			     By R.A. King, Bethel University

    			        with contributions from

    			    A.V. Copan, J. Cayton, A. Heide

    			-----------------------------------------

	                            ===> Fragment 1 <==

	 Z (Atomic Numbers)          Masses                          Geom
	       4.000000             9.012183          0.00000000  0.00000000  3.03441287
	      14.000000            27.976927          0.00000000  0.00000000 -0.97747279

	 - Coordinate -           - BOHR/RAD -       - ANG/DEG -
	 R(1,2)           =         4.011886           2.122998

	        --- Internal Coordinate Step in ANG or DEG, aJ/ANG or AJ/DEG ---
	-------------------------------------------------------------------------------
	           Coordinate      Previous         Force          Change          New
	           ----------      --------        ------          ------        ------
	               R(1,2)       2.12300        0.00025        0.00015       2.12314
	-------------------------------------------------------------------------------

	                                 ==> Convergence Check <==

	Measures of convergence in internal coordinates in au.

	Criteria marked as inactive (o), active & met (*), and active & unmet ( ).

	----------------------------------------------------------------------------------------------
	   Step    Total Energy     Delta E     Max Force     RMS Force      Max Disp      RMS Disp
	----------------------------------------------------------------------------------------------
	  Convergence Criteria     1.00e-06 *    3.00e-04 *             o    1.20e-03 *             o
	----------------------------------------------------------------------------------------------
	    10    -304.08123929   -1.08e-07 *    3.08e-05 *    3.08e-05 o    2.76e-04 *    2.76e-04 o  ~
	----------------------------------------------------------------------------------------------

Next Geometry in Ang
	Fragment 1 (Ang)

	   Be   0.0000000000   0.0000000000   1.6058152868
	   Si   0.0000000000   0.0000000000  -0.5173294685

    Final optimized geometry and variables:
    Molecular point group: c2v
    Full point group: C_inf_v

    Geometry (in Angstrom), charge = 0, multiplicity = 1:

    BE           0.000000000000     0.000000000000     1.605742140475
    SI           0.000000000000     0.000000000000    -0.517256322177

    Psi4 stopped on: Wednesday, 16 July 2025 06:44PM
    Psi4 wall time for execution: 0:00:10.17

*** Psi4 exiting successfully. Buy a developer a beer!
