                               Psi4 1.9.1 release

  ==> Input File <==

--------------------------------------------------------------------------
molecule {
0 1
Be   0.00000        0.60000        0.00000
Mg   0.00000       -0.60000        0.00000
}

set {
basis              cc-pvdz
reference          uks
maxiter            500
geom_maxiter       500
DAMPING_PERCENTAGE 1
guess              SAP
}

optimize('b3lyp')
--------------------------------------------------------------------------

    Molecular point group: c2v
  Charge       = 0
  Multiplicity = 1
  Basis Set: CC-PVDZ
    Blend: CC-PVDZ
  Basis Set: (CC-PVDZ AUX)
    Blend: DEF2-UNIVERSAL-JKFIT
  @DF-UKS Final Energy:  -214.25498536901094
    Total Energy =                       -214.2549853690109387
 Dipole X            :          0.0000000            0.0000000            0.0000000
 Dipole Y            :          0.0000000            0.0000000            0.0000000
 Dipole Z            :          0.0091866           -0.8388361           -0.8296496
 Magnitude           :                                                    0.8296496
    Molecular point group: c2v
  Basis Set: CC-PVDZ
    Blend: CC-PVDZ
  Basis Set: (CC-PVDZ AUX)
    Blend: DEF2-UNIVERSAL-JKFIT
  Basis Set: CC-PVDZ
    Blend: CC-PVDZ
  Basis Set: (CC-PVDZ AUX)
    Blend: DEF2-UNIVERSAL-JKFIT
  @DF-UKS Final Energy:  -214.33754496953844
    Total Energy =                       -214.3375449695384418
  Basis Set: CC-PVDZ
    Blend: CC-PVDZ
  Basis Set: (CC-PVDZ AUX)
    Blend: DEF2-UNIVERSAL-JKFIT
  Basis Set: CC-PVDZ
    Blend: CC-PVDZ
  @DF-UKS Final Energy:  -214.43630423853887
    Total Energy =                       -214.4363042385388667
  @DF-UKS Final Energy:  -214.55433775177232
    Total Energy =                       -214.5543377517723229
  @DF-UKS Final Energy:  -214.66341450597201
    Total Energy =                       -214.6634145059720424
  @DF-UKS Final Energy:  -214.74251898594039
    Total Energy =                       -214.7425189859404213
  @DF-UKS Final Energy:  -214.74870014823327
    Total Energy =                       -214.7487001482332687
  @DF-UKS Final Energy:  -214.75881464768480
    Total Energy =                       -214.7588146476847726
  @DF-UKS Final Energy:  -214.76241962571319
    Total Energy =                       -214.7624196257131928
  @DF-UKS Final Energy:  -214.76400872509799
    Total Energy =                       -214.7640087250980230
  @DF-UKS Final Energy:  -214.76456386662599
    Total Energy =                       -214.7645638666259913
  @DF-UKS Final Energy:  -214.76471691520459
    Total Energy =                       -214.7647169152045876
  @DF-UKS Final Energy:  -214.76473955485844
    Total Energy =                       -214.7647395548584370
  Basis Set: (CC-PVDZ AUX)
    Blend: DEF2-UNIVERSAL-JKFIT
  Basis Set: CC-PVDZ
    Blend: CC-PVDZ
  Basis Set: (CC-PVDZ AUX)
    Blend: DEF2-UNIVERSAL-JKFIT
  @DF-UKS Final Energy:  -214.76474340695265
    Total Energy =                       -214.7647434069526184
  Basis Set: CC-PVDZ
    Blend: CC-PVDZ
  Basis Set: (CC-PVDZ AUX)
    Blend: DEF2-UNIVERSAL-JKFIT
  Charge       = 0
  Multiplicity = 1
  Basis Set: CC-PVDZ
    Blend: CC-PVDZ
  Basis Set: (CC-PVDZ AUX)
    Blend: DEF2-UNIVERSAL-JKFIT

    Orbital Energies [Eh]
    ---------------------

    Alpha Occupied:

       1A1   -46.824946     2A1    -4.078029     3A1    -3.105067
       1B1    -1.848675     1B2    -1.848675     4A1    -1.848003
       5A1    -0.252609     6A1    -0.181742

    Alpha Virtual:

       7A1    -0.064763     2B1    -0.060954     2B2    -0.060954
       3B1    -0.015299     3B2    -0.015299     8A1     0.031753
       9A1     0.103410     4B2     0.163694     4B1     0.163694
      10A1     0.164309    11A1     0.192688     5B2     0.207396
       5B1     0.207396    12A1     0.301820     6B1     0.309989
       6B2     0.309989    13A1     0.316870     1A2     0.316870
      14A1     0.382341     2A2     0.484389    15A1     0.484390
       7B1     0.534764     7B2     0.534764    16A1     0.686875

    Beta Occupied:

       1A1   -46.824946     2A1    -4.078029     3A1    -3.105067
       1B1    -1.848675     1B2    -1.848675     4A1    -1.848003
       5A1    -0.252609     6A1    -0.181742

    Beta Virtual:

       7A1    -0.064763     2B1    -0.060954     2B2    -0.060954
       3B1    -0.015299     3B2    -0.015299     8A1     0.031753
       9A1     0.103410     4B2     0.163694     4B1     0.163694
      10A1     0.164309    11A1     0.192688     5B2     0.207396
       5B1     0.207396    12A1     0.301820     6B1     0.309989
       6B2     0.309989    13A1     0.316870     1A2     0.316870
      14A1     0.382341     2A2     0.484389    15A1     0.484390
       7B1     0.534764     7B2     0.534764    16A1     0.686875

    Final Occupation by Irrep:
             A1    A2    B1    B2
    DOCC [     6,    0,    1,    1 ]
    SOCC [     0,    0,    0,    0 ]
    NA   [     6,    0,    1,    1 ]
    NB   [     6,    0,    1,    1 ]

  @DF-UKS Final Energy:  -214.76474409761784

   => Energetics <=

    Nuclear Repulsion Energy =              8.0478628390613043
    One-Electron Energy =                -314.5457459945113214
    Two-Electron Energy =                 107.2469677084979054
    DFT Exchange-Correlation Energy =     -15.5138286506656868
    Empirical Dispersion Energy =           0.0000000000000000
    VV10 Nonlocal Energy =                  0.0000000000000000
    Total Energy =                       -214.7647440976178359

  UHF NO Occupations:
  HONO-2 :    5 A1 2.0000000
  HONO-1 :    1 B1 2.0000000
  HONO-0 :    6 A1 2.0000000
  LUNO+0 :    7 A1 0.0000000
  LUNO+1 :    8 A1 0.0000000
  LUNO+2 :    9 A1 0.0000000
  LUNO+3 :    2 B2 0.0000000

Computation Completed

Properties will be evaluated at   0.000000,   0.000000,   0.000000 [a0]

Properties computed using the SCF density matrix

 Multipole Moments:

 ------------------------------------------------------------------------------------
     Multipole            Electronic (a.u.)      Nuclear  (a.u.)        Total (a.u.)
 ------------------------------------------------------------------------------------

 L = 1.  Multiply by 2.5417464519 to convert [e a0] to [Debye]
 Dipole X            :          0.0000000            0.0000000            0.0000000
 Dipole Y            :          0.0000000            0.0000000            0.0000000
 Dipole Z            :          2.0058238           -2.2062651           -0.2004413
 Magnitude           :                                                    0.2004413

 ------------------------------------------------------------------------------------

*** tstop() called on Joses-MacBook-Pro-2.local at Wed Jul 16 18:43:15 2025
Module time:
	user time   =       3.36 seconds =       0.06 minutes
	system time =       2.18 seconds =       0.04 minutes
	total time  =          1 seconds =       0.02 minutes
Total time:
	user time   =      73.01 seconds =       1.22 minutes
	system time =      78.11 seconds =       1.30 minutes
	total time  =         15 seconds =       0.25 minutes

*** tstart() called on Joses-MacBook-Pro-2.local
*** at Wed Jul 16 18:43:15 2025

         ------------------------------------------------------------
                                   SCF GRAD
                          Rob Parrish, Justin Turney,
                       Andy Simmonett, and Alex Sokolov
         ------------------------------------------------------------

  ==> Geometry <==

    Molecular point group: c2v
    Full point group: C_inf_v

    Geometry (in Angstrom), charge = 0, multiplicity = 1:

       Center              X                  Y                   Z               Mass
    ------------   -----------------  -----------------  -----------------  -----------------
         BE           0.000000000000     0.000000000000     2.294166146782     9.012183065000
         MG           0.000000000000     0.000000000000    -0.862014148548    23.985041697000

  Nuclear repulsion =    8.047862839061304

  ==> Basis Set <==

  Basis Set: CC-PVDZ
    Blend: CC-PVDZ
    Number of shells: 14
    Number of basis functions: 32
    Number of Cartesian functions: 34
    Spherical Harmonics?: true
    Max angular momentum: 2

  ==> DFJKGrad: Density-Fitted SCF Gradients <==

    Gradient:                    1
    J tasked:                  Yes
    K tasked:                  Yes
    wK tasked:                  No
    OpenMP threads:              1
    Integrals threads:           1
    Memory [MiB]:              375
    Schwarz Cutoff:          1E-12
    Fitting Condition:       1E-10

   => Auxiliary Basis Set <=

  Basis Set: (CC-PVDZ AUX)
    Blend: DEF2-UNIVERSAL-JKFIT
    Number of shells: 51
    Number of basis functions: 163
    Number of Cartesian functions: 197
    Spherical Harmonics?: true
    Max angular momentum: 4

  ==> DFT Potential <==

   => LibXC <=

    Version 6.2.2
    S. Lehtola, C. Steigemann, M. J.T. Oliveira, and M. A.L. Marques.,  SoftwareX 7, 1â€“5 (2018) (10.1016/j.softx.2017.11.002)

   => Composite Functional: B3LYP <=

    B3LYP Hyb-GGA Exchange-Correlation Functional

    P. J. Stephens, F. J. Devlin, C. F. Chabalowski, and M. J. Frisch.,  J. Phys. Chem. 98, 11623 (1994) (10.1021/j100096a001)

    Deriv               =              1
    GGA                 =           TRUE
    Meta                =          FALSE

    Exchange Hybrid     =           TRUE
    MP2 Hybrid          =          FALSE

   => Exchange Functionals <=

    0.0800   Slater exchange
    0.7200         Becke 88

   => Exact (HF) Exchange <=

    0.2000               HF

   => Correlation Functionals <=

    0.1900   Vosko, Wilk & Nusair (VWN5_RPA)
    0.8100   Lee, Yang & Parr

   => LibXC Density Thresholds  <==

    XC_HYB_GGA_XC_B3LYP:  1.00E-15

   => Molecular Quadrature <=

    Radial Scheme          =       TREUTLER
    Pruning Scheme         =           NONE
    Nuclear Scheme         =       TREUTLER

    Blocking Scheme        =         OCTREE
    BS radius alpha        =              1
    Pruning alpha          =              1
    Radial Points          =             75
    Spherical Points       =            302
    Total Points           =          43023
    Total Blocks           =            424
    Max Points             =            255
    Max Functions          =             32
    Weights Tolerance      =       1.00E-15

  -Total Gradient:
     Atom            X                  Y                   Z
    ------   -----------------  -----------------  -----------------
       1       -0.000000000000    -0.000000000000    -0.000039202975
       2        0.000000000000     0.000000000000     0.000036131647

*** tstop() called on Joses-MacBook-Pro-2.local at Wed Jul 16 18:43:15 2025
Module time:
	user time   =       0.96 seconds =       0.02 minutes
	system time =       1.79 seconds =       0.03 minutes
	total time  =          0 seconds =       0.00 minutes
Total time:
	user time   =      73.97 seconds =       1.23 minutes
	system time =      79.90 seconds =       1.33 minutes
	total time  =         15 seconds =       0.25 minutes

    			-----------------------------------------

    			 OPTKING 3.0: for geometry optimizations

    			     By R.A. King, Bethel University

    			        with contributions from

    			    A.V. Copan, J. Cayton, A. Heide

    			-----------------------------------------

	                            ===> Fragment 1 <==

	 Z (Atomic Numbers)          Masses                          Geom
	       4.000000             9.012183          0.00000000  0.00000000  4.33534570
	      12.000000            23.985042          0.00000000  0.00000000 -1.62897066

	 - Coordinate -           - BOHR/RAD -       - ANG/DEG -
	 R(1,2)           =         5.964316           3.156180

	        --- Internal Coordinate Step in ANG or DEG, aJ/ANG or AJ/DEG ---
	-------------------------------------------------------------------------------
	           Coordinate      Previous         Force          Change          New
	           ----------      --------        ------          ------        ------
	               R(1,2)       3.15618        0.00031        0.00358       3.15976
	-------------------------------------------------------------------------------

	                                 ==> Convergence Check <==

	Measures of convergence in internal coordinates in au.

	Criteria marked as inactive (o), active & met (*), and active & unmet ( ).

	----------------------------------------------------------------------------------------------
	   Step    Total Energy     Delta E     Max Force     RMS Force      Max Disp      RMS Disp
	----------------------------------------------------------------------------------------------
	  Convergence Criteria     1.00e-06 *    3.00e-04 *             o    1.20e-03 *             o
	----------------------------------------------------------------------------------------------
	    15    -214.76474410   -6.91e-07 *    3.77e-05 *    3.77e-05 o    6.76e-03      6.76e-03 o  ~
	----------------------------------------------------------------------------------------------

Next Geometry in Ang
	Fragment 1 (Ang)

	   Be   0.0000000000   0.0000000000   2.2959537454
	   Mg   0.0000000000   0.0000000000  -0.8638017471

    Final optimized geometry and variables:
    Molecular point group: c2v
    Full point group: C_inf_v

    Geometry (in Angstrom), charge = 0, multiplicity = 1:

    BE           0.000000000000     0.000000000000     2.294166146782
    MG           0.000000000000     0.000000000000    -0.862014148548

    Psi4 stopped on: Wednesday, 16 July 2025 06:43PM
    Psi4 wall time for execution: 0:00:15.82

*** Psi4 exiting successfully. Buy a developer a beer!
