                               Psi4 1.9.1 release

  ==> Input File <==

--------------------------------------------------------------------------
molecule {
0 1
Li   0.00000        0.60000        0.00000
Na   0.00000       -0.60000        0.00000
}

set {
basis              cc-pvdz
reference          uks
maxiter            500
geom_maxiter       500
DAMPING_PERCENTAGE 1
guess              SAP
}

optimize('b3lyp')
--------------------------------------------------------------------------

    Molecular point group: c2v
  Charge       = 0
  Multiplicity = 1
  Basis Set: CC-PVDZ
    Blend: CC-PVDZ
  Basis Set: (CC-PVDZ AUX)
    Blend: DEF2-UNIVERSAL-JKFIT
  @DF-UKS Final Energy:  -169.56445426274715
    Total Energy =                       -169.5644542627471481
 Dipole X            :          0.0000000            0.0000000            0.0000000
 Dipole Y            :          0.0000000            0.0000000            0.0000000
 Dipole Z            :          0.3369692           -0.6202195           -0.2832503
 Magnitude           :                                                    0.2832503
    Molecular point group: c2v
  Basis Set: CC-PVDZ
    Blend: CC-PVDZ
  Basis Set: (CC-PVDZ AUX)
    Blend: DEF2-UNIVERSAL-JKFIT
  Basis Set: CC-PVDZ
    Blend: CC-PVDZ
  Basis Set: (CC-PVDZ AUX)
    Blend: DEF2-UNIVERSAL-JKFIT
  @DF-UKS Final Energy:  -169.59833900958017
    Total Energy =                       -169.5983390095801440
  Basis Set: CC-PVDZ
    Blend: CC-PVDZ
  Basis Set: (CC-PVDZ AUX)
    Blend: DEF2-UNIVERSAL-JKFIT
  Basis Set: CC-PVDZ
    Blend: CC-PVDZ
  @DF-UKS Final Energy:  -169.64012877945623
    Total Energy =                       -169.6401287794562336
  @DF-UKS Final Energy:  -169.69888233203110
    Total Energy =                       -169.6988823320311042
  @DF-UKS Final Energy:  -169.73587743903764
    Total Energy =                       -169.7358774390376652
  @DF-UKS Final Energy:  -169.77300728136882
    Total Energy =                       -169.7730072813688480
  @DF-UKS Final Energy:  -169.78416636312483
    Total Energy =                       -169.7841663631247968
  @DF-UKS Final Energy:  -169.80269461140500
    Total Energy =                       -169.8026946114050020
  @DF-UKS Final Energy:  -169.80514076136262
    Total Energy =                       -169.8051407613626225
  @DF-UKS Final Energy:  -169.81051980244092
    Total Energy =                       -169.8105198024409219
  @DF-UKS Final Energy:  -169.81163753548392
    Total Energy =                       -169.8116375354839249
  @DF-UKS Final Energy:  -169.81180305155002
    Total Energy =                       -169.8118030515500152
  Basis Set: (CC-PVDZ AUX)
    Blend: DEF2-UNIVERSAL-JKFIT
  Basis Set: CC-PVDZ
    Blend: CC-PVDZ
  Basis Set: (CC-PVDZ AUX)
    Blend: DEF2-UNIVERSAL-JKFIT
  @DF-UKS Final Energy:  -169.81180960168280
    Total Energy =                       -169.8118096016827678
  Basis Set: CC-PVDZ
    Blend: CC-PVDZ
  Basis Set: (CC-PVDZ AUX)
    Blend: DEF2-UNIVERSAL-JKFIT
  Charge       = 0
  Multiplicity = 1
  Basis Set: CC-PVDZ
    Blend: CC-PVDZ
  Basis Set: (CC-PVDZ AUX)
    Blend: DEF2-UNIVERSAL-JKFIT

    Orbital Energies [Eh]
    ---------------------

    Alpha Occupied:

       1A1   -38.455664     2A1    -2.201802     3A1    -2.004795
       1B1    -1.133036     1B2    -1.133036     4A1    -1.133023
       5A1    -0.132519

    Alpha Virtual:

       6A1    -0.055028     2B2    -0.027403     2B1    -0.027403
       7A1    -0.011833     3B1     0.013643     3B2     0.013643
       8A1     0.029455     9A1     0.063276    10A1     0.073502
       4B2     0.074066     4B1     0.074066     5B2     0.109634
       5B1     0.109634    11A1     0.147435     1A2     0.170243
      12A1     0.170243    13A1     0.192176     6B2     0.197641
       6B1     0.197641    14A1     0.263420     2A2     0.263421
      15A1     0.317885     7B2     0.357677     7B1     0.357677
      16A1     0.600098

    Beta Occupied:

       1A1   -38.455664     2A1    -2.201802     3A1    -2.004795
       1B1    -1.133036     1B2    -1.133036     4A1    -1.133023
       5A1    -0.132519

    Beta Virtual:

       6A1    -0.055028     2B2    -0.027403     2B1    -0.027403
       7A1    -0.011833     3B1     0.013643     3B2     0.013643
       8A1     0.029455     9A1     0.063276    10A1     0.073502
       4B2     0.074066     4B1     0.074066     5B2     0.109634
       5B1     0.109634    11A1     0.147435     1A2     0.170243
      12A1     0.170243    13A1     0.192176     6B2     0.197641
       6B1     0.197641    14A1     0.263420     2A2     0.263421
      15A1     0.317885     7B2     0.357677     7B1     0.357677
      16A1     0.600098

    Final Occupation by Irrep:
             A1    A2    B1    B2
    DOCC [     5,    0,    1,    1 ]
    SOCC [     0,    0,    0,    0 ]
    NA   [     5,    0,    1,    1 ]
    NB   [     5,    0,    1,    1 ]

  @DF-UKS Final Energy:  -169.81180985082483

   => Energetics <=

    Nuclear Repulsion Energy =              6.0643577401834072
    One-Electron Energy =                -249.9509498463022794
    Two-Electron Energy =                  87.2226269500860951
    DFT Exchange-Correlation Energy =     -13.1478446947920400
    Empirical Dispersion Energy =           0.0000000000000000
    VV10 Nonlocal Energy =                  0.0000000000000000
    Total Energy =                       -169.8118098508248295

  UHF NO Occupations:
  HONO-2 :    3 A1 2.0000000
  HONO-1 :    4 A1 2.0000000
  HONO-0 :    5 A1 2.0000000
  LUNO+0 :    6 A1 0.0000000
  LUNO+1 :    7 A1 0.0000000
  LUNO+2 :    2 B2 0.0000000
  LUNO+3 :    8 A1 0.0000000

Computation Completed

Properties will be evaluated at   0.000000,   0.000000,   0.000000 [a0]

Properties computed using the SCF density matrix

 Multipole Moments:

 ------------------------------------------------------------------------------------
     Multipole            Electronic (a.u.)      Nuclear  (a.u.)        Total (a.u.)
 ------------------------------------------------------------------------------------

 L = 1.  Multiply by 2.5417464519 to convert [e a0] to [Debye]
 Dipole X            :          0.0000000            0.0000000            0.0000000
 Dipole Y            :          0.0000000            0.0000000            0.0000000
 Dipole Z            :          1.4818770           -1.4883136           -0.0064366
 Magnitude           :                                                    0.0064366

 ------------------------------------------------------------------------------------

*** tstop() called on Joses-MacBook-Pro-2.local at Wed Jul 16 18:32:29 2025
Module time:
	user time   =       3.06 seconds =       0.05 minutes
	system time =       3.03 seconds =       0.05 minutes
	total time  =          1 seconds =       0.02 minutes
Total time:
	user time   =      60.42 seconds =       1.01 minutes
	system time =      74.24 seconds =       1.24 minutes
	total time  =         13 seconds =       0.22 minutes

*** tstart() called on Joses-MacBook-Pro-2.local
*** at Wed Jul 16 18:32:29 2025

         ------------------------------------------------------------
                                   SCF GRAD
                          Rob Parrish, Justin Turney,
                       Andy Simmonett, and Alex Sokolov
         ------------------------------------------------------------

  ==> Geometry <==

    Molecular point group: c2v
    Full point group: C_inf_v

    Geometry (in Angstrom), charge = 0, multiplicity = 1:

       Center              X                  Y                   Z               Mass
    ------------   -----------------  -----------------  -----------------  -----------------
         LI           0.000000000000     0.000000000000     2.206277101095     7.016003436600
         NA           0.000000000000     0.000000000000    -0.673310268298    22.989769282000

  Nuclear repulsion =    6.064357740183407

  ==> Basis Set <==

  Basis Set: CC-PVDZ
    Blend: CC-PVDZ
    Number of shells: 14
    Number of basis functions: 32
    Number of Cartesian functions: 34
    Spherical Harmonics?: true
    Max angular momentum: 2

  ==> DFJKGrad: Density-Fitted SCF Gradients <==

    Gradient:                    1
    J tasked:                  Yes
    K tasked:                  Yes
    wK tasked:                  No
    OpenMP threads:              1
    Integrals threads:           1
    Memory [MiB]:              375
    Schwarz Cutoff:          1E-12
    Fitting Condition:       1E-10

   => Auxiliary Basis Set <=

  Basis Set: (CC-PVDZ AUX)
    Blend: DEF2-UNIVERSAL-JKFIT
    Number of shells: 51
    Number of basis functions: 163
    Number of Cartesian functions: 197
    Spherical Harmonics?: true
    Max angular momentum: 4

  ==> DFT Potential <==

   => LibXC <=

    Version 6.2.2
    S. Lehtola, C. Steigemann, M. J.T. Oliveira, and M. A.L. Marques.,  SoftwareX 7, 1â€“5 (2018) (10.1016/j.softx.2017.11.002)

   => Composite Functional: B3LYP <=

    B3LYP Hyb-GGA Exchange-Correlation Functional

    P. J. Stephens, F. J. Devlin, C. F. Chabalowski, and M. J. Frisch.,  J. Phys. Chem. 98, 11623 (1994) (10.1021/j100096a001)

    Deriv               =              1
    GGA                 =           TRUE
    Meta                =          FALSE

    Exchange Hybrid     =           TRUE
    MP2 Hybrid          =          FALSE

   => Exchange Functionals <=

    0.0800   Slater exchange
    0.7200         Becke 88

   => Exact (HF) Exchange <=

    0.2000               HF

   => Correlation Functionals <=

    0.1900   Vosko, Wilk & Nusair (VWN5_RPA)
    0.8100   Lee, Yang & Parr

   => LibXC Density Thresholds  <==

    XC_HYB_GGA_XC_B3LYP:  1.00E-15

   => Molecular Quadrature <=

    Radial Scheme          =       TREUTLER
    Pruning Scheme         =           NONE
    Nuclear Scheme         =       TREUTLER

    Blocking Scheme        =         OCTREE
    BS radius alpha        =              1
    Pruning alpha          =              1
    Radial Points          =             75
    Spherical Points       =            302
    Total Points           =          43621
    Total Blocks           =            452
    Max Points             =            256
    Max Functions          =             32
    Weights Tolerance      =       1.00E-15

  -Total Gradient:
     Atom            X                  Y                   Z
    ------   -----------------  -----------------  -----------------
       1        0.000000000000     0.000000000000    -0.000017712528
       2        0.000000000000     0.000000000000     0.000014979634

*** tstop() called on Joses-MacBook-Pro-2.local at Wed Jul 16 18:32:29 2025
Module time:
	user time   =       0.67 seconds =       0.01 minutes
	system time =       1.94 seconds =       0.03 minutes
	total time  =          0 seconds =       0.00 minutes
Total time:
	user time   =      61.09 seconds =       1.02 minutes
	system time =      76.18 seconds =       1.27 minutes
	total time  =         13 seconds =       0.22 minutes

    			-----------------------------------------

    			 OPTKING 3.0: for geometry optimizations

    			     By R.A. King, Bethel University

    			        with contributions from

    			    A.V. Copan, J. Cayton, A. Heide

    			-----------------------------------------

	                            ===> Fragment 1 <==

	 Z (Atomic Numbers)          Masses                          Geom
	       3.000000             7.016003          0.00000000  0.00000000  4.16925948
	      11.000000            22.989769          0.00000000  0.00000000 -1.27237200

	 - Coordinate -           - BOHR/RAD -       - ANG/DEG -
	 R(1,2)           =         5.441631           2.879587

	        --- Internal Coordinate Step in ANG or DEG, aJ/ANG or AJ/DEG ---
	-------------------------------------------------------------------------------
	           Coordinate      Previous         Force          Change          New
	           ----------      --------        ------          ------        ------
	               R(1,2)       2.87959        0.00013        0.00053       2.88012
	-------------------------------------------------------------------------------

	                                 ==> Convergence Check <==

	Measures of convergence in internal coordinates in au.

	Criteria marked as inactive (o), active & met (*), and active & unmet ( ).

	----------------------------------------------------------------------------------------------
	   Step    Total Energy     Delta E     Max Force     RMS Force      Max Disp      RMS Disp
	----------------------------------------------------------------------------------------------
	  Convergence Criteria     1.00e-06 *    3.00e-04 *             o    1.20e-03 *             o
	----------------------------------------------------------------------------------------------
	    14    -169.81180985   -2.49e-07 *    1.63e-05 *    1.63e-05 o    1.01e-03 *    1.01e-03 o  ~
	----------------------------------------------------------------------------------------------

Next Geometry in Ang
	Fragment 1 (Ang)

	   Li   0.0000000000   0.0000000000   2.2065435900
	   Na   0.0000000000   0.0000000000  -0.6735767572

    Final optimized geometry and variables:
    Molecular point group: c2v
    Full point group: C_inf_v

    Geometry (in Angstrom), charge = 0, multiplicity = 1:

    LI           0.000000000000     0.000000000000     2.206277101095
    NA           0.000000000000     0.000000000000    -0.673310268298

    Psi4 stopped on: Wednesday, 16 July 2025 06:32PM
    Psi4 wall time for execution: 0:00:14.15

*** Psi4 exiting successfully. Buy a developer a beer!
