                               Psi4 1.9.1 release

  ==> Input File <==

--------------------------------------------------------------------------
molecule {
0 1
Si   0.00000        0.60000        0.00000
Ar   0.00000       -0.60000        0.00000
}

set {
basis              cc-pvdz
reference          uks
maxiter            500
geom_maxiter       500
DAMPING_PERCENTAGE 1
guess              SAP
}

optimize('b3lyp')
--------------------------------------------------------------------------

    Molecular point group: c2v
  Charge       = 0
  Multiplicity = 1
  Basis Set: CC-PVDZ
    Blend: CC-PVDZ
  Basis Set: (CC-PVDZ AUX)
    Blend: CC-PVDZ-JKFIT
  @DF-UKS Final Energy:  -815.47097563517684
    Total Energy =                       -815.4709756351768419
 Dipole X            :          0.0000000            0.0000000            0.0000000
 Dipole Y            :          0.0000000            0.0000000            0.0000000
 Dipole Z            :         -4.1901140            1.8654469           -2.3246671
 Magnitude           :                                                    2.3246671
    Molecular point group: c2v
  Basis Set: CC-PVDZ
    Blend: CC-PVDZ
  Basis Set: (CC-PVDZ AUX)
    Blend: CC-PVDZ-JKFIT
  Basis Set: CC-PVDZ
    Blend: CC-PVDZ
  Basis Set: (CC-PVDZ AUX)
    Blend: CC-PVDZ-JKFIT
  @DF-UKS Final Energy:  -815.51228791956987
    Total Energy =                       -815.5122879195698715
  Basis Set: CC-PVDZ
    Blend: CC-PVDZ
  Basis Set: (CC-PVDZ AUX)
    Blend: CC-PVDZ-JKFIT
  Basis Set: CC-PVDZ
    Blend: CC-PVDZ
  @DF-UKS Final Energy:  -815.58891532660732
    Total Energy =                       -815.5889153266073208
  @DF-UKS Final Energy:  -815.83826637451170
    Total Energy =                       -815.8382663745117043
  @DF-UKS Final Energy:  -816.37243298268299
    Total Energy =                       -816.3724329826829944
  @DF-UKS Final Energy:  -816.57112215400241
    Total Energy =                       -816.5711221540024098
  @DF-UKS Final Energy:  -816.70599236995258
    Total Energy =                       -816.7059923699525825
  @DF-UKS Final Energy:  -816.78785713323873
    Total Energy =                       -816.7878571332387310
  @DF-UKS Final Energy:  -816.83478655458657
    Total Energy =                       -816.8347865545865716
  @DF-UKS Final Energy:  -816.86078122017682
    Total Energy =                       -816.8607812201767047
  @DF-UKS Final Energy:  -816.87484367942511
    Total Energy =                       -816.8748436794252257
  @DF-UKS Final Energy:  -816.88210803434424
    Total Energy =                       -816.8821080343441281
  @DF-UKS Final Energy:  -816.88570517828771
    Total Energy =                       -816.8857051782877079
  @DF-UKS Final Energy:  -816.88739556573978
    Total Energy =                       -816.8873955657397801
  @DF-UKS Final Energy:  -816.88812775785607
    Total Energy =                       -816.8881277578559548
  @DF-UKS Final Energy:  -816.88840562691291
    Total Energy =                       -816.8884056269129132
  @DF-UKS Final Energy:  -816.88849040948890
    Total Energy =                       -816.8884904094888952
  @DF-UKS Final Energy:  -816.88850484501108
    Total Energy =                       -816.8885048450111981
  Basis Set: (CC-PVDZ AUX)
    Blend: CC-PVDZ-JKFIT
  Basis Set: CC-PVDZ
    Blend: CC-PVDZ
  Basis Set: (CC-PVDZ AUX)
    Blend: CC-PVDZ-JKFIT
  @DF-UKS Final Energy:  -816.88850775531432
    Total Energy =                       -816.8885077553143219
  Basis Set: CC-PVDZ
    Blend: CC-PVDZ
  Basis Set: (CC-PVDZ AUX)
    Blend: CC-PVDZ-JKFIT
  Charge       = 0
  Multiplicity = 1
  Basis Set: CC-PVDZ
    Blend: CC-PVDZ
  Basis Set: (CC-PVDZ AUX)
    Blend: CC-PVDZ-JKFIT

    Orbital Energies [Eh]
    ---------------------

    Alpha Occupied:

       1A1  -115.117252     2A1   -66.181337     3A1   -11.153337
       4A1    -8.703559     1B1    -8.703080     1B2    -8.702929
       5A1    -5.319832     2B1    -3.683170     6A1    -3.683129
       2B2    -3.666504     7A1    -0.981124     8A1    -0.449257
       3B1    -0.437798     3B2    -0.436680     9A1    -0.415356
       4B2    -0.149147

    Alpha Virtual:

       4B1    -0.117850    10A1    -0.112829    11A1     0.251887
       5B1     0.308942    12A1     0.321540     5B2     0.325263
      13A1     0.343652     6B1     0.355561     6B2     0.370486
       1A2     0.373598    14A1     0.383232     7B1     0.580190
       7B2     0.583028    15A1     0.626918    16A1     0.789512
       8B1     0.819801    17A1     0.820604     2A2     0.820624
       8B2     0.820642    18A1     0.877558

    Beta Occupied:

       1A1  -115.117252     2A1   -66.181337     3A1   -11.153337
       4A1    -8.703559     1B1    -8.703080     1B2    -8.702929
       5A1    -5.319832     2B1    -3.683170     6A1    -3.683129
       2B2    -3.666504     7A1    -0.981124     8A1    -0.449257
       3B1    -0.437798     3B2    -0.436680     9A1    -0.415356
       4B2    -0.149147

    Beta Virtual:

       4B1    -0.117850    10A1    -0.112829    11A1     0.251887
       5B1     0.308942    12A1     0.321540     5B2     0.325263
      13A1     0.343652     6B1     0.355561     6B2     0.370486
       1A2     0.373598    14A1     0.383232     7B1     0.580190
       7B2     0.583028    15A1     0.626918    16A1     0.789512
       8B1     0.819801    17A1     0.820604     2A2     0.820624
       8B2     0.820642    18A1     0.877558

    Final Occupation by Irrep:
             A1    A2    B1    B2
    DOCC [     9,    0,    3,    4 ]
    SOCC [     0,    0,    0,    0 ]
    NA   [     9,    0,    3,    4 ]
    NB   [     9,    0,    3,    4 ]

  @DF-UKS Final Energy:  -816.88850847475544

   => Energetics <=

    Nuclear Repulsion Energy =             39.4539403969181350
    One-Electron Energy =               -1207.4996206638779768
    Two-Electron Energy =                 392.8054189950947830
    DFT Exchange-Correlation Energy =     -41.6482472028902393
    Empirical Dispersion Energy =           0.0000000000000000
    VV10 Nonlocal Energy =                  0.0000000000000000
    Total Energy =                       -816.8885084747553265

  UHF NO Occupations:
  HONO-2 :    4 B2 2.0000000
  HONO-1 :    3 B1 2.0000000
  HONO-0 :    9 A1 2.0000000
  LUNO+0 :    5 B2 0.0000000
  LUNO+1 :   10 A1 0.0000000
  LUNO+2 :   11 A1 0.0000000
  LUNO+3 :    4 B1 0.0000000

Computation Completed

Properties will be evaluated at   0.000000,   0.000000,   0.000000 [a0]

Properties computed using the SCF density matrix

 Multipole Moments:

 ------------------------------------------------------------------------------------
     Multipole            Electronic (a.u.)      Nuclear  (a.u.)        Total (a.u.)
 ------------------------------------------------------------------------------------

 L = 1.  Multiply by 2.5417464519 to convert [e a0] to [Debye]
 Dipole X            :          0.0000000            0.0000000            0.0000000
 Dipole Y            :          0.0000000            0.0000000            0.0000000
 Dipole Z            :         -5.4067715            5.2542765           -0.1524950
 Magnitude           :                                                    0.1524950

 ------------------------------------------------------------------------------------

*** tstop() called on Joses-MacBook-Pro-2.local at Wed Jul 16 20:19:28 2025
Module time:
	user time   =       9.04 seconds =       0.15 minutes
	system time =       1.58 seconds =       0.03 minutes
	total time  =          1 seconds =       0.02 minutes
Total time:
	user time   =     263.36 seconds =       4.39 minutes
	system time =      63.66 seconds =       1.06 minutes
	total time  =         31 seconds =       0.52 minutes

*** tstart() called on Joses-MacBook-Pro-2.local
*** at Wed Jul 16 20:19:28 2025

         ------------------------------------------------------------
                                   SCF GRAD
                          Rob Parrish, Justin Turney,
                       Andy Simmonett, and Alex Sokolov
         ------------------------------------------------------------

  ==> Geometry <==

    Molecular point group: c2v
    Full point group: C_inf_v

    Geometry (in Angstrom), charge = 0, multiplicity = 1:

       Center              X                  Y                   Z               Mass
    ------------   -----------------  -----------------  -----------------  -----------------
         SI           0.000000000000     0.000000000000     1.988115168869    27.976926534650
         AR           0.000000000000     0.000000000000    -1.391842719932    39.962383123700

  Nuclear repulsion =   39.453940396918135

  ==> Basis Set <==

  Basis Set: CC-PVDZ
    Blend: CC-PVDZ
    Number of shells: 16
    Number of basis functions: 36
    Number of Cartesian functions: 38
    Spherical Harmonics?: true
    Max angular momentum: 2

  ==> DFJKGrad: Density-Fitted SCF Gradients <==

    Gradient:                    1
    J tasked:                  Yes
    K tasked:                  Yes
    wK tasked:                  No
    OpenMP threads:              1
    Integrals threads:           1
    Memory [MiB]:              375
    Schwarz Cutoff:          1E-12
    Fitting Condition:       1E-10

   => Auxiliary Basis Set <=

  Basis Set: (CC-PVDZ AUX)
    Blend: CC-PVDZ-JKFIT
    Number of shells: 72
    Number of basis functions: 224
    Number of Cartesian functions: 260
    Spherical Harmonics?: true
    Max angular momentum: 3

  ==> DFT Potential <==

   => LibXC <=

    Version 6.2.2
    S. Lehtola, C. Steigemann, M. J.T. Oliveira, and M. A.L. Marques.,  SoftwareX 7, 1â€“5 (2018) (10.1016/j.softx.2017.11.002)

   => Composite Functional: B3LYP <=

    B3LYP Hyb-GGA Exchange-Correlation Functional

    P. J. Stephens, F. J. Devlin, C. F. Chabalowski, and M. J. Frisch.,  J. Phys. Chem. 98, 11623 (1994) (10.1021/j100096a001)

    Deriv               =              1
    GGA                 =           TRUE
    Meta                =          FALSE

    Exchange Hybrid     =           TRUE
    MP2 Hybrid          =          FALSE

   => Exchange Functionals <=

    0.0800   Slater exchange
    0.7200         Becke 88

   => Exact (HF) Exchange <=

    0.2000               HF

   => Correlation Functionals <=

    0.1900   Vosko, Wilk & Nusair (VWN5_RPA)
    0.8100   Lee, Yang & Parr

   => LibXC Density Thresholds  <==

    XC_HYB_GGA_XC_B3LYP:  1.00E-15

   => Molecular Quadrature <=

    Radial Scheme          =       TREUTLER
    Pruning Scheme         =           NONE
    Nuclear Scheme         =       TREUTLER

    Blocking Scheme        =         OCTREE
    BS radius alpha        =              1
    Pruning alpha          =              1
    Radial Points          =             75
    Spherical Points       =            302
    Total Points           =          41722
    Total Blocks           =            394
    Max Points             =            252
    Max Functions          =             36
    Weights Tolerance      =       1.00E-15

  -Total Gradient:
     Atom            X                  Y                   Z
    ------   -----------------  -----------------  -----------------
       1        0.000000000000     0.000000000000    -0.000019097060
       2        0.000000000000    -0.000000000000     0.000019340548

*** tstop() called on Joses-MacBook-Pro-2.local at Wed Jul 16 20:19:28 2025
Module time:
	user time   =       2.30 seconds =       0.04 minutes
	system time =       0.94 seconds =       0.02 minutes
	total time  =          0 seconds =       0.00 minutes
Total time:
	user time   =     265.67 seconds =       4.43 minutes
	system time =      64.60 seconds =       1.08 minutes
	total time  =         31 seconds =       0.52 minutes

    			-----------------------------------------

    			 OPTKING 3.0: for geometry optimizations

    			     By R.A. King, Bethel University

    			        with contributions from

    			    A.V. Copan, J. Cayton, A. Heide

    			-----------------------------------------

	                            ===> Fragment 1 <==

	 Z (Atomic Numbers)          Masses                          Geom
	      14.000000            27.976927          0.00000000  0.00000000  3.75699318
	      18.000000            39.962383          0.00000000  0.00000000 -2.63020155

	 - Coordinate -           - BOHR/RAD -       - ANG/DEG -
	 R(1,2)           =         6.387195           3.379958

	        --- Internal Coordinate Step in ANG or DEG, aJ/ANG or AJ/DEG ---
	-------------------------------------------------------------------------------
	           Coordinate      Previous         Force          Change          New
	           ----------      --------        ------          ------        ------
	               R(1,2)       3.37996        0.00016        0.00415       3.38411
	-------------------------------------------------------------------------------

	                                 ==> Convergence Check <==

	Measures of convergence in internal coordinates in au.

	Criteria marked as inactive (o), active & met (*), and active & unmet ( ).

	----------------------------------------------------------------------------------------------
	   Step    Total Energy     Delta E     Max Force     RMS Force      Max Disp      RMS Disp
	----------------------------------------------------------------------------------------------
	  Convergence Criteria     1.00e-06 *    3.00e-04 *             o    1.20e-03 *             o
	----------------------------------------------------------------------------------------------
	    20    -816.88850847   -7.19e-07 *    1.92e-05 *    1.92e-05 o    7.84e-03      7.84e-03 o  ~
	----------------------------------------------------------------------------------------------

Next Geometry in Ang
	Fragment 1 (Ang)

	   Si   0.0000000000   0.0000000000   1.9901890741
	   Ar   0.0000000000   0.0000000000  -1.3939166252

    Final optimized geometry and variables:
    Molecular point group: c2v
    Full point group: C_inf_v

    Geometry (in Angstrom), charge = 0, multiplicity = 1:

    SI           0.000000000000     0.000000000000     1.988115168869
    AR           0.000000000000     0.000000000000    -1.391842719932

    Psi4 stopped on: Wednesday, 16 July 2025 08:19PM
    Psi4 wall time for execution: 0:00:32.36

*** Psi4 exiting successfully. Buy a developer a beer!
