                               Psi4 1.9.1 release

  ==> Input File <==

--------------------------------------------------------------------------
molecule {
0 1
He   0.00000        0.60000        0.00000
Mg   0.00000       -0.60000        0.00000
}

set {
basis              cc-pvdz
reference          uks
maxiter            500
geom_maxiter       500
DAMPING_PERCENTAGE 1
guess              SAP
}

optimize('b3lyp')
--------------------------------------------------------------------------

    Molecular point group: c2v
  Charge       = 0
  Multiplicity = 1
  Basis Set: CC-PVDZ
    Blend: CC-PVDZ
  Basis Set: (CC-PVDZ AUX)
    Blend: DEF2-UNIVERSAL-JKFIT
  @DF-UKS Final Energy:  -202.80155835650982
    Total Energy =                       -202.8015583565098439
 Dipole X            :          0.0000000            0.0000000            0.0000000
 Dipole Y            :          0.0000000            0.0000000            0.0000000
 Dipole Z            :          1.4731546           -0.0049551            1.4681995
 Magnitude           :                                                    1.4681995
    Molecular point group: c2v
  Basis Set: CC-PVDZ
    Blend: CC-PVDZ
  Basis Set: (CC-PVDZ AUX)
    Blend: DEF2-UNIVERSAL-JKFIT
  Basis Set: CC-PVDZ
    Blend: CC-PVDZ
  Basis Set: (CC-PVDZ AUX)
    Blend: DEF2-UNIVERSAL-JKFIT
  @DF-UKS Final Energy:  -202.90912717436763
    Total Energy =                       -202.9091271743676259
  Basis Set: CC-PVDZ
    Blend: CC-PVDZ
  Basis Set: (CC-PVDZ AUX)
    Blend: DEF2-UNIVERSAL-JKFIT
  Basis Set: CC-PVDZ
    Blend: CC-PVDZ
  @DF-UKS Final Energy:  -202.93475621705750
    Total Energy =                       -202.9347562170574975
  @DF-UKS Final Energy:  -202.95849027720135
    Total Energy =                       -202.9584902772013493
  @DF-UKS Final Energy:  -202.97361136334436
    Total Energy =                       -202.9736113633443324
  @DF-UKS Final Energy:  -202.98431420540754
    Total Energy =                       -202.9843142054075997
  @DF-UKS Final Energy:  -202.99096094863557
    Total Energy =                       -202.9909609486355748
  @DF-UKS Final Energy:  -202.99160259038919
    Total Energy =                       -202.9916025903891921
  @DF-UKS Final Energy:  -202.99531237322012
    Total Energy =                       -202.9953123732201163
  @DF-UKS Final Energy:  -202.99549214725573
    Total Energy =                       -202.9954921472557317
  @DF-UKS Final Energy:  -202.99718701709534
    Total Energy =                       -202.9971870170953139
  @DF-UKS Final Energy:  -202.99723381962161
    Total Energy =                       -202.9972338196216128
  @DF-UKS Final Energy:  -202.99798467643782
    Total Energy =                       -202.9979846764378237
  @DF-UKS Final Energy:  -202.99799571366273
    Total Energy =                       -202.9979957136627320
  @DF-UKS Final Energy:  -202.99830665257247
    Total Energy =                       -202.9983066525724666
  @DF-UKS Final Energy:  -202.99840596586057
    Total Energy =                       -202.9984059658605702
  @DF-UKS Final Energy:  -202.99844585064201
    Total Energy =                       -202.9984458506419855
  Basis Set: (CC-PVDZ AUX)
    Blend: DEF2-UNIVERSAL-JKFIT
  Basis Set: CC-PVDZ
    Blend: CC-PVDZ
  Basis Set: (CC-PVDZ AUX)
    Blend: DEF2-UNIVERSAL-JKFIT
  @DF-UKS Final Energy:  -202.99845714758661
    Total Energy =                       -202.9984571475866346
  Basis Set: CC-PVDZ
    Blend: CC-PVDZ
  Basis Set: (CC-PVDZ AUX)
    Blend: DEF2-UNIVERSAL-JKFIT
  Charge       = 0
  Multiplicity = 1
  Basis Set: CC-PVDZ
    Blend: CC-PVDZ
  Basis Set: (CC-PVDZ AUX)
    Blend: DEF2-UNIVERSAL-JKFIT

    Orbital Energies [Eh]
    ---------------------

    Alpha Occupied:

       1A1   -46.818489     2A1    -3.098950     3A1    -1.842282
       1B1    -1.842276     1B2    -1.842276     4A1    -0.652012
       5A1    -0.195005

    Alpha Virtual:

       2B2    -0.031400     2B1    -0.031400     6A1    -0.030040
       7A1     0.102692     3B2     0.166490     3B1     0.166490
       8A1     0.170327     9A1     0.322378    10A1     0.322417
       1A2     0.322417     4B2     0.322429     4B1     0.322429
      11A1     1.145077     5B2     2.187525     5B1     2.187525
      12A1     2.191195

    Beta Occupied:

       1A1   -46.818489     2A1    -3.098950     3A1    -1.842282
       1B1    -1.842276     1B2    -1.842276     4A1    -0.652012
       5A1    -0.195005

    Beta Virtual:

       2B2    -0.031400     2B1    -0.031400     6A1    -0.030040
       7A1     0.102692     3B2     0.166490     3B1     0.166490
       8A1     0.170327     9A1     0.322378    10A1     0.322417
       1A2     0.322417     4B2     0.322429     4B1     0.322429
      11A1     1.145077     5B2     2.187525     5B1     2.187525
      12A1     2.191195

    Final Occupation by Irrep:
             A1    A2    B1    B2
    DOCC [     5,    0,    1,    1 ]
    SOCC [     0,    0,    0,    0 ]
    NA   [     5,    0,    1,    1 ]
    NB   [     5,    0,    1,    1 ]

  @DF-UKS Final Energy:  -202.99845813673460

   => Energetics <=

    Nuclear Repulsion Energy =              2.9683765394456567
    One-Electron Energy =                -289.2421880578420996
    Two-Electron Energy =                  97.4143574296158761
    DFT Exchange-Correlation Energy =     -14.1390040479540424
    Empirical Dispersion Energy =           0.0000000000000000
    VV10 Nonlocal Energy =                  0.0000000000000000
    Total Energy =                       -202.9984581367345982

  UHF NO Occupations:
  HONO-2 :    4 A1 2.0000000
  HONO-1 :    1 B2 2.0000000
  HONO-0 :    5 A1 2.0000000
  LUNO+0 :    6 A1 0.0000000
  LUNO+1 :    2 B2 0.0000000
  LUNO+2 :    7 A1 0.0000000
  LUNO+3 :    2 B1 0.0000000

Computation Completed

Properties will be evaluated at   0.000000,   0.000000,   0.000000 [a0]

Properties computed using the SCF density matrix

 Multipole Moments:

 ------------------------------------------------------------------------------------
     Multipole            Electronic (a.u.)      Nuclear  (a.u.)        Total (a.u.)
 ------------------------------------------------------------------------------------

 L = 1.  Multiply by 2.5417464519 to convert [e a0] to [Debye]
 Dipole X            :          0.0000000            0.0000000            0.0000000
 Dipole Y            :          0.0000000            0.0000000            0.0000000
 Dipole Z            :          0.0409640           -0.0176670            0.0232970
 Magnitude           :                                                    0.0232970

 ------------------------------------------------------------------------------------

*** tstop() called on Joses-MacBook-Pro-2.local at Wed Jul 16 18:22:52 2025
Module time:
	user time   =       2.29 seconds =       0.04 minutes
	system time =       2.49 seconds =       0.04 minutes
	total time  =          0 seconds =       0.00 minutes
Total time:
	user time   =      65.13 seconds =       1.09 minutes
	system time =      83.16 seconds =       1.39 minutes
	total time  =         14 seconds =       0.23 minutes

*** tstart() called on Joses-MacBook-Pro-2.local
*** at Wed Jul 16 18:22:52 2025

         ------------------------------------------------------------
                                   SCF GRAD
                          Rob Parrish, Justin Turney,
                       Andy Simmonett, and Alex Sokolov
         ------------------------------------------------------------

  ==> Geometry <==

    Molecular point group: c2v
    Full point group: C_inf_v

    Geometry (in Angstrom), charge = 0, multiplicity = 1:

       Center              X                  Y                   Z               Mass
    ------------   -----------------  -----------------  -----------------  -----------------
         HE           0.000000000000     0.000000000000     3.666633533084     4.002603254130
         MG           0.000000000000     0.000000000000    -0.611884669480    23.985041697000

  Nuclear repulsion =    2.968376539445657

  ==> Basis Set <==

  Basis Set: CC-PVDZ
    Blend: CC-PVDZ
    Number of shells: 11
    Number of basis functions: 23
    Number of Cartesian functions: 24
    Spherical Harmonics?: true
    Max angular momentum: 2

  ==> DFJKGrad: Density-Fitted SCF Gradients <==

    Gradient:                    1
    J tasked:                  Yes
    K tasked:                  Yes
    wK tasked:                  No
    OpenMP threads:              1
    Integrals threads:           1
    Memory [MiB]:              375
    Schwarz Cutoff:          1E-12
    Fitting Condition:       1E-10

   => Auxiliary Basis Set <=

  Basis Set: (CC-PVDZ AUX)
    Blend: DEF2-UNIVERSAL-JKFIT
    Number of shells: 43
    Number of basis functions: 135
    Number of Cartesian functions: 162
    Spherical Harmonics?: true
    Max angular momentum: 4

  ==> DFT Potential <==

   => LibXC <=

    Version 6.2.2
    S. Lehtola, C. Steigemann, M. J.T. Oliveira, and M. A.L. Marques.,  SoftwareX 7, 1â€“5 (2018) (10.1016/j.softx.2017.11.002)

   => Composite Functional: B3LYP <=

    B3LYP Hyb-GGA Exchange-Correlation Functional

    P. J. Stephens, F. J. Devlin, C. F. Chabalowski, and M. J. Frisch.,  J. Phys. Chem. 98, 11623 (1994) (10.1021/j100096a001)

    Deriv               =              1
    GGA                 =           TRUE
    Meta                =          FALSE

    Exchange Hybrid     =           TRUE
    MP2 Hybrid          =          FALSE

   => Exchange Functionals <=

    0.0800   Slater exchange
    0.7200         Becke 88

   => Exact (HF) Exchange <=

    0.2000               HF

   => Correlation Functionals <=

    0.1900   Vosko, Wilk & Nusair (VWN5_RPA)
    0.8100   Lee, Yang & Parr

   => LibXC Density Thresholds  <==

    XC_HYB_GGA_XC_B3LYP:  1.00E-15

   => Molecular Quadrature <=

    Radial Scheme          =       TREUTLER
    Pruning Scheme         =           NONE
    Nuclear Scheme         =       TREUTLER

    Blocking Scheme        =         OCTREE
    BS radius alpha        =              1
    Pruning alpha          =              1
    Radial Points          =             75
    Spherical Points       =            302
    Total Points           =          43585
    Total Blocks           =            427
    Max Points             =            254
    Max Functions          =             23
    Weights Tolerance      =       1.00E-15

  -Total Gradient:
     Atom            X                  Y                   Z
    ------   -----------------  -----------------  -----------------
       1        0.000000000000     0.000000000000    -0.000000044858
       2        0.000000000000     0.000000000000     0.000006980552

*** tstop() called on Joses-MacBook-Pro-2.local at Wed Jul 16 18:22:52 2025
Module time:
	user time   =       0.59 seconds =       0.01 minutes
	system time =       1.31 seconds =       0.02 minutes
	total time  =          0 seconds =       0.00 minutes
Total time:
	user time   =      65.73 seconds =       1.10 minutes
	system time =      84.47 seconds =       1.41 minutes
	total time  =         14 seconds =       0.23 minutes

    			-----------------------------------------

    			 OPTKING 3.0: for geometry optimizations

    			     By R.A. King, Bethel University

    			        with contributions from

    			    A.V. Copan, J. Cayton, A. Heide

    			-----------------------------------------

	                            ===> Fragment 1 <==

	 Z (Atomic Numbers)          Masses                          Geom
	       2.000000             4.002603          0.00000000  0.00000000  6.92893318
	      12.000000            23.985042          0.00000000  0.00000000 -1.15629445

	 - Coordinate -           - BOHR/RAD -       - ANG/DEG -
	 R(1,2)           =         8.085228           4.278518

	        --- Internal Coordinate Step in ANG or DEG, aJ/ANG or AJ/DEG ---
	-------------------------------------------------------------------------------
	           Coordinate      Previous         Force          Change          New
	           ----------      --------        ------          ------        ------
	               R(1,2)       4.27852        0.00003        0.00713       4.28565
	-------------------------------------------------------------------------------

	                                 ==> Convergence Check <==

	Measures of convergence in internal coordinates in au.

	Criteria marked as inactive (o), active & met (*), and active & unmet ( ).

	----------------------------------------------------------------------------------------------
	   Step    Total Energy     Delta E     Max Force     RMS Force      Max Disp      RMS Disp
	----------------------------------------------------------------------------------------------
	  Convergence Criteria     1.00e-06 *    3.00e-04 *             o    1.20e-03 *             o
	----------------------------------------------------------------------------------------------
	    19    -202.99845814   -9.89e-07 *    3.51e-06 *    3.51e-06 o    1.35e-02      1.35e-02 o  ~
	----------------------------------------------------------------------------------------------

Next Geometry in Ang
	Fragment 1 (Ang)

	   He   0.0000000000   0.0000000000   3.6701983813
	   Mg   0.0000000000   0.0000000000  -0.6154495177

    Final optimized geometry and variables:
    Molecular point group: c2v
    Full point group: C_inf_v

    Geometry (in Angstrom), charge = 0, multiplicity = 1:

    HE           0.000000000000     0.000000000000     3.666633533084
    MG           0.000000000000     0.000000000000    -0.611884669480

    Psi4 stopped on: Wednesday, 16 July 2025 06:22PM
    Psi4 wall time for execution: 0:00:14.98

*** Psi4 exiting successfully. Buy a developer a beer!
