                               Psi4 1.9.1 release

  ==> Input File <==

--------------------------------------------------------------------------
molecule {
0 1
C   0.00000        0.60000        0.00000
Si   0.00000       -0.60000        0.00000
}

set {
basis              cc-pvdz
reference          uks
maxiter            500
geom_maxiter       500
DAMPING_PERCENTAGE 1
guess              SAP
}

optimize('b3lyp')
--------------------------------------------------------------------------

    Molecular point group: c2v
  Charge       = 0
  Multiplicity = 1
  Basis Set: CC-PVDZ
    Blend: CC-PVDZ
  Basis Set: (CC-PVDZ AUX)
    Blend: CC-PVDZ-JKFIT
  @DF-UKS Final Energy:  -327.03620885525635
    Total Energy =                       -327.0362088552563478
 Dipole X            :          0.0000000            0.0000000            0.0000000
 Dipole Y            :          0.0000000            0.0000000            0.0000000
 Dipole Z            :         -0.4864323           -0.0078530           -0.4942852
 Magnitude           :                                                    0.4942852
    Molecular point group: c2v
  Basis Set: CC-PVDZ
    Blend: CC-PVDZ
  Basis Set: (CC-PVDZ AUX)
    Blend: CC-PVDZ-JKFIT
  Basis Set: CC-PVDZ
    Blend: CC-PVDZ
  Basis Set: (CC-PVDZ AUX)
    Blend: CC-PVDZ-JKFIT
  @DF-UKS Final Energy:  -327.21695139322611
    Total Energy =                       -327.2169513932261680
  Basis Set: CC-PVDZ
    Blend: CC-PVDZ
  Basis Set: (CC-PVDZ AUX)
    Blend: CC-PVDZ-JKFIT
  Basis Set: CC-PVDZ
    Blend: CC-PVDZ
  @DF-UKS Final Energy:  -327.30961739572081
    Total Energy =                       -327.3096173957208066
  @DF-UKS Final Energy:  -327.33447187578713
    Total Energy =                       -327.3344718757870737
  @DF-UKS Final Energy:  -327.34466417041995
    Total Energy =                       -327.3446641704199465
  @DF-UKS Final Energy:  -327.34728480744150
    Total Energy =                       -327.3472848074414969
  @DF-UKS Final Energy:  -327.34823064926763
    Total Energy =                       -327.3482306492675775
  @DF-UKS Final Energy:  -327.34837674342464
    Total Energy =                       -327.3483767434246374
  Basis Set: (CC-PVDZ AUX)
    Blend: CC-PVDZ-JKFIT
  Basis Set: CC-PVDZ
    Blend: CC-PVDZ
  Basis Set: (CC-PVDZ AUX)
    Blend: CC-PVDZ-JKFIT
  @DF-UKS Final Energy:  -327.34840334203028
    Total Energy =                       -327.3484033420302239
  Basis Set: CC-PVDZ
    Blend: CC-PVDZ
  Basis Set: (CC-PVDZ AUX)
    Blend: CC-PVDZ-JKFIT
  Charge       = 0
  Multiplicity = 1
  Basis Set: CC-PVDZ
    Blend: CC-PVDZ
  Basis Set: (CC-PVDZ AUX)
    Blend: CC-PVDZ-JKFIT

    Orbital Energies [Eh]
    ---------------------

    Alpha Occupied:

       1A1   -66.184012     2A1   -10.267047     3A1    -5.328043
       4A1    -3.689458     1B2    -3.683873     1B1    -3.683873
       5A1    -0.636946     6A1    -0.376573     2B2    -0.249328
       2B1    -0.249328

    Alpha Virtual:

       7A1    -0.201143     3B2    -0.047942     3B1    -0.047942
       8A1     0.074351     9A1     0.245990     4B2     0.303550
       4B1     0.303550    10A1     0.356144     1A2     0.359937
      11A1     0.359937    12A1     0.428080     5B2     0.444466
       5B1     0.444466     6B1     0.535825     6B2     0.535825
      13A1     0.845136    14A1     0.920035     2A2     1.199124
      15A1     1.199124     7B1     1.393497     7B2     1.393497
      16A1     1.709039

    Beta Occupied:

       1A1   -66.184012     2A1   -10.267047     3A1    -5.328043
       4A1    -3.689458     1B2    -3.683873     1B1    -3.683873
       5A1    -0.636946     6A1    -0.376573     2B2    -0.249328
       2B1    -0.249328

    Beta Virtual:

       7A1    -0.201143     3B2    -0.047942     3B1    -0.047942
       8A1     0.074351     9A1     0.245990     4B2     0.303550
       4B1     0.303550    10A1     0.356144     1A2     0.359937
      11A1     0.359937    12A1     0.428080     5B2     0.444466
       5B1     0.444466     6B1     0.535825     6B2     0.535825
      13A1     0.845136    14A1     0.920035     2A2     1.199124
      15A1     1.199124     7B1     1.393497     7B2     1.393497
      16A1     1.709039

    Final Occupation by Irrep:
             A1    A2    B1    B2
    DOCC [     6,    0,    2,    2 ]
    SOCC [     0,    0,    0,    0 ]
    NA   [     6,    0,    2,    2 ]
    NB   [     6,    0,    2,    2 ]

  @DF-UKS Final Energy:  -327.34840565868410

   => Energetics <=

    Nuclear Repulsion Energy =             26.7929927142251927
    One-Electron Energy =                -504.5381577611258308
    Two-Electron Energy =                 171.4600743285656677
    DFT Exchange-Correlation Energy =     -21.0633149403492084
    Empirical Dispersion Energy =           0.0000000000000000
    VV10 Nonlocal Energy =                  0.0000000000000000
    Total Energy =                       -327.3484056586841575

  UHF NO Occupations:
  HONO-2 :    5 A1 2.0000000
  HONO-1 :    2 B2 2.0000000
  HONO-0 :    6 A1 2.0000000
  LUNO+0 :    3 B1 0.0000000
  LUNO+1 :    7 A1 0.0000000
  LUNO+2 :    4 B1 0.0000000
  LUNO+3 :    8 A1 0.0000000

Computation Completed

Properties will be evaluated at   0.000000,   0.000000,   0.000000 [a0]

Properties computed using the SCF density matrix

 Multipole Moments:

 ------------------------------------------------------------------------------------
     Multipole            Electronic (a.u.)      Nuclear  (a.u.)        Total (a.u.)
 ------------------------------------------------------------------------------------

 L = 1.  Multiply by 2.5417464519 to convert [e a0] to [Debye]
 Dipole X            :          0.0000000            0.0000000            0.0000000
 Dipole Y            :          0.0000000            0.0000000            0.0000000
 Dipole Z            :         -0.7843052           -0.0108571           -0.7951623
 Magnitude           :                                                    0.7951623

 ------------------------------------------------------------------------------------

*** tstop() called on Joses-MacBook-Pro-2.local at Wed Jul 16 19:03:41 2025
Module time:
	user time   =       3.25 seconds =       0.05 minutes
	system time =       3.05 seconds =       0.05 minutes
	total time  =          0 seconds =       0.00 minutes
Total time:
	user time   =      50.87 seconds =       0.85 minutes
	system time =      50.89 seconds =       0.85 minutes
	total time  =          9 seconds =       0.15 minutes

*** tstart() called on Joses-MacBook-Pro-2.local
*** at Wed Jul 16 19:03:41 2025

         ------------------------------------------------------------
                                   SCF GRAD
                          Rob Parrish, Justin Turney,
                       Andy Simmonett, and Alex Sokolov
         ------------------------------------------------------------

  ==> Geometry <==

    Molecular point group: c2v
    Full point group: C_inf_v

    Geometry (in Angstrom), charge = 0, multiplicity = 1:

       Center              X                  Y                   Z               Mass
    ------------   -----------------  -----------------  -----------------  -----------------
         C            0.000000000000     0.000000000000     1.161046980069    12.000000000000
         SI           0.000000000000     0.000000000000    -0.498001942550    27.976926534650

  Nuclear repulsion =   26.792992714225193

  ==> Basis Set <==

  Basis Set: CC-PVDZ
    Blend: CC-PVDZ
    Number of shells: 14
    Number of basis functions: 32
    Number of Cartesian functions: 34
    Spherical Harmonics?: true
    Max angular momentum: 2

  ==> DFJKGrad: Density-Fitted SCF Gradients <==

    Gradient:                    1
    J tasked:                  Yes
    K tasked:                  Yes
    wK tasked:                  No
    OpenMP threads:              1
    Integrals threads:           1
    Memory [MiB]:              375
    Schwarz Cutoff:          1E-12
    Fitting Condition:       1E-10

   => Auxiliary Basis Set <=

  Basis Set: (CC-PVDZ AUX)
    Blend: CC-PVDZ-JKFIT
    Number of shells: 60
    Number of basis functions: 182
    Number of Cartesian functions: 211
    Spherical Harmonics?: true
    Max angular momentum: 3

  ==> DFT Potential <==

   => LibXC <=

    Version 6.2.2
    S. Lehtola, C. Steigemann, M. J.T. Oliveira, and M. A.L. Marques.,  SoftwareX 7, 1â€“5 (2018) (10.1016/j.softx.2017.11.002)

   => Composite Functional: B3LYP <=

    B3LYP Hyb-GGA Exchange-Correlation Functional

    P. J. Stephens, F. J. Devlin, C. F. Chabalowski, and M. J. Frisch.,  J. Phys. Chem. 98, 11623 (1994) (10.1021/j100096a001)

    Deriv               =              1
    GGA                 =           TRUE
    Meta                =          FALSE

    Exchange Hybrid     =           TRUE
    MP2 Hybrid          =          FALSE

   => Exchange Functionals <=

    0.0800   Slater exchange
    0.7200         Becke 88

   => Exact (HF) Exchange <=

    0.2000               HF

   => Correlation Functionals <=

    0.1900   Vosko, Wilk & Nusair (VWN5_RPA)
    0.8100   Lee, Yang & Parr

   => LibXC Density Thresholds  <==

    XC_HYB_GGA_XC_B3LYP:  1.00E-15

   => Molecular Quadrature <=

    Radial Scheme          =       TREUTLER
    Pruning Scheme         =           NONE
    Nuclear Scheme         =       TREUTLER

    Blocking Scheme        =         OCTREE
    BS radius alpha        =              1
    Pruning alpha          =              1
    Radial Points          =             75
    Spherical Points       =            302
    Total Points           =          42438
    Total Blocks           =            392
    Max Points             =            254
    Max Functions          =             32
    Weights Tolerance      =       1.00E-15

  -Total Gradient:
     Atom            X                  Y                   Z
    ------   -----------------  -----------------  -----------------
       1        0.000000000000     0.000000000000    -0.000227200920
       2        0.000000000000    -0.000000000000     0.000216357473

*** tstop() called on Joses-MacBook-Pro-2.local at Wed Jul 16 19:03:42 2025
Module time:
	user time   =       0.70 seconds =       0.01 minutes
	system time =       1.80 seconds =       0.03 minutes
	total time  =          1 seconds =       0.02 minutes
Total time:
	user time   =      51.57 seconds =       0.86 minutes
	system time =      52.69 seconds =       0.88 minutes
	total time  =         10 seconds =       0.17 minutes

    			-----------------------------------------

    			 OPTKING 3.0: for geometry optimizations

    			     By R.A. King, Bethel University

    			        with contributions from

    			    A.V. Copan, J. Cayton, A. Heide

    			-----------------------------------------

	                            ===> Fragment 1 <==

	 Z (Atomic Numbers)          Masses                          Geom
	       6.000000            12.000000          0.00000000  0.00000000  2.19406081
	      14.000000            27.976927          0.00000000  0.00000000 -0.94108728

	 - Coordinate -           - BOHR/RAD -       - ANG/DEG -
	 R(1,2)           =         3.135148           1.659049

	        --- Internal Coordinate Step in ANG or DEG, aJ/ANG or AJ/DEG ---
	-------------------------------------------------------------------------------
	           Coordinate      Previous         Force          Change          New
	           ----------      --------        ------          ------        ------
	               R(1,2)       1.65905        0.00183        0.00030       1.65934
	-------------------------------------------------------------------------------

	                                 ==> Convergence Check <==

	Measures of convergence in internal coordinates in au.

	Criteria marked as inactive (o), active & met (*), and active & unmet ( ).

	----------------------------------------------------------------------------------------------
	   Step    Total Energy     Delta E     Max Force     RMS Force      Max Disp      RMS Disp
	----------------------------------------------------------------------------------------------
	  Convergence Criteria     1.00e-06 *    3.00e-04 *             o    1.20e-03 *             o
	----------------------------------------------------------------------------------------------
	    10    -327.34840566   -2.32e-06      2.22e-04 *    2.22e-04 o    5.59e-04 *    5.59e-04 o  ~
	----------------------------------------------------------------------------------------------

Next Geometry in Ang
	Fragment 1 (Ang)

	    C   0.0000000000   0.0000000000   1.1611949847
	   Si   0.0000000000   0.0000000000  -0.4981499472

    Final optimized geometry and variables:
    Molecular point group: c2v
    Full point group: C_inf_v

    Geometry (in Angstrom), charge = 0, multiplicity = 1:

    C            0.000000000000     0.000000000000     1.161046980069
    SI           0.000000000000     0.000000000000    -0.498001942550

    Psi4 stopped on: Wednesday, 16 July 2025 07:03PM
    Psi4 wall time for execution: 0:00:10.67

*** Psi4 exiting successfully. Buy a developer a beer!
