                               Psi4 1.9.1 release

  ==> Input File <==

--------------------------------------------------------------------------
molecule {
0 1
B   0.00000        0.60000        0.00000
Cl   0.00000       -0.60000        0.00000
}

set {
basis              cc-pvdz
reference          uks
maxiter            500
geom_maxiter       500
DAMPING_PERCENTAGE 1
guess              SAP
}

optimize('b3lyp')
--------------------------------------------------------------------------

    Molecular point group: c2v
  Charge       = 0
  Multiplicity = 1
  Basis Set: CC-PVDZ
    Blend: CC-PVDZ
  Basis Set: (CC-PVDZ AUX)
    Blend: CC-PVDZ-JKFIT
  @DF-UKS Final Energy:  -484.66112345989075
    Total Energy =                       -484.6611234598907458
 Dipole X            :          0.0000000            0.0000000            0.0000000
 Dipole Y            :          0.0000000            0.0000000            0.0000000
 Dipole Z            :         -1.1239970           -0.6073306           -1.7313275
 Magnitude           :                                                    1.7313275
    Molecular point group: c2v
  Basis Set: CC-PVDZ
    Blend: CC-PVDZ
  Basis Set: (CC-PVDZ AUX)
    Blend: CC-PVDZ-JKFIT
  Basis Set: CC-PVDZ
    Blend: CC-PVDZ
  Basis Set: (CC-PVDZ AUX)
    Blend: CC-PVDZ-JKFIT
  @DF-UKS Final Energy:  -484.85835372859526
    Total Energy =                       -484.8583537285952616
  Basis Set: CC-PVDZ
    Blend: CC-PVDZ
  Basis Set: (CC-PVDZ AUX)
    Blend: CC-PVDZ-JKFIT
  Basis Set: CC-PVDZ
    Blend: CC-PVDZ
  @DF-UKS Final Energy:  -484.95018306138945
    Total Energy =                       -484.9501830613894526
  @DF-UKS Final Energy:  -484.98061023300249
    Total Energy =                       -484.9806102330025510
  @DF-UKS Final Energy:  -484.99695790838865
    Total Energy =                       -484.9969579083885947
  @DF-UKS Final Energy:  -485.00375431979728
    Total Energy =                       -485.0037543197972809
  @DF-UKS Final Energy:  -485.00533567247737
    Total Energy =                       -485.0053356724773153
  @DF-UKS Final Energy:  -485.00575720200493
    Total Energy =                       -485.0057572020049292
  @DF-UKS Final Energy:  -485.00589737068503
    Total Energy =                       -485.0058973706850338
  Basis Set: (CC-PVDZ AUX)
    Blend: CC-PVDZ-JKFIT
  Basis Set: CC-PVDZ
    Blend: CC-PVDZ
  Basis Set: (CC-PVDZ AUX)
    Blend: CC-PVDZ-JKFIT
  @DF-UKS Final Energy:  -485.00592672860398
    Total Energy =                       -485.0059267286039812
  Basis Set: CC-PVDZ
    Blend: CC-PVDZ
  Basis Set: (CC-PVDZ AUX)
    Blend: CC-PVDZ-JKFIT
  Charge       = 0
  Multiplicity = 1
  Basis Set: CC-PVDZ
    Blend: CC-PVDZ
  Basis Set: (CC-PVDZ AUX)
    Blend: CC-PVDZ-JKFIT

    Orbital Energies [Eh]
    ---------------------

    Alpha Occupied:

       1A1  -101.586765     2A1    -9.507433     3A1    -7.265516
       1B2    -7.262124     1B1    -7.262124     4A1    -6.867098
       5A1    -0.883303     6A1    -0.507252     2B1    -0.386401
       2B2    -0.386401     7A1    -0.266023

    Alpha Virtual:

       3B2    -0.073716     3B1    -0.073716     8A1     0.094064
       9A1     0.221224     4B2     0.288379     4B1     0.288379
      10A1     0.355492    11A1     0.470501     5B1     0.519838
       5B2     0.519838     6B1     0.578310     6B2     0.578310
       1A2     0.608393    12A1     0.608393     2A2     0.777122
      13A1     0.777122    14A1     0.809424    15A1     1.034245
       7B2     1.066462     7B1     1.066462    16A1     1.297973

    Beta Occupied:

       1A1  -101.586765     2A1    -9.507433     3A1    -7.265516
       1B2    -7.262124     1B1    -7.262124     4A1    -6.867098
       5A1    -0.883303     6A1    -0.507252     2B1    -0.386401
       2B2    -0.386401     7A1    -0.266023

    Beta Virtual:

       3B2    -0.073716     3B1    -0.073716     8A1     0.094064
       9A1     0.221224     4B2     0.288379     4B1     0.288379
      10A1     0.355492    11A1     0.470501     5B1     0.519838
       5B2     0.519838     6B1     0.578310     6B2     0.578310
       1A2     0.608393    12A1     0.608393     2A2     0.777122
      13A1     0.777122    14A1     0.809424    15A1     1.034245
       7B2     1.066462     7B1     1.066462    16A1     1.297973

    Final Occupation by Irrep:
             A1    A2    B1    B2
    DOCC [     7,    0,    2,    2 ]
    SOCC [     0,    0,    0,    0 ]
    NA   [     7,    0,    2,    2 ]
    NB   [     7,    0,    2,    2 ]

  @DF-UKS Final Energy:  -485.00592963351926

   => Energetics <=

    Nuclear Repulsion Energy =             25.7839189940240310
    One-Electron Energy =                -718.7412248273889190
    Two-Electron Energy =                 233.9022500477530002
    DFT Exchange-Correlation Energy =     -25.9508738479073706
    Empirical Dispersion Energy =           0.0000000000000000
    VV10 Nonlocal Energy =                  0.0000000000000000
    Total Energy =                       -485.0059296335192585

  UHF NO Occupations:
  HONO-2 :    5 A1 2.0000000
  HONO-1 :    6 A1 2.0000000
  HONO-0 :    7 A1 2.0000000
  LUNO+0 :    8 A1 0.0000000
  LUNO+1 :    9 A1 0.0000000
  LUNO+2 :   10 A1 0.0000000
  LUNO+3 :   11 A1 0.0000000

Computation Completed

Properties will be evaluated at   0.000000,   0.000000,   0.000000 [a0]

Properties computed using the SCF density matrix

 Multipole Moments:

 ------------------------------------------------------------------------------------
     Multipole            Electronic (a.u.)      Nuclear  (a.u.)        Total (a.u.)
 ------------------------------------------------------------------------------------

 L = 1.  Multiply by 2.5417464519 to convert [e a0] to [Debye]
 Dipole X            :          0.0000000            0.0000000            0.0000000
 Dipole Y            :          0.0000000            0.0000000            0.0000000
 Dipole Z            :          0.3213593           -0.8829071           -0.5615479
 Magnitude           :                                                    0.5615479

 ------------------------------------------------------------------------------------

*** tstop() called on Joses-MacBook-Pro-2.local at Wed Jul 16 18:57:33 2025
Module time:
	user time   =       3.57 seconds =       0.06 minutes
	system time =       3.97 seconds =       0.07 minutes
	total time  =          1 seconds =       0.02 minutes
Total time:
	user time   =      49.46 seconds =       0.82 minutes
	system time =      61.69 seconds =       1.03 minutes
	total time  =         12 seconds =       0.20 minutes

*** tstart() called on Joses-MacBook-Pro-2.local
*** at Wed Jul 16 18:57:33 2025

         ------------------------------------------------------------
                                   SCF GRAD
                          Rob Parrish, Justin Turney,
                       Andy Simmonett, and Alex Sokolov
         ------------------------------------------------------------

  ==> Geometry <==

    Molecular point group: c2v
    Full point group: C_inf_v

    Geometry (in Angstrom), charge = 0, multiplicity = 1:

       Center              X                  Y                   Z               Mass
    ------------   -----------------  -----------------  -----------------  -----------------
         B            0.000000000000     0.000000000000     1.326786198102    11.009305360000
         CL           0.000000000000     0.000000000000    -0.417714431045    34.968852682000

  Nuclear repulsion =   25.783918994024031

  ==> Basis Set <==

  Basis Set: CC-PVDZ
    Blend: CC-PVDZ
    Number of shells: 14
    Number of basis functions: 32
    Number of Cartesian functions: 34
    Spherical Harmonics?: true
    Max angular momentum: 2

  ==> DFJKGrad: Density-Fitted SCF Gradients <==

    Gradient:                    1
    J tasked:                  Yes
    K tasked:                  Yes
    wK tasked:                  No
    OpenMP threads:              1
    Integrals threads:           1
    Memory [MiB]:              375
    Schwarz Cutoff:          1E-12
    Fitting Condition:       1E-10

   => Auxiliary Basis Set <=

  Basis Set: (CC-PVDZ AUX)
    Blend: CC-PVDZ-JKFIT
    Number of shells: 60
    Number of basis functions: 182
    Number of Cartesian functions: 211
    Spherical Harmonics?: true
    Max angular momentum: 3

  ==> DFT Potential <==

   => LibXC <=

    Version 6.2.2
    S. Lehtola, C. Steigemann, M. J.T. Oliveira, and M. A.L. Marques.,  SoftwareX 7, 1â€“5 (2018) (10.1016/j.softx.2017.11.002)

   => Composite Functional: B3LYP <=

    B3LYP Hyb-GGA Exchange-Correlation Functional

    P. J. Stephens, F. J. Devlin, C. F. Chabalowski, and M. J. Frisch.,  J. Phys. Chem. 98, 11623 (1994) (10.1021/j100096a001)

    Deriv               =              1
    GGA                 =           TRUE
    Meta                =          FALSE

    Exchange Hybrid     =           TRUE
    MP2 Hybrid          =          FALSE

   => Exchange Functionals <=

    0.0800   Slater exchange
    0.7200         Becke 88

   => Exact (HF) Exchange <=

    0.2000               HF

   => Correlation Functionals <=

    0.1900   Vosko, Wilk & Nusair (VWN5_RPA)
    0.8100   Lee, Yang & Parr

   => LibXC Density Thresholds  <==

    XC_HYB_GGA_XC_B3LYP:  1.00E-15

   => Molecular Quadrature <=

    Radial Scheme          =       TREUTLER
    Pruning Scheme         =           NONE
    Nuclear Scheme         =       TREUTLER

    Blocking Scheme        =         OCTREE
    BS radius alpha        =              1
    Pruning alpha          =              1
    Radial Points          =             75
    Spherical Points       =            302
    Total Points           =          41988
    Total Blocks           =            380
    Max Points             =            256
    Max Functions          =             32
    Weights Tolerance      =       1.00E-15

  -Total Gradient:
     Atom            X                  Y                   Z
    ------   -----------------  -----------------  -----------------
       1        0.000000000000     0.000000000000    -0.000196645940
       2       -0.000000000000     0.000000000000     0.000193040824

*** tstop() called on Joses-MacBook-Pro-2.local at Wed Jul 16 18:57:33 2025
Module time:
	user time   =       0.90 seconds =       0.01 minutes
	system time =       1.50 seconds =       0.03 minutes
	total time  =          0 seconds =       0.00 minutes
Total time:
	user time   =      50.36 seconds =       0.84 minutes
	system time =      63.20 seconds =       1.05 minutes
	total time  =         12 seconds =       0.20 minutes

    			-----------------------------------------

    			 OPTKING 3.0: for geometry optimizations

    			     By R.A. King, Bethel University

    			        with contributions from

    			    A.V. Copan, J. Cayton, A. Heide

    			-----------------------------------------

	                            ===> Fragment 1 <==

	 Z (Atomic Numbers)          Masses                          Geom
	       5.000000            11.009305          0.00000000  0.00000000  2.50726254
	      17.000000            34.968853          0.00000000  0.00000000 -0.78936587

	 - Coordinate -           - BOHR/RAD -       - ANG/DEG -
	 R(1,2)           =         3.296628           1.744501

	        --- Internal Coordinate Step in ANG or DEG, aJ/ANG or AJ/DEG ---
	-------------------------------------------------------------------------------
	           Coordinate      Previous         Force          Change          New
	           ----------      --------        ------          ------        ------
	               R(1,2)       1.74450        0.00161        0.00044       1.74494
	-------------------------------------------------------------------------------

	                                 ==> Convergence Check <==

	Measures of convergence in internal coordinates in au.

	Criteria marked as inactive (o), active & met (*), and active & unmet ( ).

	----------------------------------------------------------------------------------------------
	   Step    Total Energy     Delta E     Max Force     RMS Force      Max Disp      RMS Disp
	----------------------------------------------------------------------------------------------
	  Convergence Criteria     1.00e-06 *    3.00e-04 *             o    1.20e-03 *             o
	----------------------------------------------------------------------------------------------
	    11    -485.00592963   -2.90e-06      1.95e-04 *    1.95e-04 o    8.29e-04 *    8.29e-04 o  ~
	----------------------------------------------------------------------------------------------

Next Geometry in Ang
	Fragment 1 (Ang)

	    B   0.0000000000   0.0000000000   1.3270054428
	   Cl   0.0000000000   0.0000000000  -0.4179336758

    Final optimized geometry and variables:
    Molecular point group: c2v
    Full point group: C_inf_v

    Geometry (in Angstrom), charge = 0, multiplicity = 1:

    B            0.000000000000     0.000000000000     1.326786198102
    CL           0.000000000000     0.000000000000    -0.417714431045

    Psi4 stopped on: Wednesday, 16 July 2025 06:57PM
    Psi4 wall time for execution: 0:00:12.90

*** Psi4 exiting successfully. Buy a developer a beer!
